Title
82262
    1SAPS     N    1   2.341   3.161  11.052 -0.3315  0.5599  0.5827
    1SAPS   HN1    2   2.353   3.263  11.070 -0.4756  0.7472 -0.3964
    1SAPS   HN2    3   2.258   3.149  10.991  0.0872  1.1296 -0.1027
    1SAPS   HN3    4   2.334   3.105  11.140 -0.8417  1.4344  1.1025
    1SAPS   C12    5   2.454   3.101  10.970  0.1128  0.0043 -0.3912
    1SAPS  H12A    6   2.445   3.127  10.866  0.8951 -0.5922 -0.6119
    1SAPS   C13    7   2.594   3.153  11.024  0.2416  0.3338 -0.0117
    1SAPS  O13A    8   2.600   3.202  11.139 -0.3425  0.6799 -0.8536
    1SAPS  O13B    9   2.698   3.100  10.978 -0.4032  0.1082 -0.0395
    1SAPS   C11   10   2.443   2.941  10.986 -0.2767  1.0194 -0.0475
    1SAPS  H11A   11   2.515   2.908  11.064  0.6845  0.7889 -1.0065
    1SAPS  H11B   12   2.479   2.895  10.891 -0.7044  0.5918  0.0002
    1SAPS     P   13   2.283   2.734  11.042  0.6448 -0.3067  0.1909
    1SAPS   O13   14   2.382   2.687  11.143 -0.4414 -0.5452  0.2768
    1SAPS   O14   15   2.141   2.712  11.080  0.1743  0.3773  0.5940
    1SAPS   O12   16   2.311   2.896  11.009  0.0812  0.1439 -0.1143
    1SAPS   O11   17   2.324   2.657  10.910  0.2641  0.4783 -0.0737
    1SAPS    C1   18   2.289   2.691  10.778 -0.4072 -0.5406  0.7913
    1SAPS    HA   19   2.220   2.777  10.771 -1.0265 -1.1928 -1.8187
    1SAPS    HB   20   2.380   2.692  10.713 -0.2486 -0.4222  1.0156
    1SAPS    C2   21   2.206   2.576  10.703 -0.3059 -0.3483 -0.1607
    1SAPS    HS   22   2.105   2.565  10.748 -0.2538 -1.7200 -0.3488
    1SAPS   O21   23   2.281   2.454  10.715  1.1400  0.0113  0.4926
    1SAPS   C21   24   2.208   2.344  10.685  0.5698  0.5083 -0.2005
    1SAPS   O22   25   2.087   2.342  10.656  0.6529 -0.0928  0.3380
    1SAPS   C22   26   2.292   2.216  10.713 -0.0832  0.1830  0.0461
    1SAPS   H2R   27   2.394   2.259  10.724 -0.2533  1.2743 -2.3808
    1SAPS   H2S   28   2.252   2.171  10.806  1.1791 -1.6368 -0.2633
    1SAPS    C3   29   2.188   2.619  10.554 -0.9431  0.5359  0.0396
    1SAPS    HX   30   2.142   2.720  10.557 -0.3142  0.9028 -1.9522
    1SAPS    HY   31   2.111   2.555  10.505 -0.6492  0.8485 -0.8427
    1SAPS   O31   32   2.306   2.633  10.476 -0.5512  0.4706 -0.1726
    1SAPS   C31   33   2.345   2.519  10.402 -0.4306 -0.0453 -0.2411
    1SAPS   O32   34   2.278   2.415  10.403  0.0388 -0.5613 -0.6244
    1SAPS   C32   35   2.482   2.546  10.337 -0.2165 -0.1015 -0.0368
    1SAPS   H2X   36   2.462   2.554  10.228  2.9823  1.7812 -0.5621
    1SAPS   H2Y   37   2.552   2.465  10.366  1.9548  1.3663 -1.0702
    1SAPS   C23   38   2.289   2.113  10.600  0.3664  0.0152  0.1758
    1SAPS   H3R   39   2.249   2.147  10.502  0.6113 -0.9212 -0.2608
    1SAPS   H3S   40   2.216   2.035  10.630 -0.3401  0.1239 -1.2086
    1SAPS   C24   41   2.424   2.045  10.574  0.2927  0.4174 -0.2837
    1SAPS   H4R   42   2.400   1.957  10.510 -1.8775  2.1798 -1.9647
    1SAPS   H4S   43   2.445   2.013  10.678  0.1379 -0.7493 -0.6012
    1SAPS   C25   44   2.536   2.132  10.531  0.9055 -0.6984 -0.1845
    1SAPS   H5R   45   2.594   2.170  10.616 -1.8521  1.5886  0.7900
    1SAPS   C26   46   2.573   2.163  10.411  0.2055 -0.7775  0.1390
    1SAPS   H6R   47   2.658   2.232  10.395 -0.0321 -0.2950  0.9251
    1SAPS   C27   48   2.491   2.119  10.290 -0.7528  0.2071 -1.0903
    1SAPS   H7R   49   2.383   2.113  10.313 -0.5291 -0.4905 -0.1651
    1SAPS   H7S   50   2.534   2.018  10.269  0.8339  1.0052 -1.7825
    1SAPS   C28   51   2.499   2.207  10.170 -0.8323  0.1704 -0.6418
    1SAPS   H8R   52   2.399   2.247  10.148 -0.3510 -0.0808 -3.5115
    1SAPS   C29   53   2.600   2.235  10.088 -0.0583  0.6209 -0.9296
    1SAPS   H9R   54   2.582   2.312  10.012 -0.7863 -1.1840 -2.6318
    1SAPS  C210   55   2.739   2.184  10.118  0.1294 -0.3308  0.3465
    1SAPS  H10R   56   2.739   2.076  10.141  0.0256 -0.6174 -0.9690
    1SAPS  H10S   57   2.764   2.237  10.213 -1.3848  0.9065  0.0760
    1SAPS  C211   58   2.850   2.213  10.024 -0.5292 -0.4249 -0.0572
    1SAPS  H11R   59   2.935   2.273  10.060 -2.0231  0.2290  2.4921
    1SAPS  C212   60   2.872   2.161   9.902  0.0507  0.5940  0.1939
    1SAPS  H12R   61   2.959   2.197   9.845  0.7359 -1.5604 -0.1782
    1SAPS  C213   62   2.786   2.068   9.826 -0.7989 -0.0318  0.2039
    1SAPS  H13R   63   2.718   2.017   9.898  1.1633 -1.5845  1.0403
    1SAPS  H13S   64   2.855   1.990   9.785  1.1313  2.0376 -0.5521
    1SAPS  C214   65   2.710   2.133   9.710  0.2054 -0.0381 -0.0457
    1SAPS  H14R   66   2.603   2.156   9.727  0.5290  0.6451  1.1524
    1SAPS  C215   67   2.762   2.179   9.595  0.1373 -1.1657 -0.5582
    1SAPS  H15R   68   2.695   2.221   9.519  0.7084  0.3208 -0.2669
    1SAPS  C216   69   2.909   2.168   9.548  0.4402  0.0708 -0.3447
    1SAPS  H16R   70   2.973   2.099   9.607 -1.2889 -1.1391  0.1550
    1SAPS  H16S   71   2.964   2.265   9.545  0.9179 -0.2265 -1.5234
    1SAPS  C217   72   2.914   2.134   9.399  0.1692  0.7405 -0.3832
    1SAPS  H17R   73   2.843   2.201   9.347 -1.1603  0.6124  1.2225
    1SAPS  H17S   74   2.883   2.027   9.392 -0.7505  0.8024  2.2277
    1SAPS  C218   75   3.057   2.146   9.348  0.0236  0.2674  0.4643
    1SAPS  H18R   76   3.133   2.095   9.410 -0.6514  0.7816  1.7367
    1SAPS  H18S   77   3.090   2.252   9.354  1.0105  0.0389 -0.7505
    1SAPS  C219   78   3.087   2.096   9.205  0.5455  0.1330  0.1265
    1SAPS  H19R   79   3.057   1.989   9.196 -0.9350  0.5473 -0.0823
    1SAPS  H19S   80   3.196   2.095   9.186  0.3977 -2.6633 -0.8716
    1SAPS  C220   81   3.023   2.176   9.086  0.7020  0.1150  0.1577
    1SAPS  H20R   82   3.051   2.283   9.094  2.2260 -0.1678 -1.0743
    1SAPS  H20S   83   2.914   2.156   9.087  1.1527 -2.5976 -0.5075
    1SAPS  H20T   84   3.060   2.140   8.987 -3.1494  0.3332 -1.4250
    1SAPS   C33   85   2.550   2.686  10.378  0.3301  0.4277 -0.0580
    1SAPS   H3X   86   2.570   2.685  10.488  1.3294 -0.8249 -0.2438
    1SAPS   H3Y   87   2.493   2.779  10.357 -1.6420 -0.8143 -0.2676
    1SAPS   C34   88   2.681   2.692  10.291 -0.7372  0.0265  0.2313
    1SAPS   H4X   89   2.692   2.791  10.241  0.4752  0.6516  1.7000
    1SAPS   H4Y   90   2.678   2.610  10.215 -0.9522  0.6468 -0.4343
    1SAPS   C35   91   2.815   2.669  10.366  0.7709  0.2689 -1.0020
    1SAPS   H5X   92   2.803   2.566  10.407  0.1628  1.3580  1.7100
    1SAPS   H5Y   93   2.824   2.747  10.445 -0.7925  0.4224 -0.9567
    1SAPS   C36   94   2.937   2.684  10.280  0.1544 -0.1239 -0.2336
    1SAPS   H6X   95   3.026   2.687  10.346  0.4573  1.2399 -0.6742
    1SAPS   H6Y   96   2.935   2.783  10.229 -0.2785  0.0747  0.1578
    1SAPS   C37   97   2.944   2.580  10.167  0.3878 -0.5037 -0.1819
    1SAPS   H7X   98   2.845   2.566  10.118  0.9362 -2.2910 -0.8525
    1SAPS   H7Y   99   2.964   2.478  10.207  1.5191 -0.5162 -0.7663
    1SAPS   C38  100   3.062   2.615  10.075 -0.3307 -0.5312  0.4282
    1SAPS   H8X  101   3.155   2.588  10.130 -0.1416 -4.2980 -1.6009
    1SAPS   H8Y  102   3.059   2.719  10.037  2.4760 -0.7554 -0.5150
    1SAPS   C39  103   3.062   2.530   9.954  0.3269 -0.4257  0.0233
    1SAPS   H9X  104   2.961   2.518   9.911  0.0929 -0.1458  0.4949
    1SAPS   H9Y  105   3.104   2.433   9.989 -0.9294 -0.3276  1.8717
    1SAPS  C310  106   3.148   2.592   9.838  0.1591 -0.5756  0.0920
    1SAPS  H10X  107   3.256   2.574   9.860  0.6235  1.9220 -0.0329
    1SAPS  H10Y  108   3.130   2.701   9.831 -0.0296 -0.6424 -0.4317
    1SAPS  C311  109   3.118   2.532   9.699  0.9493  0.0117  0.5560
    1SAPS  H11X  110   3.008   2.529   9.685  0.9546  1.3446  0.1556
    1SAPS  H11Y  111   3.149   2.425   9.702 -2.9705 -1.1758  1.9833
    1SAPS  C312  112   3.181   2.604   9.576 -0.7303  0.7496  0.1812
    1SAPS  H12X  113   3.283   2.630   9.610 -1.3545 -0.4109  3.1185
    1SAPS  H12Y  114   3.130   2.695   9.539 -0.8734  0.1071 -1.2183
    1SAPS  C313  115   3.193   2.497   9.464  0.9670 -1.2363 -0.3345
    1SAPS  H13X  116   3.093   2.464   9.432  0.6243 -1.7151  1.2096
    1SAPS  H13Y  117   3.241   2.409   9.511  0.0887 -1.2691  0.5124
    1SAPS  C314  118   3.270   2.544   9.335  0.2600  0.0735  0.3229
    1SAPS  H14X  119   3.373   2.542   9.377  0.8928  2.6093 -0.9838
    1SAPS  H14Y  120   3.243   2.651   9.321  1.4892  0.6476  2.1143
    1SAPS  C315  121   3.251   2.450   9.219 -0.3998 -0.4762 -0.3201
    1SAPS  H15X  122   3.143   2.457   9.190 -0.6412 -3.3747 -0.3318
    1SAPS  H15Y  123   3.267   2.344   9.250  1.6025 -0.2100 -0.3824
    1SAPS  C316  124   3.333   2.468   9.094 -0.1390 -0.2419 -0.0710
    1SAPS  H16X  125   3.437   2.487   9.128 -0.0184  0.8326 -0.9931
    1SAPS  H16Y  126   3.309   2.564   9.042 -2.7637 -1.5681 -1.4217
    1SAPS  C317  127   3.334   2.347   8.999 -0.3816 -0.2051  0.7963
    1SAPS  H17X  128   3.305   2.256   9.057 -0.4506  0.9306  2.5984
    1SAPS  H17Y  129   3.433   2.336   8.950 -0.6025  0.6666  0.1425
    1SAPS  C318  130   3.241   2.362   8.875 -0.3012  0.5873  0.5682
    1SAPS  H18X  131   3.154   2.426   8.901 -0.2824  1.4081 -1.3090
    1SAPS  H18Y  132   3.204   2.269   8.827 -0.7740  1.0986 -0.0607
    1SAPS  H18Z  133   3.296   2.410   8.791 -0.5947  1.8815  1.1168
    2SAPS     N  134   1.177   2.368  11.191  0.6521 -0.8042 -0.9119
    2SAPS   HN1  135   1.133   2.448  11.240  0.9097  0.6336 -2.9767
    2SAPS   HN2  136   1.199   2.297  11.264 -2.0125 -0.3858  0.3374
    2SAPS   HN3  137   1.264   2.412  11.156  0.5112 -0.2776 -0.6060
    2SAPS   C12  138   1.096   2.307  11.081  0.2170  0.3606 -0.1223
    2SAPS  H12A  139   1.140   2.211  11.061  2.4764  1.8015 -2.4032
    2SAPS   C13  140   0.947   2.276  11.100 -0.5403  0.2371  0.4825
    2SAPS  O13A  141   0.889   2.303  11.207  0.1865  0.3793 -0.0934
    2SAPS  O13B  142   0.884   2.218  11.003  0.0751 -0.0617 -0.0353
    2SAPS   C11  143   1.118   2.386  10.951  0.2375 -0.6306 -0.2397
    2SAPS  H11A  144   1.053   2.475  10.941  0.6372 -0.4174 -0.9425
    2SAPS  H11B  145   1.102   2.313  10.869  1.6206 -0.9345 -0.2519
    2SAPS     P  146   1.318   2.477  10.802  0.2926  0.0842 -0.1868
    2SAPS   O13  147   1.225   2.585  10.762 -0.6056  0.2513  0.3270
    2SAPS   O14  148   1.458   2.507  10.826  0.3034  0.4864 -0.5645
    2SAPS   O12  149   1.259   2.416  10.933  0.5137 -0.0380  0.1946
    2SAPS   O11  150   1.312   2.364  10.697 -0.1503 -0.2784  0.5867
    2SAPS    C1  151   1.355   2.232  10.749  0.3740  0.1050 -0.2791
    2SAPS    HA  152   1.369   2.234  10.859  0.0094  0.8227 -0.2453
    2SAPS    HB  153   1.274   2.159  10.728  1.5293 -1.4446  0.4644
    2SAPS    C2  154   1.496   2.174  10.688  0.1702 -0.3247 -0.2810
    2SAPS    HS  155   1.572   2.247  10.724 -0.3901  1.7797 -3.2077
    2SAPS   O21  156   1.480   2.176  10.544 -0.8197 -0.2354 -0.7797
    2SAPS   C21  157   1.591   2.203  10.476 -0.1100 -0.1815 -0.6872
    2SAPS   O22  158   1.703   2.221  10.524 -0.2883 -0.3038 -0.3406
    2SAPS   C22  159   1.559   2.191  10.329 -1.1333 -0.1972 -0.4074
    2SAPS   H2R  160   1.620   2.109  10.286 -3.2234 -2.2286  0.3740
    2SAPS   H2S  161   1.452   2.170  10.306 -1.0087 -0.6389 -0.5926
    2SAPS    C3  162   1.532   2.035  10.739 -0.3872 -0.0976 -0.6733
    2SAPS    HX  163   1.560   2.044  10.846 -0.2477  0.8865 -0.7885
    2SAPS    HY  164   1.620   1.989  10.689  0.3168  0.1928  0.2717
    2SAPS   O31  165   1.417   1.949  10.730 -0.3479  0.3364 -0.2888
    2SAPS   C31  166   1.400   1.891  10.612  0.3933  0.4712  0.3315
    2SAPS   O32  167   1.481   1.878  10.524  0.4849  0.8401  0.0170
    2SAPS   C32  168   1.260   1.824  10.620 -0.0710 -0.2322  0.1133
    2SAPS   H2X  169   1.185   1.880  10.681 -0.3658  0.1713 -0.6176
    2SAPS   H2Y  170   1.276   1.719  10.655  0.0832 -0.5494 -0.8984
    2SAPS   C23  171   1.605   2.313  10.259  0.4257  0.3381  0.3472
    2SAPS   H3R  172   1.716   2.322  10.271  0.4415  0.1386  0.3403
    2SAPS   H3S  173   1.557   2.404  10.301 -0.2072 -1.3578  3.3662
    2SAPS   C24  174   1.584   2.308  10.108  0.0327 -0.8800  0.4300
    2SAPS   H4R  175   1.653   2.228  10.074 -1.3877 -1.9515 -0.0009
    2SAPS   H4S  176   1.623   2.402  10.065  1.6362 -2.6104 -2.0748
    2SAPS   C25  177   1.440   2.298  10.064 -0.4472 -0.1116  0.3177
    2SAPS   H5R  178   1.375   2.361  10.127  1.6278 -0.3004  2.7290
    2SAPS   C26  179   1.390   2.231   9.964  0.1066  0.1549 -0.5366
    2SAPS   H6R  180   1.281   2.220   9.949  0.0980 -0.0910 -0.3065
    2SAPS   C27  181   1.472   2.144   9.868 -1.1247  0.9474  0.1306
    2SAPS   H7R  182   1.577   2.176   9.885 -0.7924  0.3252 -0.7320
    2SAPS   H7S  183   1.443   2.188   9.770 -4.0591 -0.1142  0.4797
    2SAPS   C28  184   1.457   1.998   9.883 -0.9011 -0.5600 -0.6587
    2SAPS   H8R  185   1.462   1.968   9.989 -1.6811  2.3068  0.2561
    2SAPS   C29  186   1.436   1.906   9.782 -0.3001 -0.3989 -0.0506
    2SAPS   H9R  187   1.439   1.800   9.812 -0.0206 -0.3441  0.1189
    2SAPS  C210  188   1.422   1.933   9.637 -0.5375  0.5433 -0.2165
    2SAPS  H10R  189   1.500   2.003   9.601  1.9961 -0.9393  2.2393
    2SAPS  H10S  190   1.325   1.984   9.618 -0.5296  0.1089 -1.4861
    2SAPS  C211  191   1.411   1.807   9.558  0.0263 -0.3170  0.2173
    2SAPS  H11R  192   1.347   1.726   9.594  2.5370 -1.1150  3.1205
    2SAPS  C212  193   1.480   1.781   9.445  0.0323  0.5148  0.0345
    2SAPS  H12R  194   1.482   1.673   9.423  2.0439  0.4113  0.6720
    2SAPS  C213  195   1.584   1.851   9.361 -0.3177 -0.1232  0.2745
    2SAPS  H13R  196   1.582   1.796   9.264 -1.0085 -2.4211  1.5674
    2SAPS  H13S  197   1.682   1.863   9.413 -1.4436 -0.5803  2.5546
    2SAPS  C214  198   1.540   1.983   9.314  0.7998  0.0089 -0.0902
    2SAPS  H14R  199   1.431   1.996   9.324  0.7588 -1.6244  1.8487
    2SAPS  C215  200   1.623   2.082   9.279  1.1847  0.9652  0.3233
    2SAPS  H15R  201   1.586   2.178   9.239 -1.6706 -0.8374 -1.5517
    2SAPS  C216  202   1.775   2.079   9.271  0.2100 -0.7069  0.2349
    2SAPS  H16R  203   1.830   1.986   9.298  1.3845  0.1388  0.7799
    2SAPS  H16S  204   1.814   2.162   9.333  0.1303 -0.8999  0.5427
    2SAPS  C217  205   1.819   2.125   9.127  0.7609  0.1199  0.2972
    2SAPS  H17R  206   1.784   2.054   9.049 -0.1201  0.3415  0.4870
    2SAPS  H17S  207   1.928   2.112   9.113  0.3790 -1.6564 -1.2184
    2SAPS  C218  208   1.786   2.276   9.094 -0.2585  1.0099  0.2462
    2SAPS  H18R  209   1.845   2.336   9.166  1.7173  2.0533 -2.1726
    2SAPS  H18S  210   1.677   2.297   9.096 -0.1799  1.9686 -2.7688
    2SAPS  C219  211   1.823   2.330   8.950 -0.2453  0.4464 -0.0724
    2SAPS  H19R  212   1.933   2.343   8.937  0.2174 -0.5971  2.4929
    2SAPS  H19S  213   1.786   2.434   8.944 -0.5119  0.3459 -0.1847
    2SAPS  C220  214   1.776   2.251   8.830  0.1015  0.1169  0.0085
    2SAPS  H20R  215   1.829   2.155   8.810  1.5158  1.0581 -0.8547
    2SAPS  H20S  216   1.781   2.311   8.737 -2.7970  0.8100  0.2431
    2SAPS  H20T  217   1.669   2.220   8.839 -0.3602  1.3307 -1.1828
    2SAPS   C33  218   1.199   1.817  10.475 -0.2813  0.1380 -0.0132
    2SAPS   H3X  219   1.127   1.733  10.489 -1.5698  1.1890 -0.1915
    2SAPS   H3Y  220   1.269   1.801  10.391 -2.2101 -0.0870 -1.6215
    2SAPS   C34  221   1.124   1.942  10.435 -0.4018 -0.4120  0.1942
    2SAPS   H4X  222   1.195   2.026  10.420  0.6363 -1.3838 -0.3947
    2SAPS   H4Y  223   1.049   1.953  10.516 -0.5976  1.5691 -0.2296
    2SAPS   C35  224   1.047   1.923  10.305 -0.4469  0.4464 -0.4579
    2SAPS   H5X  225   0.968   2.000  10.293 -1.9874 -0.6871  2.0366
    2SAPS   H5Y  226   0.991   1.827  10.313 -0.4876  0.5241  0.1589
    2SAPS   C36  227   1.137   1.924  10.183 -0.1388  0.7978 -0.1914
    2SAPS   H6X  228   1.194   1.829  10.176  0.0063  0.9642 -1.3042
    2SAPS   H6Y  229   1.209   2.008  10.194  2.0893 -1.1515  0.5044
    2SAPS   C37  230   1.058   1.949  10.053  0.0772 -0.3637  0.0805
    2SAPS   H7X  231   1.130   1.988   9.978  1.8614 -3.0398  0.3412
    2SAPS   H7Y  232   0.990   2.036  10.062  1.9703  1.1343  0.1028
    2SAPS   C38  233   0.983   1.825   9.999  0.4494  0.5284  0.3290
    2SAPS   H8X  234   0.894   1.813  10.065  1.7961 -3.0082  1.6706
    2SAPS   H8Y  235   1.047   1.735  10.011  1.3988  1.4327  2.2698
    2SAPS   C39  236   0.934   1.830   9.855  0.8547  0.6529 -0.1212
    2SAPS   H9X  237   0.853   1.906   9.853 -0.7929 -0.9337  2.3389
    2SAPS   H9Y  238   0.878   1.734   9.851  1.1160  0.4097  1.5931
    2SAPS  C310  239   1.032   1.837   9.733 -0.1311 -0.1269 -0.2082
    2SAPS  H10X  240   1.100   1.749   9.741  0.6445  0.2211 -2.6448
    2SAPS  H10Y  241   1.091   1.929   9.751 -0.0753 -0.2546  0.2855
    2SAPS  C311  242   0.963   1.839   9.595 -0.4260  0.0831  0.2237
    2SAPS  H11X  243   0.893   1.925   9.597  0.2662  0.6201  1.6955
    2SAPS  H11Y  244   0.906   1.744   9.580 -0.7099  0.0976  1.2198
    2SAPS  C312  245   1.069   1.839   9.477 -0.3087 -0.0675 -1.4268
    2SAPS  H12X  246   1.133   1.748   9.478  1.4875  0.9972  5.1952
    2SAPS  H12Y  247   1.151   1.912   9.493  1.2798 -1.7111 -1.9050
    2SAPS  C313  248   1.010   1.893   9.346  0.1577  0.0016 -0.3588
    2SAPS  H13X  249   1.010   2.004   9.356 -1.1677  0.1979 -2.2275
    2SAPS  H13Y  250   0.908   1.850   9.335  0.5681 -0.7561 -1.2414
    2SAPS  C314  251   1.090   1.850   9.223  0.2804  0.0158 -0.4941
    2SAPS  H14X  252   1.197   1.872   9.241  0.3516 -0.3513 -0.4710
    2SAPS  H14Y  253   1.055   1.904   9.132  0.2800 -0.0435 -0.5299
    2SAPS  C315  254   1.060   1.698   9.186  0.2392 -0.4938  1.0057
    2SAPS  H15X  255   0.952   1.672   9.177  0.1408  0.5547 -1.2582
    2SAPS  H15Y  256   1.107   1.631   9.261  1.3763  1.8259  2.3838
    2SAPS  C316  257   1.139   1.661   9.057  0.7264  0.3294  0.7255
    2SAPS  H16X  258   1.247   1.651   9.080  0.7200 -1.2352  0.1670
    2SAPS  H16Y  259   1.141   1.748   8.988 -0.1661 -1.2429 -1.3760
    2SAPS  C317  260   1.087   1.541   8.977  0.4069  0.4594  0.0391
    2SAPS  H17X  261   1.085   1.460   9.054  1.1571  0.1226 -0.2986
    2SAPS  H17Y  262   1.153   1.517   8.891 -0.0327  0.3313 -0.2650
    2SAPS  C318  263   0.938   1.561   8.938  0.0481  0.5395 -0.1312
    2SAPS  H18X  264   0.910   1.469   8.882 -0.6750 -1.0734  2.8284
    2SAPS  H18Y  265   0.925   1.638   8.858 -0.6716  0.1837 -0.3585
    2SAPS  H18Z  266   0.861   1.577   9.015 -0.3753  1.4311 -0.7333
    3SAPS     N  267   1.453   4.487  10.890 -0.2479 -0.3066  0.0361
    3SAPS   HN1  268   1.358   4.480  10.848 -0.6799  1.4212  0.6754
    3SAPS   HN2  269   1.483   4.586  10.884 -1.5331  0.1803  1.3011
    3SAPS   HN3  270   1.510   4.430  10.825 -2.7705 -1.2350 -1.4465
    3SAPS   C12  271   1.463   4.430  11.031 -0.2545 -0.0843 -0.2083
    3SAPS  H12A  272   1.413   4.502  11.095  0.6340  0.3810 -0.0289
    3SAPS   C13  273   1.390   4.292  11.066 -0.7280  0.1538  0.0008
    3SAPS  O13A  274   1.307   4.247  10.977 -0.3543  0.2811 -0.1686
    3SAPS  O13B  275   1.386   4.244  11.186 -0.2707 -0.2318 -0.0595
    3SAPS   C11  276   1.617   4.422  11.074  0.0022 -0.2952  0.0503
    3SAPS  H11A  277   1.685   4.360  11.012  1.8420  1.1891  0.5273
    3SAPS  H11B  278   1.637   4.365  11.168  1.0990  1.3139  0.8104
    3SAPS     P  279   1.773   4.621  10.997 -0.1635  0.2194 -0.4477
    3SAPS   O13  280   1.798   4.751  11.061 -0.4763  0.0720 -0.1908
    3SAPS   O14  281   1.894   4.531  10.982  0.2737 -0.0681 -0.5186
    3SAPS   O12  282   1.676   4.547  11.100 -0.0578 -0.0402  0.2987
    3SAPS   O11  283   1.691   4.644  10.861  0.2902  0.6818  0.3585
    3SAPS    C1  284   1.746   4.611  10.730 -0.0487  0.8616 -0.0339
    3SAPS    HA  285   1.854   4.637  10.733  0.1221  0.3532 -1.4102
    3SAPS    HB  286   1.725   4.505  10.704 -1.6535  0.7235  1.6735
    3SAPS    C2  287   1.694   4.693  10.614  0.2503 -0.0359 -0.4724
    3SAPS    HS  288   1.768   4.685  10.532 -0.5770  2.3950 -1.5133
    3SAPS   O21  289   1.661   4.828  10.655  0.4957 -0.3381 -0.6925
    3SAPS   C21  290   1.760   4.901  10.683 -0.2601 -0.3140 -0.9417
    3SAPS   O22  291   1.878   4.868  10.664  0.5336  0.1560 -0.0809
    3SAPS   C22  292   1.711   5.038  10.750  0.0736  0.1837  0.1759
    3SAPS   H2R  293   1.602   5.056  10.756  0.0406 -0.1081  0.4580
    3SAPS   H2S  294   1.748   5.023  10.854  1.2578  0.1387 -0.2372
    3SAPS    C3  295   1.565   4.624  10.551  0.6929  0.6925 -0.1550
    3SAPS    HX  296   1.525   4.706  10.488  1.1852  1.3963  0.4274
    3SAPS    HY  297   1.495   4.593  10.632 -0.9792  0.8490 -1.5177
    3SAPS   O31  298   1.612   4.503  10.482  0.4444  0.3176 -0.1116
    3SAPS   C31  299   1.624   4.503  10.345  0.5269 -0.2271 -0.4645
    3SAPS   O32  300   1.599   4.595  10.273 -0.4201  0.0601  0.2052
    3SAPS   C32  301   1.691   4.376  10.303  0.3422 -0.1247 -0.6784
    3SAPS   H2X  302   1.623   4.288  10.311 -1.5746  1.3477 -0.2578
    3SAPS   H2Y  303   1.759   4.357  10.388 -2.4639 -1.0795  1.4595
    3SAPS   C23  304   1.774   5.164  10.695  0.4416  0.3566 -0.8931
    3SAPS   H3R  305   1.878   5.144  10.662  0.5952 -0.5702  0.1376
    3SAPS   H3S  306   1.770   5.241  10.775 -5.7605  0.0260 -0.5950
    3SAPS   C24  307   1.692   5.212  10.566 -0.0709 -0.5685 -0.1430
    3SAPS   H4R  308   1.588   5.225  10.602 -0.0710 -4.2490  1.4010
    3SAPS   H4S  309   1.689   5.125  10.496  0.3605  0.6477 -1.6892
    3SAPS   C25  310   1.749   5.339  10.507 -0.0967  0.0999  0.3369
    3SAPS   H5R  311   1.745   5.430  10.568  0.5014  1.7974 -2.0756
    3SAPS   C26  312   1.796   5.351  10.383  0.8427 -0.1001  0.8751
    3SAPS   H6R  313   1.838   5.447  10.351 -0.2869 -0.2579 -1.1303
    3SAPS   C27  314   1.801   5.238  10.282  0.8320  0.1442  1.1313
    3SAPS   H7R  315   1.837   5.274  10.183 -0.7692  0.5539  0.6972
    3SAPS   H7S  316   1.695   5.221  10.256  1.0582  1.2347 -0.5928
    3SAPS   C28  317   1.876   5.110  10.311 -0.4263  0.0671  0.4159
    3SAPS   H8R  318   1.935   5.113  10.403  1.3683  2.8551 -0.7762
    3SAPS   C29  319   1.880   5.001  10.234 -0.8236  0.0922 -0.5581
    3SAPS   H9R  320   1.930   4.915  10.281 -1.9892 -1.1105 -1.4672
    3SAPS  C210  321   1.818   4.971  10.099  0.2363  0.0529 -0.4446
    3SAPS  H10R  322   1.899   4.981  10.024  0.5258  1.7080  0.0733
    3SAPS  H10S  323   1.736   5.044  10.081  1.0923  0.8631 -1.0882
    3SAPS  C211  324   1.770   4.829  10.097  0.5430 -0.5509  0.1665
    3SAPS  H11R  325   1.785   4.775  10.191  0.8657  3.6719  2.6359
    3SAPS  C212  326   1.719   4.776   9.985  0.0169 -0.7628  0.6415
    3SAPS  H12R  327   1.692   4.669   9.985  1.0827 -1.0324  0.5116
    3SAPS  C213  328   1.700   4.848   9.855  0.6396  0.1504 -0.4420
    3SAPS  H13R  329   1.723   4.956   9.850  1.6755 -0.1235 -2.2026
    3SAPS  H13S  330   1.591   4.838   9.833 -0.1524  1.8778  2.5281
    3SAPS  C214  331   1.786   4.790   9.744 -0.1788  0.0353 -0.0505
    3SAPS  H14R  332   1.891   4.779   9.775 -0.1579  1.9947  0.6625
    3SAPS  C215  333   1.742   4.760   9.618 -0.8570  0.0800 -0.1301
    3SAPS  H15R  334   1.816   4.719   9.547 -0.3731  0.9427 -0.1343
    3SAPS  C216  335   1.602   4.783   9.566 -0.3705 -0.6504 -0.2887
    3SAPS  H16R  336   1.565   4.887   9.571  0.2272 -0.4151 -0.6509
    3SAPS  H16S  337   1.534   4.733   9.638 -0.1489  0.8268  0.9871
    3SAPS  C217  338   1.573   4.742   9.419 -0.6112 -0.0090  0.8081
    3SAPS  H17R  339   1.640   4.810   9.362 -1.8483 -0.2879 -1.0357
    3SAPS  H17S  340   1.472   4.785   9.399 -0.0648  0.1168 -1.8197
    3SAPS  C218  341   1.591   4.595   9.391 -0.2659 -0.0842 -0.0405
    3SAPS  H18R  342   1.524   4.523   9.443  0.5084 -2.1169 -1.8067
    3SAPS  H18S  343   1.695   4.565   9.415  1.1830  4.6924  0.1876
    3SAPS  C219  344   1.581   4.547   9.246  0.0972  0.4403 -0.4099
    3SAPS  H19R  345   1.501   4.608   9.198  3.6882  1.9364 -4.8870
    3SAPS  H19S  346   1.554   4.439   9.250 -0.3063  0.5716  0.5114
    3SAPS  C220  347   1.708   4.554   9.162  1.1421  0.1179  0.5941
    3SAPS  H20R  348   1.779   4.489   9.217 -1.8414 -3.2543  0.6168
    3SAPS  H20S  349   1.752   4.656   9.163 -1.1658  1.1458  1.4495
    3SAPS  H20T  350   1.703   4.520   9.056 -0.3370 -0.7170  0.9041
    3SAPS   C33  351   1.739   4.390  10.157 -1.3172  0.2858  0.4855
    3SAPS   H3X  352   1.802   4.302  10.137  0.3656  0.6709  3.7541
    3SAPS   H3Y  353   1.810   4.475  10.147 -1.5365  0.4162  0.0414
    3SAPS   C34  354   1.636   4.394  10.034 -0.4986 -0.0202  0.2121
    3SAPS   H4X  355   1.567   4.481  10.037  1.2454  1.4166 -0.2622
    3SAPS   H4Y  356   1.582   4.298  10.040 -1.3908  0.5117  0.8430
    3SAPS   C35  357   1.727   4.405   9.909  0.0224 -0.3351 -0.5882
    3SAPS   H5X  358   1.819   4.350   9.936  1.1779  1.3464 -1.0269
    3SAPS   H5Y  359   1.755   4.511   9.888 -0.6127  0.1979  1.1530
    3SAPS   C36  360   1.667   4.352   9.782 -0.4608 -0.5607 -0.4454
    3SAPS   H6X  361   1.573   4.403   9.751 -0.7662 -1.7911 -1.5752
    3SAPS   H6Y  362   1.635   4.247   9.798 -0.7605 -0.3711  0.2172
    3SAPS   C37  363   1.752   4.360   9.655 -0.4030  0.9423 -0.0831
    3SAPS   H7X  364   1.779   4.467   9.643  0.5591  0.4690 -2.5471
    3SAPS   H7Y  365   1.695   4.327   9.565 -0.3451  1.7447 -0.4147
    3SAPS   C38  366   1.880   4.282   9.671 -0.1664 -0.4582  0.3517
    3SAPS   H8X  367   1.877   4.176   9.705  0.2893  0.3638  3.1067
    3SAPS   H8Y  368   1.925   4.333   9.759  0.0215 -1.0464  0.6032
    3SAPS   C39  369   1.959   4.285   9.541 -0.1004  0.4856 -0.5404
    3SAPS   H9X  370   1.904   4.224   9.467  1.5198  1.1798 -2.3586
    3SAPS   H9Y  371   2.064   4.249   9.547  0.1636  1.1634 -1.0133
    3SAPS  C310  372   1.979   4.418   9.464  0.0335  0.0998 -0.5382
    3SAPS  H10X  373   2.026   4.481   9.543  1.9389 -2.1553  0.1621
    3SAPS  H10Y  374   1.879   4.455   9.430 -0.1612  0.0718 -0.0051
    3SAPS  C311  375   2.078   4.400   9.347  0.1695  0.1215  0.2116
    3SAPS  H11X  376   2.012   4.381   9.259 -0.3701  0.9979  0.4250
    3SAPS  H11Y  377   2.148   4.315   9.362 -0.2140  0.0284  1.5188
    3SAPS  C312  378   2.156   4.528   9.311 -0.1610 -0.2640  0.5017
    3SAPS  H12X  379   2.195   4.576   9.404  1.4968 -0.9808  0.2011
    3SAPS  H12Y  380   2.080   4.599   9.274  1.0101  1.1152  0.7202
    3SAPS  C313  381   2.262   4.511   9.205  0.4800  0.0065 -0.4356
    3SAPS  H13X  382   2.331   4.436   9.248  0.6596 -1.2360 -2.8017
    3SAPS  H13Y  383   2.311   4.611   9.206 -2.4751  1.5074  1.2952
    3SAPS  C314  384   2.218   4.468   9.071  0.0146 -0.4619  0.6364
    3SAPS  H14X  385   2.132   4.527   9.033 -0.9683 -0.7160  2.3722
    3SAPS  H14Y  386   2.153   4.378   9.078  1.3572 -1.6123 -1.2206
    3SAPS  C315  387   2.330   4.433   8.967  0.4814 -0.6081 -0.3660
    3SAPS  H15X  388   2.364   4.328   8.983 -1.1176 -0.7080  2.7521
    3SAPS  H15Y  389   2.414   4.503   8.986  1.6539 -2.0455 -0.1250
    3SAPS  C316  390   2.274   4.432   8.822  0.6201 -0.4379 -0.1633
    3SAPS  H16X  391   2.173   4.386   8.826  0.0031  1.0113  2.2744
    3SAPS  H16Y  392   2.344   4.378   8.754  1.0262  0.8460 -0.7880
    3SAPS  C317  393   2.269   4.573   8.763  0.4347  0.2331  0.1698
    3SAPS  H17X  394   2.225   4.650   8.830  2.7900  3.4203 -1.7986
    3SAPS  H17Y  395   2.196   4.561   8.680  0.2269  0.6253  0.2926
    3SAPS  C318  396   2.392   4.634   8.708  0.5745 -0.1399 -0.3293
    3SAPS  H18X  397   2.445   4.575   8.630  1.6962  0.6981 -0.2198
    3SAPS  H18Y  398   2.471   4.644   8.785  0.0478  1.2261  0.0387
    3SAPS  H18Z  399   2.364   4.732   8.665  0.5190 -0.0745 -0.1420
    4SAPS     N  400   4.011   5.895  10.798 -0.0075 -0.4804 -0.3019
    4SAPS   HN1  401   3.932   5.960  10.777  0.3981 -0.0747 -0.5961
    4SAPS   HN2  402   4.095   5.955  10.804  0.4888 -1.2701  0.8995
    4SAPS   HN3  403   4.028   5.823  10.724 -1.7734 -0.7151 -0.5149
    4SAPS   C12  404   3.999   5.814  10.919 -0.2487 -0.0844 -0.0468
    4SAPS  H12A  405   4.087   5.751  10.922 -2.0501 -2.7295 -0.4742
    4SAPS   C13  406   3.994   5.885  11.056  0.2844  0.2422  0.6400
    4SAPS  O13A  407   4.016   6.012  11.060  0.3831  0.2257  0.2316
    4SAPS  O13B  408   3.988   5.818  11.165 -0.2491  0.1384  0.4992
    4SAPS   C11  409   3.868   5.722  10.905 -0.6898 -0.5549  0.0376
    4SAPS  H11A  410   3.787   5.798  10.907  1.6566  2.0277  0.3672
    4SAPS  H11B  411   3.852   5.660  10.995 -2.6458 -0.1389 -0.0097
    4SAPS     P  412   3.929   5.497  10.776  0.0832 -0.2308  0.4063
    4SAPS   O13  413   4.075   5.505  10.757 -0.5702 -0.0699 -0.3487
    4SAPS   O14  414   3.893   5.432  10.905 -0.5585 -0.5140 -0.2603
    4SAPS   O12  415   3.872   5.647  10.782 -0.3311  0.3574 -0.0352
    4SAPS   O11  416   3.870   5.440  10.647  0.2974  0.0333 -0.2143
    4SAPS    C1  417   3.859   5.529  10.535 -0.3764  0.3977  0.0069
    4SAPS    HA  418   3.771   5.596  10.546 -4.0378 -4.0627 -0.6022
    4SAPS    HB  419   3.956   5.578  10.515  0.5710 -1.6223 -0.4825
    4SAPS    C2  420   3.821   5.435  10.418 -0.1656  0.0657 -0.0422
    4SAPS    HS  421   3.719   5.391  10.430 -1.0660  2.7226  2.4447
    4SAPS   O21  422   3.916   5.338  10.395  0.1082  0.4754 -0.7695
    4SAPS   C21  423   3.899   5.215  10.433 -0.1539 -0.0842 -0.8480
    4SAPS   O22  424   3.803   5.167  10.481 -0.0230  0.0445 -0.6909
    4SAPS   C22  425   4.026   5.133  10.413 -0.1873 -0.5292 -0.5257
    4SAPS   H2R  426   4.096   5.210  10.375  0.4507 -0.7795  0.1422
    4SAPS   H2S  427   4.061   5.083  10.506 -2.1267  0.9906  1.0640
    4SAPS    C3  428   3.801   5.507  10.281 -0.7879 -0.2939 -0.4945
    4SAPS    HX  429   3.893   5.567  10.268 -1.1497  0.7331  1.4194
    4SAPS    HY  430   3.712   5.573  10.286 -0.5985 -0.0754  0.0466
    4SAPS   O31  431   3.793   5.407  10.171 -0.7681  0.3958 -0.3432
    4SAPS   C31  432   3.668   5.383  10.128  0.3380 -1.3307  0.0648
    4SAPS   O32  433   3.567   5.447  10.165  0.2475 -0.1656 -0.3497
    4SAPS   C32  434   3.667   5.263  10.031 -0.3575  0.2495 -0.4456
    4SAPS   H2X  435   3.685   5.170  10.089  1.7888  0.2165 -1.1165
    4SAPS   H2Y  436   3.766   5.274   9.982  1.3622 -0.3040  2.7981
    4SAPS   C23  437   3.995   5.032  10.304 -0.9906 -0.1602 -0.7536
    4SAPS   H3R  438   3.959   5.074  10.208  2.4584 -0.0434 -2.0958
    4SAPS   H3S  439   3.944   4.945  10.349 -0.7117  0.9015  1.7013
    4SAPS   C24  440   4.132   4.970  10.273  0.9366  0.4073 -0.5250
    4SAPS   H4R  441   4.180   4.942  10.369 -1.9732 -0.8663  0.6011
    4SAPS   H4S  442   4.191   5.053  10.230  0.6145  0.7011 -0.4028
    4SAPS   C25  443   4.127   4.844  10.181  0.0438 -0.7779  0.1006
    4SAPS   H5R  444   4.147   4.748  10.233  2.3383  0.0720  0.8772
    4SAPS   C26  445   4.095   4.830  10.056  0.5209 -0.0904  0.2680
    4SAPS   H6R  446   4.118   4.731  10.014 -1.5251 -0.6900  0.5357
    4SAPS   C27  447   4.047   4.935   9.964  0.2389 -0.2731  0.3038
    4SAPS   H7R  448   4.113   4.935   9.875 -0.7498 -2.6475 -0.4597
    4SAPS   H7S  449   4.049   5.036  10.011 -1.2394 -0.0553 -0.0745
    4SAPS   C28  450   3.910   4.887   9.927 -0.3017 -0.0325  0.5351
    4SAPS   H8R  451   3.856   4.829  10.003 -0.9217  1.0651  0.9479
    4SAPS   C29  452   3.854   4.898   9.807  0.6976 -0.2550 -0.6307
    4SAPS   H9R  453   3.755   4.856   9.784 -1.3444  3.2906  1.2371
    4SAPS  C210  454   3.922   4.970   9.696 -0.5422  0.0349 -0.0438
    4SAPS  H10R  455   4.002   4.907   9.653 -0.5465  0.5453 -0.8055
    4SAPS  H10S  456   3.977   5.052   9.747 -0.8925 -1.6060  3.1267
    4SAPS  C211  457   3.833   5.008   9.581  0.0019  0.6371 -0.4348
    4SAPS  H11R  458   3.727   5.026   9.603 -0.7517 -3.1372 -0.6359
    4SAPS  C212  459   3.877   5.028   9.455  0.2392  0.2666  0.2473
    4SAPS  H12R  460   3.795   5.029   9.383  0.0961 -2.2196  0.3356
    4SAPS  C213  461   4.006   5.015   9.397 -0.4839 -0.1316 -0.3177
    4SAPS  H13R  462   4.030   4.918   9.348  1.7471  0.3531 -0.2257
    4SAPS  H13S  463   4.087   5.021   9.472  0.4380 -0.0405 -1.3081
    4SAPS  C214  464   4.036   5.112   9.283 -0.2752 -0.6682  0.0881
    4SAPS  H14R  465   4.111   5.188   9.306 -0.5443 -0.7350  1.1890
    4SAPS  C215  466   3.996   5.111   9.155 -0.1707  0.1766 -0.5701
    4SAPS  H15R  467   4.015   5.203   9.098 -1.0643 -0.1877 -1.4648
    4SAPS  C216  468   3.886   5.021   9.097  0.6599 -0.9356 -0.0770
    4SAPS  H16R  469   3.834   4.958   9.172  1.5746 -1.3781  0.1900
    4SAPS  H16S  470   3.919   4.943   9.025  1.2725  0.4858 -1.3488
    4SAPS  C217  471   3.771   5.097   9.030  0.6353 -0.2680 -0.4717
    4SAPS  H17R  472   3.762   5.199   9.074  0.3815 -0.1654 -0.7606
    4SAPS  H17S  473   3.670   5.051   9.032  0.6631 -0.2905  0.5060
    4SAPS  C218  474   3.808   5.112   8.883 -0.1187  0.2679 -0.8298
    4SAPS  H18R  475   3.818   5.009   8.842  1.6143 -0.8252  2.1370
    4SAPS  H18S  476   3.901   5.169   8.864  0.0781  0.9091  1.7818
    4SAPS  C219  477   3.687   5.173   8.806 -0.5079  0.1471  0.0520
    4SAPS  H19R  478   3.602   5.110   8.838 -0.3957  0.4640  0.9872
    4SAPS  H19S  479   3.710   5.156   8.698  0.0519 -1.4642  0.4044
    4SAPS  C220  480   3.674   5.321   8.835  0.6283 -0.7622  0.8143
    4SAPS  H20R  481   3.771   5.372   8.819  0.4038 -0.9352 -1.2318
    4SAPS  H20S  482   3.635   5.347   8.936 -3.0252  0.0178 -0.6950
    4SAPS  H20T  483   3.600   5.357   8.761  0.7265 -1.1314  0.5333
    4SAPS   C33  484   3.544   5.244   9.944 -0.2443  0.9678 -0.3014
    4SAPS   H3X  485   3.449   5.230  10.000 -1.3728  0.2743 -2.3714
    4SAPS   H3Y  486   3.564   5.157   9.879  1.5361  1.5842 -0.6331
    4SAPS   C34  487   3.512   5.362   9.839 -0.0091  0.4076 -0.2982
    4SAPS   H4X  488   3.515   5.459   9.892  0.7578  1.6641 -2.5700
    4SAPS   H4Y  489   3.418   5.341   9.783  0.2453 -2.0788  0.1461
    4SAPS   C35  490   3.622   5.365   9.734  0.7313  0.3570 -0.0589
    4SAPS   H5X  491   3.600   5.295   9.650 -0.1419  1.7788 -1.0380
    4SAPS   H5Y  492   3.725   5.345   9.771  1.3564 -1.9015 -2.7892
    4SAPS   C36  493   3.630   5.507   9.680 -0.7498  0.3638 -1.0460
    4SAPS   H6X  494   3.682   5.572   9.754 -0.8005 -1.4759  0.6531
    4SAPS   H6Y  495   3.526   5.543   9.664 -1.1683 -0.4004 -0.0755
    4SAPS   C37  496   3.720   5.520   9.550 -0.3415 -0.3340 -0.6902
    4SAPS   H7X  497   3.827   5.492   9.564 -1.0587 -3.5568 -1.2563
    4SAPS   H7Y  498   3.716   5.630   9.534  1.7163 -0.0623  0.4824
    4SAPS   C38  499   3.670   5.446   9.426  0.0863  0.0182  0.5949
    4SAPS   H8X  500   3.574   5.487   9.389  0.5140  0.2760 -0.2292
    4SAPS   H8Y  501   3.643   5.344   9.461 -0.1753  0.6386  2.2895
    4SAPS   C39  502   3.778   5.436   9.315  0.0933 -0.2318  0.2445
    4SAPS   H9X  503   3.738   5.382   9.227  0.1894 -1.0911  0.7283
    4SAPS   H9Y  504   3.862   5.378   9.357  0.0992  1.3719  2.5758
    4SAPS  C310  505   3.833   5.571   9.264  0.4514  1.4307 -0.1408
    4SAPS  H10X  506   3.870   5.639   9.345  0.6806 -1.9613  2.7099
    4SAPS  H10Y  507   3.753   5.618   9.203  1.8977  2.6106 -1.1849
    4SAPS  C311  508   3.952   5.564   9.171  0.7803 -0.5034  0.0150
    4SAPS  H11X  509   4.025   5.484   9.193  1.8641  0.4906  0.1126
    4SAPS  H11Y  510   3.998   5.665   9.182  1.3328 -0.6437 -0.9108
    4SAPS  C312  511   3.920   5.538   9.025  0.4665  0.1155  0.0356
    4SAPS  H12X  512   3.850   5.615   8.987 -0.8694 -1.5130 -0.7970
    4SAPS  H12Y  513   3.877   5.436   9.021 -1.5163  0.9228  0.5956
    4SAPS  C313  514   4.051   5.548   8.945 -0.3504  0.1677 -0.5651
    4SAPS  H13X  515   4.122   5.480   8.996 -0.9884  0.6786  1.0430
    4SAPS  H13Y  516   4.091   5.652   8.946  0.1495 -0.0247 -0.2511
    4SAPS  C314  517   4.025   5.512   8.802 -0.0256  0.7695  1.0012
    4SAPS  H14X  518   3.946   5.574   8.755  1.2176  0.1363 -2.0263
    4SAPS  H14Y  519   4.000   5.404   8.795  1.1935  0.3151  3.1047
    4SAPS  C315  520   4.143   5.521   8.707 -1.4152 -0.1736 -0.1862
    4SAPS  H15X  521   4.227   5.461   8.748 -0.0256 -0.0729 -2.8342
    4SAPS  H15Y  522   4.171   5.628   8.710 -1.1921 -0.2530  2.0441
    4SAPS  C316  523   4.107   5.470   8.564 -0.3198  0.3611 -0.7893
    4SAPS  H16X  524   4.068   5.366   8.576  1.2294  0.0514  1.9397
    4SAPS  H16Y  525   4.207   5.475   8.516 -0.1966 -1.8017 -0.8407
    4SAPS  C317  526   3.986   5.543   8.498  0.3888 -0.2632  0.1911
    4SAPS  H17X  527   3.988   5.653   8.517  0.5502 -0.4451  1.2666
    4SAPS  H17Y  528   3.895   5.506   8.550 -0.2556 -0.6614 -1.2014
    4SAPS  C318  529   3.976   5.513   8.350 -0.3099 -0.2496  0.3026
    4SAPS  H18X  530   3.957   5.405   8.338  2.4224 -0.5842 -1.3936
    4SAPS  H18Y  531   4.072   5.539   8.300 -1.3170  0.6401 -1.2385
    4SAPS  H18Z  532   3.895   5.559   8.288  1.1527 -0.5079 -1.8800
    5SAPS     N  533   0.567   4.338  11.015  0.4003  0.2344 -0.3663
    5SAPS   HN1  534   0.538   4.306  10.920 -0.6984 -0.1280  0.0899
    5SAPS   HN2  535   0.662   4.297  11.021 -0.1724 -1.3012 -1.4164
    5SAPS   HN3  536   0.510   4.294  11.090  0.7747 -1.2812 -0.9600
    5SAPS   C12  537   0.566   4.486  11.027  0.8218  0.1852  0.3673
    5SAPS  H12A  538   0.462   4.505  11.009  0.4457 -0.4645  1.7650
    5SAPS   C13  539   0.599   4.544  11.166  0.0509 -0.2138 -0.4682
    5SAPS  O13A  540   0.648   4.462  11.252 -0.2554 -0.8985  0.8598
    5SAPS  O13B  541   0.623   4.667  11.172  0.2475  0.5690 -0.4911
    5SAPS   C11  542   0.650   4.551  10.911  0.5046  0.5548 -0.7813
    5SAPS  H11A  543   0.656   4.661  10.929 -0.0028  0.6196 -0.9990
    5SAPS  H11B  544   0.588   4.539  10.820  1.3248  2.2741 -1.5966
    5SAPS     P  545   0.833   4.415  10.781 -0.2444  0.1404  0.1188
    5SAPS   O13  546   0.982   4.402  10.793  0.1927 -0.1935  0.2847
    5SAPS   O14  547   0.761   4.288  10.771  0.2132  0.1044 -0.4657
    5SAPS   O12  548   0.781   4.490  10.906 -0.0211 -0.1152  0.2603
    5SAPS   O11  549   0.795   4.514  10.674  0.4012  0.6119  0.2334
    5SAPS    C1  550   0.855   4.639  10.682 -0.1495  0.4166  0.2088
    5SAPS    HA  551   0.787   4.706  10.740  0.3249  0.2411  0.9699
    5SAPS    HB  552   0.953   4.656  10.731  1.6622  0.8141 -3.4012
    5SAPS    C2  553   0.881   4.689  10.536 -0.4813 -0.0622 -1.0147
    5SAPS    HS  554   0.961   4.767  10.538 -1.5648  1.0313  0.2893
    5SAPS   O21  555   0.759   4.749  10.478 -0.2339  0.0936 -0.2564
    5SAPS   C21  556   0.712   4.861  10.533 -0.0004 -0.4191  0.2693
    5SAPS   O22  557   0.774   4.934  10.609 -0.9630  0.0244  0.2744
    5SAPS   C22  558   0.577   4.893  10.462  0.1742  1.2092 -0.4551
    5SAPS   H2R  559   0.530   4.793  10.451  2.2484  0.1335  0.1210
    5SAPS   H2S  560   0.525   4.958  10.535 -3.3120  1.5577 -3.1129
    5SAPS    C3  561   0.928   4.568  10.443 -0.4391 -1.2659  0.2805
    5SAPS    HX  562   0.846   4.534  10.376 -0.2881  1.2758 -1.2594
    5SAPS    HY  563   0.962   4.481  10.503  1.7558 -0.4257  0.2983
    5SAPS   O31  564   1.032   4.609  10.354  0.2276 -0.2003  0.1246
    5SAPS   C31  565   1.160   4.580  10.382  0.1360  0.1420 -0.1471
    5SAPS   O32  566   1.198   4.527  10.483 -0.5324  0.1077 -0.5482
    5SAPS   C32  567   1.254   4.619  10.263  0.3060 -0.3501  0.0638
    5SAPS   H2X  568   1.342   4.555  10.282  2.2171  1.6473 -1.7307
    5SAPS   H2Y  569   1.264   4.729  10.278 -3.7171  0.4731 -2.3721
    5SAPS   C23  570   0.598   4.976  10.332 -0.3476  0.0714  1.0529
    5SAPS   H3R  571   0.632   4.917  10.244 -0.0133  0.8217  0.6741
    5SAPS   H3S  572   0.672   5.057  10.347 -1.3830  1.1480  0.4517
    5SAPS   C24  573   0.465   5.018  10.291  0.1059 -0.0042 -0.2550
    5SAPS   H4R  574   0.485   5.088  10.208  1.2262 -0.3416 -0.2759
    5SAPS   H4S  575   0.423   5.059  10.386 -1.8477 -5.2229  1.3818
    5SAPS   C25  576   0.358   4.918  10.240 -0.5310 -0.3857 -0.4035
    5SAPS   H5R  577   0.284   4.888  10.317 -1.9248  0.6069 -1.3265
    5SAPS   C26  578   0.342   4.870  10.119 -0.0516  0.9179 -0.2734
    5SAPS   H6R  579   0.264   4.792  10.117  1.0003 -0.2415  2.1981
    5SAPS   C27  580   0.428   4.902   9.997 -0.2823  0.4144 -0.3981
    5SAPS   H7R  581   0.462   4.807   9.950  0.5608  0.8151 -0.6176
    5SAPS   H7S  582   0.521   4.951  10.033  1.0368 -1.5029 -1.1068
    5SAPS   C28  583   0.349   4.991   9.899  0.5912  0.3856 -0.0225
    5SAPS   H8R  584   0.286   5.067   9.948  2.0669  1.0742  0.8406
    5SAPS   C29  585   0.336   4.995   9.763  0.6590  0.7948 -0.1225
    5SAPS   H9R  586   0.275   5.075   9.720 -0.2194  0.1024 -0.1721
    5SAPS  C210  587   0.411   4.907   9.667 -1.2499  0.2588 -0.1393
    5SAPS  H10R  588   0.495   4.855   9.717 -1.2354 -1.6310 -2.0446
    5SAPS  H10S  589   0.458   4.969   9.588 -1.9120 -1.5614 -2.0145
    5SAPS  C211  590   0.315   4.812   9.606 -0.1422 -0.4365  0.3047
    5SAPS  H11R  591   0.265   4.746   9.679 -2.0594  1.7941  1.0583
    5SAPS  C212  592   0.280   4.806   9.474  0.1258 -0.8956  0.2175
    5SAPS  H12R  593   0.185   4.751   9.463  0.3582 -0.9475 -1.6327
    5SAPS  C213  594   0.329   4.899   9.370  0.5041  0.7089  0.1612
    5SAPS  H13R  595   0.438   4.916   9.384  0.0215  2.0899  2.4643
    5SAPS  H13S  596   0.275   4.995   9.377 -2.9067 -1.2506  1.6755
    5SAPS  C214  597   0.305   4.827   9.236  0.2745  0.4471 -0.1076
    5SAPS  H14R  598   0.304   4.717   9.241 -2.3868  0.4030 -1.1875
    5SAPS  C215  599   0.273   4.885   9.124 -0.5488  0.4701 -0.6322
    5SAPS  H15R  600   0.244   4.824   9.037 -0.6133  0.9104 -0.9185
    5SAPS  C216  601   0.271   5.033   9.095 -0.3008 -0.0538  0.2521
    5SAPS  H16R  602   0.285   5.100   9.182 -0.7527  1.7245 -0.9991
    5SAPS  H16S  603   0.171   5.059   9.055 -1.4396 -1.2711  2.2528
    5SAPS  C217  604   0.379   5.085   8.996 -0.5568 -0.0761 -0.0749
    5SAPS  H17R  605   0.480   5.058   9.033 -0.2707 -0.9880 -1.4965
    5SAPS  H17S  606   0.380   5.196   8.992  0.9763 -0.0359  1.1910
    5SAPS  C218  607   0.367   5.022   8.858 -0.2152 -0.4393  0.2801
    5SAPS  H18R  608   0.460   5.047   8.803 -2.0851 -0.7145 -3.1596
    5SAPS  H18S  609   0.365   4.911   8.858  1.3074 -0.4821 -0.7924
    5SAPS  C219  610   0.254   5.070   8.770  0.1540  0.0565 -0.8441
    5SAPS  H19R  611   0.261   5.181   8.770 -0.5154  0.1173 -3.1354
    5SAPS  H19S  612   0.157   5.041   8.816  1.7640 -2.8097  0.9090
    5SAPS  C220  613   0.277   5.032   8.624  0.3595 -0.0656 -0.0007
    5SAPS  H20R  614   0.181   5.034   8.568  0.2931  0.7461  0.1282
    5SAPS  H20S  615   0.310   4.927   8.611 -3.1822 -0.9839 -1.9226
    5SAPS  H20T  616   0.362   5.087   8.578 -0.8721  2.1042  0.2215
    5SAPS   C33  617   1.200   4.593  10.117 -0.0301  0.9868 -0.2650
    5SAPS   H3X  618   1.266   4.638  10.040  1.9293 -1.2044  0.0893
    5SAPS   H3Y  619   1.106   4.651  10.101 -0.4271  0.1867 -0.8663
    5SAPS   C34  620   1.187   4.452  10.077  0.2413  0.5452 -0.8461
    5SAPS   H4X  621   1.127   4.406  10.158  0.0819  2.6988  0.2946
    5SAPS   H4Y  622   1.281   4.394  10.085 -0.6968 -0.6991  1.7477
    5SAPS   C35  623   1.114   4.436   9.944 -0.2213  0.2129  0.3575
    5SAPS   H5X  624   1.024   4.501   9.944  0.7163  1.7062 -3.7163
    5SAPS   H5Y  625   1.081   4.331   9.935  0.7846 -0.4876  3.8883
    5SAPS   C36  626   1.213   4.470   9.826 -0.1665  0.0231  0.3239
    5SAPS   H6X  627   1.289   4.390   9.817 -1.9827 -2.0701  2.8136
    5SAPS   H6Y  628   1.266   4.563   9.855 -0.1899 -0.5246  2.1917
    5SAPS   C37  629   1.141   4.486   9.689  0.5729 -0.1280 -0.7711
    5SAPS   H7X  630   1.080   4.578   9.690 -0.8195 -1.0267 -0.9115
    5SAPS   H7Y  631   1.072   4.402   9.666  1.3815 -0.6372 -1.3917
    5SAPS   C38  632   1.234   4.508   9.570 -0.7298 -0.4104  0.6952
    5SAPS   H8X  633   1.303   4.421   9.564 -0.0078  0.1805  0.4997
    5SAPS   H8Y  634   1.289   4.603   9.581 -0.0437 -1.0309  2.9970
    5SAPS   C39  635   1.146   4.513   9.442  0.0808  0.1423  0.1786
    5SAPS   H9X  636   1.053   4.572   9.457  0.1793  0.1220  0.9155
    5SAPS   H9Y  637   1.120   4.405   9.437  0.2738  0.0839  0.3917
    5SAPS  C310  638   1.215   4.565   9.318 -0.5236  0.8700 -1.0382
    5SAPS  H10X  639   1.305   4.501   9.306 -2.0635 -1.4897 -0.3946
    5SAPS  H10Y  640   1.249   4.667   9.345 -0.6314  0.6241  0.0450
    5SAPS  C311  641   1.125   4.534   9.193  0.1139  0.1790  0.0961
    5SAPS  H11X  642   1.020   4.569   9.201  0.0855  0.8735 -2.6844
    5SAPS  H11Y  643   1.118   4.424   9.181 -0.1609  0.3308 -1.1884
    5SAPS  C312  644   1.190   4.595   9.076  0.0953  0.2354  0.0863
    5SAPS  H12X  645   1.293   4.554   9.068  0.6023  1.2284  1.4175
    5SAPS  H12Y  646   1.206   4.705   9.087 -0.5253  0.2080  1.3272
    5SAPS  C313  647   1.116   4.566   8.947  0.3642  0.0913  0.2207
    5SAPS  H13X  648   1.015   4.611   8.952  0.6971  0.8615  0.0742
    5SAPS  H13Y  649   1.101   4.456   8.938 -1.2056  0.3561 -0.5410
    5SAPS  C314  650   1.186   4.621   8.824 -0.5013  0.5657 -0.0913
    5SAPS  H14X  651   1.290   4.584   8.819 -0.0435  1.9368 -1.0817
    5SAPS  H14Y  652   1.192   4.732   8.832  0.2412  0.5366 -0.2334
    5SAPS  C315  653   1.108   4.602   8.698  0.2830 -0.6384  0.3240
    5SAPS  H15X  654   1.061   4.501   8.691  1.0001 -0.8029 -2.6572
    5SAPS  H15Y  655   1.173   4.606   8.609  0.7648 -1.4887  0.6333
    5SAPS  C316  656   0.999   4.706   8.691  0.2039 -0.2071  0.1659
    5SAPS  H16X  657   1.033   4.805   8.728 -1.5788  0.7452 -0.6683
    5SAPS  H16Y  658   0.918   4.679   8.762  0.6459  1.1067  1.1754
    5SAPS  C317  659   0.919   4.710   8.553 -0.6953 -0.5316  0.4246
    5SAPS  H17X  660   0.831   4.773   8.580 -1.6047 -2.3908  1.9212
    5SAPS  H17Y  661   0.878   4.609   8.534 -2.5185  0.0890  0.9688
    5SAPS  C318  662   0.997   4.761   8.436  0.7911  1.1343 -0.3131
    5SAPS  H18X  663   0.933   4.746   8.346 -0.4227  1.1354  0.5305
    5SAPS  H18Y  664   1.089   4.701   8.420  0.6312  0.5893  0.7349
    5SAPS  H18Z  665   1.034   4.866   8.442 -1.9796  2.2244 -1.5691
    6SAPS     N  666   0.870   4.057  10.739  0.0416 -0.2142 -0.3654
    6SAPS   HN1  667   0.971   4.079  10.751 -0.3094  0.2538  2.0843
    6SAPS   HN2  668   0.850   4.048  10.638  1.3626 -1.0792 -0.5632
    6SAPS   HN3  669   0.820   4.146  10.759  1.1243  0.3339 -0.0571
    6SAPS   C12  670   0.826   3.935  10.817 -0.1880 -0.1861 -0.6406
    6SAPS  H12A  671   0.861   3.846  10.767 -0.7155 -0.3674 -0.6949
    6SAPS   C13  672   0.876   3.933  10.962  0.2281  0.7954 -0.1495
    6SAPS  O13A  673   0.957   4.017  11.013 -0.1789  0.1809 -0.4699
    6SAPS  O13B  674   0.832   3.837  11.038 -0.0602 -0.8132 -0.0691
    6SAPS   C11  675   0.670   3.937  10.821 -0.1400 -0.5532  0.0958
    6SAPS  H11A  676   0.638   4.022  10.885  0.5871  0.4011 -0.7829
    6SAPS  H11B  677   0.638   3.842  10.867 -1.4295 -0.6030 -0.8963
    6SAPS     P  678   0.459   3.950  10.675 -0.5123  0.0301  0.1385
    6SAPS   O13  679   0.402   4.017  10.793 -0.2869 -0.2493  0.0518
    6SAPS   O14  680   0.419   3.997  10.543  0.0809 -0.3830 -0.1101
    6SAPS   O12  681   0.619   3.949  10.684 -0.5595  0.3725  0.1986
    6SAPS   O11  682   0.446   3.800  10.686 -0.2530  0.0993  0.6493
    6SAPS    C1  683   0.491   3.706  10.592 -0.5063  0.3714  0.3035
    6SAPS    HA  684   0.561   3.751  10.518 -0.2678  1.8919  1.4231
    6SAPS    HB  685   0.535   3.619  10.645  0.9159 -0.0466 -1.5395
    6SAPS    C2  686   0.365   3.655  10.514  0.2010 -0.4838  0.2318
    6SAPS    HS  687   0.405   3.576  10.447  0.9569  0.6987 -0.7175
    6SAPS   O21  688   0.298   3.752  10.435  0.5802  0.4091  0.0810
    6SAPS   C21  689   0.361   3.795  10.330  0.0491  0.5181 -0.4098
    6SAPS   O22  690   0.470   3.757  10.290 -0.0255 -0.3566 -0.5676
    6SAPS   C22  691   0.285   3.916  10.271  0.0701  0.8277  0.4037
    6SAPS   H2R  692   0.177   3.889  10.273 -0.3363  2.4272  0.1847
    6SAPS   H2S  693   0.289   3.990  10.353 -0.8939  1.1289  0.1914
    6SAPS    C3  694   0.262   3.581  10.606  0.7725 -0.6993  0.3746
    6SAPS    HX  695   0.244   3.647  10.693  0.6699  0.1831 -0.3172
    6SAPS    HY  696   0.324   3.497  10.645  1.4654 -0.1798  0.3980
    6SAPS   O31  697   0.142   3.540  10.532  0.2062  0.0492  0.6475
    6SAPS   C31  698   0.080   3.433  10.561 -0.3917 -0.3586  0.6954
    6SAPS   O32  699   0.119   3.347  10.645  0.1936 -0.6227  0.6448
    6SAPS   C32  700  -0.030   3.406  10.460 -0.4937 -0.4447 -0.1138
    6SAPS   H2X  701  -0.025   3.456  10.361  0.5204 -1.6352 -0.6889
    6SAPS   H2Y  702  -0.118   3.435  10.521 -0.0803 -0.4623  0.4897
    6SAPS   C23  703   0.336   3.980  10.139 -0.1219 -0.7046 -0.0509
    6SAPS   H3R  704   0.446   3.966  10.143 -0.0496 -0.2030 -0.1972
    6SAPS   H3S  705   0.309   4.088  10.132 -0.4578 -0.6502  1.7983
    6SAPS   C24  706   0.279   3.910  10.010  0.3089 -0.4537 -0.0429
    6SAPS   H4R  707   0.176   3.947   9.990 -0.0804 -2.3038 -1.6093
    6SAPS   H4S  708   0.263   3.805  10.045  0.4272 -0.9254 -1.3612
    6SAPS   C25  709   0.359   3.915   9.881  0.4300 -0.9708 -0.1950
    6SAPS   H5R  710   0.462   3.945   9.902 -0.3655  0.0319  2.5055
    6SAPS   C26  711   0.316   3.889   9.751 -0.4263  0.0399  0.2020
    6SAPS   H6R  712   0.387   3.912   9.671 -1.4843 -0.1863 -0.8033
    6SAPS   C27  713   0.176   3.852   9.701 -0.3605  0.2254  0.0156
    6SAPS   H7R  714   0.109   3.823   9.785  0.4275  0.4622  0.7230
    6SAPS   H7S  715   0.185   3.766   9.630  1.1379 -0.5874  1.1729
    6SAPS   C28  716   0.094   3.952   9.631  0.3573 -0.0999 -0.0511
    6SAPS   H8R  717   0.014   3.990   9.696 -1.4387 -2.4154 -0.8346
    6SAPS   C29  718   0.094   3.978   9.494  0.0936  0.6114 -0.7250
    6SAPS   H9R  719   0.031   4.060   9.457  0.2310  0.3822 -1.4827
    6SAPS  C210  720   0.188   3.920   9.385 -0.5682  0.0006  0.1703
    6SAPS  H10R  721   0.144   3.906   9.284  3.0031  1.7170 -1.7013
    6SAPS  H10S  722   0.227   3.819   9.412  0.2808  0.0363 -0.8864
    6SAPS  C211  723   0.310   4.004   9.361 -0.2330 -0.2198  1.4546
    6SAPS  H11R  724   0.386   3.985   9.438 -0.5865  0.8854  2.0868
    6SAPS  C212  725   0.343   4.069   9.246 -0.1839  0.8338  0.0569
    6SAPS  H12R  726   0.438   4.124   9.245 -0.9509  2.1787 -1.6874
    6SAPS  C213  727   0.270   4.078   9.111 -0.5221  0.2577 -0.1800
    6SAPS  H13R  728   0.174   4.022   9.107 -2.2395  3.1737 -0.6502
    6SAPS  H13S  729   0.339   4.016   9.050  2.4985  3.2943 -0.0077
    6SAPS  C214  730   0.251   4.219   9.054 -0.9665  0.5030  0.2121
    6SAPS  H14R  731   0.183   4.288   9.106 -1.3894  0.7630 -0.6819
    6SAPS  C215  732   0.312   4.269   8.944 -0.1660  0.2984  0.4226
    6SAPS  H15R  733   0.297   4.375   8.916  0.5211  0.5156  0.8569
    6SAPS  C216  734   0.413   4.196   8.862  0.4080 -0.0293  0.4772
    6SAPS  H16R  735   0.349   4.158   8.780 -1.7205 -0.0853  2.0930
    6SAPS  H16S  736   0.453   4.103   8.907 -0.4610 -0.9537 -0.6358
    6SAPS  C217  737   0.530   4.281   8.812  0.4210  0.1155 -0.3394
    6SAPS  H17R  738   0.500   4.386   8.796  2.8962  0.3323 -4.2452
    6SAPS  H17S  739   0.569   4.244   8.714  1.4696 -2.2804  0.9435
    6SAPS  C218  740   0.664   4.276   8.898  0.9459 -0.3704  0.0858
    6SAPS  H18R  741   0.687   4.168   8.913 -0.7650 -0.6068  1.1246
    6SAPS  H18S  742   0.636   4.325   8.993  0.3950 -0.6867  0.0880
    6SAPS  C219  743   0.782   4.344   8.825 -0.2726  0.0165  0.4046
    6SAPS  H19R  744   0.867   4.341   8.896 -0.9800  1.3142  1.3394
    6SAPS  H19S  745   0.759   4.451   8.803 -0.0416 -0.0122  0.0310
    6SAPS  C220  746   0.818   4.273   8.687 -0.3978  0.0524  0.1285
    6SAPS  H20R  747   0.846   4.165   8.690  0.1933  0.2211  1.5863
    6SAPS  H20S  748   0.906   4.327   8.645  0.2887 -1.6228 -0.6041
    6SAPS  H20T  749   0.732   4.277   8.617 -1.0553  1.9468  0.9903
    6SAPS   C33  750  -0.035   3.256  10.434  0.0200  0.3794 -1.1545
    6SAPS   H3X  751  -0.133   3.232  10.386 -1.2815 -0.4956  1.8284
    6SAPS   H3Y  752  -0.032   3.196  10.527  0.5276  0.0266 -1.3962
    6SAPS   C34  753   0.090   3.211  10.362 -0.0159 -0.4869  0.1242
    6SAPS   H4X  754   0.070   3.102  10.352 -1.6321 -0.1506 -0.4100
    6SAPS   H4Y  755   0.184   3.221  10.420  0.5250 -0.4169 -0.7560
    6SAPS   C35  756   0.092   3.266  10.217 -0.5607 -0.0945  0.3683
    6SAPS   H5X  757   0.135   3.368  10.213 -1.1363  0.2226  1.9406
    6SAPS   H5Y  758  -0.014   3.275  10.186 -0.1392  0.2556 -1.0047
    6SAPS   C36  759   0.165   3.173  10.117 -0.1782  0.0693 -0.2688
    6SAPS   H6X  760   0.131   3.067  10.122  1.4888 -0.5970 -2.2373
    6SAPS   H6Y  761   0.268   3.165  10.157  0.4120  0.4113 -1.6854
    6SAPS   C37  762   0.153   3.215   9.967  0.2195  0.0057 -0.1299
    6SAPS   H7X  763   0.200   3.315   9.950 -0.7563  0.7686  1.5586
    6SAPS   H7Y  764   0.046   3.220   9.938 -0.0999 -4.0721  0.0712
    6SAPS   C38  765   0.216   3.110   9.883 -0.5665  0.0639  0.2676
    6SAPS   H8X  766   0.162   3.013   9.886  0.6554 -0.6861 -1.2030
    6SAPS   H8Y  767   0.315   3.091   9.931 -0.4665  1.6360  0.7066
    6SAPS   C39  768   0.228   3.148   9.733  0.4835  0.4687  0.1047
    6SAPS   H9X  769   0.262   3.254   9.733  2.2530 -0.0762 -0.9119
    6SAPS   H9Y  770   0.124   3.155   9.694 -0.3910 -3.0029  1.6199
    6SAPS  C310  771   0.322   3.057   9.644  0.5189 -0.6764 -0.2676
    6SAPS  H10X  772   0.282   2.953   9.651  0.8166 -0.7254  0.7274
    6SAPS  H10Y  773   0.422   3.064   9.691  1.7970 -0.0747 -2.9995
    6SAPS  C311  774   0.326   3.091   9.495  0.2139 -0.9543 -0.9354
    6SAPS  H11X  775   0.341   3.200   9.480  0.4438 -1.0572 -1.4523
    6SAPS  H11Y  776   0.225   3.066   9.456 -0.7951  1.3205  0.1290
    6SAPS  C312  777   0.437   3.024   9.407  0.5283  0.2737 -0.1168
    6SAPS  H12X  778   0.464   2.924   9.445  2.8640  1.2767  0.9567
    6SAPS  H12Y  779   0.531   3.082   9.418  0.0966  1.5470 -2.6978
    6SAPS  C313  780   0.383   3.025   9.265  0.2007  0.0495  0.1165
    6SAPS  H13X  781   0.353   3.127   9.232  0.5675  0.5124  1.1949
    6SAPS  H13Y  782   0.299   2.951   9.263  0.0796  0.1274  1.8531
    6SAPS  C314  783   0.483   2.967   9.163  0.1266 -0.2849 -0.0248
    6SAPS  H14X  784   0.514   2.864   9.193  0.8591  0.6306  2.4825
    6SAPS  H14Y  785   0.571   3.033   9.152  0.8056 -1.0559  0.7134
    6SAPS  C315  786   0.413   2.956   9.024 -0.0390 -0.0119  0.8447
    6SAPS  H15X  787   0.380   3.058   8.996 -1.2583 -0.1909  1.5652
    6SAPS  H15Y  788   0.326   2.886   9.029  1.4654 -2.2053 -2.5686
    6SAPS  C316  789   0.495   2.905   8.907  0.0166  0.3461 -0.5738
    6SAPS  H16X  790   0.492   2.794   8.899  1.7857  0.3000 -0.7938
    6SAPS  H16Y  791   0.601   2.935   8.922 -0.0379  0.8711 -1.2152
    6SAPS  C317  792   0.475   2.973   8.774  0.2413 -0.5675  0.9292
    6SAPS  H17X  793   0.464   3.081   8.797  1.0316  0.1491 -1.9264
    6SAPS  H17Y  794   0.379   2.939   8.729  1.0122 -3.7828  1.5515
    6SAPS  C318  795   0.598   2.942   8.679  0.7103 -0.1446  0.0696
    6SAPS  H18X  796   0.590   2.999   8.584 -0.3775 -0.6012 -0.1243
    6SAPS  H18Y  797   0.588   2.836   8.647 -1.4514  0.0652 -0.0296
    6SAPS  H18Z  798   0.696   2.975   8.719  1.0368 -0.0082 -0.8380
    7SAPS     N  799   2.251   5.097  10.997  0.9466 -0.5621 -0.1622
    7SAPS   HN1  800   2.208   5.017  10.945  1.0606 -1.2655  0.8093
    7SAPS   HN2  801   2.258   5.072  11.097 -2.4569  1.3586  0.6339
    7SAPS   HN3  802   2.196   5.185  10.988  1.0243 -0.3763  1.1565
    7SAPS   C12  803   2.391   5.112  10.942  0.6099  0.2133  0.3366
    7SAPS  H12A  804   2.380   5.169  10.850  0.5849 -0.7077 -0.2387
    7SAPS   C13  805   2.501   5.184  11.028  0.4282  0.0639  0.2277
    7SAPS  O13A  806   2.478   5.243  11.134 -0.6932 -0.6381 -0.2997
    7SAPS  O13B  807   2.601   5.213  10.957 -0.0722  0.3618  0.3607
    7SAPS   C11  808   2.449   4.966  10.901  1.0163  0.4560 -0.3200
    7SAPS  H11A  809   2.456   4.901  10.991 -1.2782 -1.1208 -1.2456
    7SAPS  H11B  810   2.553   4.985  10.865  0.8133  0.7917 -0.7324
    7SAPS     P  811   2.397   4.859  10.665  0.1287 -0.1595  0.0981
    7SAPS   O13  812   2.472   4.733  10.660  0.5770  0.4627 -0.0622
    7SAPS   O14  813   2.269   4.871  10.590  0.0367  0.2119 -0.0522
    7SAPS   O12  814   2.358   4.891  10.817 -0.0883 -0.4113  0.6314
    7SAPS   O11  815   2.501   4.979  10.630  0.4514 -0.8510 -0.1419
    7SAPS    C1  816   2.457   5.077  10.531 -0.1016  0.2102 -0.2097
    7SAPS    HA  817   2.411   5.032  10.441 -0.8462 -2.0862  1.2773
    7SAPS    HB  818   2.389   5.152  10.578 -0.2189  0.6861 -1.1388
    7SAPS    C2  819   2.585   5.146  10.459  0.1733 -0.1314  0.0804
    7SAPS    HS  820   2.558   5.181  10.357 -0.4769  1.9508  0.9385
    7SAPS   O21  821   2.685   5.046  10.452 -0.1085  0.2423  0.4762
    7SAPS   C21  822   2.665   4.961  10.359  0.2362  0.0745 -0.0684
    7SAPS   O22  823   2.590   4.972  10.262  0.3778  0.3610 -0.5732
    7SAPS   C22  824   2.768   4.848  10.369  0.8909  0.6456  0.0235
    7SAPS   H2R  825   2.869   4.888  10.345  1.2308  1.4136  2.6289
    7SAPS   H2S  826   2.773   4.813  10.474  0.1722 -0.7463 -0.3856
    7SAPS    C3  827   2.624   5.266  10.548  0.8372 -0.1678  0.4065
    7SAPS    HX  828   2.669   5.218  10.637 -1.2338 -0.2194  1.4758
    7SAPS    HY  829   2.533   5.319  10.584 -0.4084 -0.5932 -1.9468
    7SAPS   O31  830   2.711   5.360  10.476 -0.0843 -0.1312 -0.2889
    7SAPS   C31  831   2.772   5.443  10.558 -0.3640  0.6408  0.2101
    7SAPS   O32  832   2.755   5.446  10.679  0.1090 -0.4964  0.5523
    7SAPS   C32  833   2.879   5.520  10.485  0.2785 -0.4752  0.2393
    7SAPS   H2X  834   2.906   5.481  10.385 -2.7705  1.9588 -1.6106
    7SAPS   H2Y  835   2.971   5.512  10.547  0.8697  0.8013 -0.4602
    7SAPS   C23  836   2.748   4.730  10.277 -0.1196 -0.4655  1.0038
    7SAPS   H3R  837   2.646   4.685  10.268 -0.8925  1.2881  0.7188
    7SAPS   H3S  838   2.813   4.650  10.318 -0.1524 -0.7518  0.5031
    7SAPS   C24  839   2.794   4.768  10.125  0.5574  0.5447 -0.3043
    7SAPS   H4R  840   2.872   4.847  10.133 -0.1968  1.3711 -1.0439
    7SAPS   H4S  841   2.706   4.806  10.070  0.1334  1.4429  0.9719
    7SAPS   C25  842   2.854   4.643  10.061 -0.6361 -0.1841  0.3740
    7SAPS   H5R  843   2.818   4.549  10.105  3.7118 -1.5725  1.2355
    7SAPS   C26  844   2.920   4.634   9.949 -0.0187  0.5618 -0.4153
    7SAPS   H6R  845   2.956   4.538   9.911  0.9431  0.9087 -0.3888
    7SAPS   C27  846   2.956   4.743   9.855  0.3629 -0.0274  0.4169
    7SAPS   H7R  847   3.065   4.726   9.837  1.1464  1.7040  3.1177
    7SAPS   H7S  848   2.945   4.843   9.903  1.2828 -0.4033  1.4367
    7SAPS   C28  849   2.859   4.735   9.737  1.1513 -0.7711 -0.1841
    7SAPS   H8R  850   2.753   4.731   9.766  0.4917  1.7807 -2.0401
    7SAPS   C29  851   2.893   4.732   9.605  0.3926  0.2823  0.4172
    7SAPS   H9R  852   2.808   4.735   9.535 -0.1752 -0.4479  1.0734
    7SAPS  C210  853   3.032   4.733   9.540 -0.6879  0.2823 -0.0556
    7SAPS  H10R  854   3.104   4.780   9.610  0.3040 -1.5453  0.1891
    7SAPS  H10S  855   3.020   4.792   9.447  2.3669  0.6801 -0.2184
    7SAPS  C211  856   3.067   4.594   9.516 -0.6195  0.1781 -0.4392
    7SAPS  H11R  857   3.112   4.546   9.605 -1.3291  1.4836  0.6571
    7SAPS  C212  858   3.072   4.529   9.399 -0.5053 -0.9014  0.3908
    7SAPS  H12R  859   3.114   4.428   9.404 -0.1376 -0.8546 -1.3994
    7SAPS  C213  860   3.035   4.585   9.265  0.4607 -0.7220  0.1812
    7SAPS  H13R  861   3.109   4.659   9.228  1.4467 -0.4521  2.6058
    7SAPS  H13S  862   2.938   4.640   9.266  1.2611  0.6993  0.9306
    7SAPS  C214  863   3.036   4.474   9.162 -0.0374  0.4215  0.2289
    7SAPS  H14R  864   3.141   4.456   9.133 -0.6840 -0.4335 -1.6850
    7SAPS  C215  865   2.936   4.400   9.109  0.5490 -0.5624 -0.1608
    7SAPS  H15R  866   2.956   4.325   9.032 -1.8304 -2.7660  1.3161
    7SAPS  C216  867   2.788   4.421   9.141  0.2068  0.0695 -0.4392
    7SAPS  H16R  868   2.774   4.510   9.205  1.3835 -0.5496  0.6985
    7SAPS  H16S  869   2.748   4.328   9.187  0.3480 -0.9806 -2.3782
    7SAPS  C217  870   2.709   4.439   9.003 -0.4338  1.0267  0.2947
    7SAPS  H17R  871   2.761   4.511   8.936 -1.1632  0.9594 -0.3558
    7SAPS  H17S  872   2.616   4.494   9.030 -2.3125 -1.9209  0.0584
    7SAPS  C218  873   2.683   4.299   8.943  0.1101  0.2274 -0.8270
    7SAPS  H18R  874   2.573   4.297   8.933  0.0724  0.2834 -0.4247
    7SAPS  H18S  875   2.714   4.222   9.016  1.8508  0.2411 -1.5258
    7SAPS  C219  876   2.761   4.270   8.811 -0.4014 -0.2741  0.3027
    7SAPS  H19R  877   2.728   4.173   8.768  1.3601 -1.3691  1.3303
    7SAPS  H19S  878   2.868   4.260   8.841  0.2565 -0.9797 -2.1906
    7SAPS  C220  879   2.773   4.387   8.711  0.3675  0.3882 -0.2157
    7SAPS  H20R  880   2.843   4.461   8.755 -1.9501  0.7765  3.0779
    7SAPS  H20S  881   2.669   4.423   8.695  0.0379 -0.2850  0.3675
    7SAPS  H20T  882   2.817   4.347   8.617  2.0238 -0.5367  0.9283
    7SAPS   C33  883   2.857   5.670  10.476  0.5124  0.2080  0.1086
    7SAPS   H3X  884   2.958   5.715  10.476  0.6810 -0.1662 -0.8171
    7SAPS   H3Y  885   2.799   5.712  10.562  0.6997 -1.7332  1.2166
    7SAPS   C34  886   2.782   5.732  10.347  0.1935 -0.4250  0.0277
    7SAPS   H4X  887   2.810   5.839  10.357  1.5136 -0.5649 -2.0026
    7SAPS   H4Y  888   2.673   5.734  10.368  0.2735 -0.4047  0.4425
    7SAPS   C35  889   2.809   5.666  10.214  0.2499  0.0583  0.4167
    7SAPS   H5X  890   2.780   5.560  10.228 -2.2525  0.6720  0.2063
    7SAPS   H5Y  891   2.914   5.675  10.178 -0.3092 -0.9657 -1.5392
    7SAPS   C36  892   2.722   5.729  10.105  0.1686  0.2731 -0.0769
    7SAPS   H6X  893   2.744   5.838  10.109 -0.6064  0.3982  0.8520
    7SAPS   H6Y  894   2.613   5.711  10.101  0.1212  0.6721 -0.8517
    7SAPS   C37  895   2.749   5.662   9.968  0.3073 -0.0466 -0.7230
    7SAPS   H7X  896   2.702   5.561   9.971 -1.1282  0.6095 -0.8615
    7SAPS   H7Y  897   2.859   5.646   9.958  0.1442 -1.7577 -0.0716
    7SAPS   C38  898   2.692   5.741   9.853 -0.4452  0.3317 -0.4113
    7SAPS   H8X  899   2.741   5.841   9.857 -0.1684  0.1963 -0.4126
    7SAPS   H8Y  900   2.581   5.741   9.854 -0.5438 -3.5244 -1.8541
    7SAPS   C39  901   2.730   5.699   9.709 -0.1726  0.6026  0.3644
    7SAPS   H9X  902   2.669   5.609   9.685 -0.8545  1.6144 -1.7760
    7SAPS   H9Y  903   2.840   5.687   9.708 -0.3292 -0.9595  0.1783
    7SAPS  C310  904   2.697   5.804   9.608 -0.3163 -0.0829  0.2589
    7SAPS  H10X  905   2.771   5.887   9.610  0.4935 -0.8165  0.9933
    7SAPS  H10Y  906   2.592   5.840   9.617 -0.2115  0.6688 -1.3765
    7SAPS  C311  907   2.709   5.747   9.461  0.4296 -0.3781  0.1176
    7SAPS  H11X  908   2.661   5.647   9.455  0.0663 -0.3173  1.8599
    7SAPS  H11Y  909   2.817   5.737   9.434  0.9783 -1.4997  2.5764
    7SAPS  C312  910   2.640   5.843   9.369 -0.3599 -0.4962  0.2580
    7SAPS  H12X  911   2.684   5.945   9.368  0.2200 -0.7335  0.6905
    7SAPS  H12Y  912   2.535   5.852   9.405 -0.7737 -0.3955 -0.9415
    7SAPS  C313  913   2.626   5.799   9.219 -0.1122 -0.4032 -0.0544
    7SAPS  H13X  914   2.569   5.704   9.221  0.6896 -0.9392 -1.7764
    7SAPS  H13Y  915   2.733   5.796   9.187 -0.0390  1.0555  0.0079
    7SAPS  C314  916   2.560   5.895   9.116  0.7130  0.0479  0.1055
    7SAPS  H14X  917   2.632   5.976   9.093 -0.1323  0.4852 -1.0153
    7SAPS  H14Y  918   2.463   5.945   9.137 -0.2660 -1.1680 -1.3913
    7SAPS  C315  919   2.534   5.809   8.989 -0.8119 -0.4864  0.3869
    7SAPS  H15X  920   2.449   5.742   9.014  0.2696 -1.8044  0.6129
    7SAPS  H15Y  921   2.620   5.740   8.972 -0.1493  0.6431 -0.8968
    7SAPS  C316  922   2.508   5.888   8.862 -0.2900  0.0959  0.2741
    7SAPS  H16X  923   2.595   5.951   8.837 -1.7345  2.1049  0.1720
    7SAPS  H16Y  924   2.422   5.958   8.873  0.7102  1.9865 -3.2498
    7SAPS  C317  925   2.473   5.800   8.742  0.1401  0.0839 -0.0028
    7SAPS  H17X  926   2.378   5.753   8.774  1.0797 -0.9919  1.2610
    7SAPS  H17Y  927   2.549   5.721   8.723 -0.5176  0.6074 -5.6008
    7SAPS  C318  928   2.468   5.886   8.614 -0.0534  0.1876 -0.2049
    7SAPS  H18X  929   2.564   5.932   8.584 -0.7559  0.9994 -1.2445
    7SAPS  H18Y  930   2.397   5.971   8.623  1.4781  1.5411 -0.7774
    7SAPS  H18Z  931   2.430   5.824   8.530 -1.9596 -0.4910  1.1221
    8SAPS     N  932   6.469   6.270  11.270 -0.2929  0.3176  0.2801
    8SAPS   HN1  933   6.478   6.298  11.171 -1.4916 -1.2927 -0.3098
    8SAPS   HN2  934   6.381   6.217  11.292  0.4347 -1.0678 -0.0885
    8SAPS   HN3  935   6.467   6.347  11.340 -2.2929  0.7949 -0.2473
    8SAPS   C12  936   6.570   6.164  11.312  0.1336 -0.3585 -0.1003
    8SAPS  H12A  937   6.671   6.193  11.285  0.1698  0.3558  0.7677
    8SAPS   C13  938   6.573   6.157  11.465 -0.1815  0.0376 -0.6297
    8SAPS  O13A  939   6.489   6.221  11.528 -0.0352 -0.2269  0.6998
    8SAPS  O13B  940   6.658   6.080  11.519  0.5731  0.6553 -0.0445
    8SAPS   C11  941   6.538   6.034  11.234  0.4247 -0.6645 -0.6687
    8SAPS  H11A  942   6.458   5.980  11.288  0.6822 -0.0876  0.3097
    8SAPS  H11B  943   6.625   5.965  11.234  1.8779  1.0961 -1.2026
    8SAPS     P  944   6.494   5.952  10.991  0.3610  0.3259 -0.4140
    8SAPS   O13  945   6.444   5.829  11.056 -0.3360  0.4696 -1.1337
    8SAPS   O14  946   6.427   5.999  10.867 -0.7068  0.1772  0.0824
    8SAPS   O12  947   6.495   6.067  11.099 -0.4037  0.1299  0.0167
    8SAPS   O11  948   6.641   5.930  10.954 -0.7218  0.4795 -0.0314
    8SAPS    C1  949   6.745   6.035  10.961 -0.1284  0.0525  1.5783
    8SAPS    HA  950   6.742   6.081  11.062 -2.3840  0.6926  1.2631
    8SAPS    HB  951   6.846   5.989  10.958 -0.4291 -0.5621  0.3493
    8SAPS    C2  952   6.734   6.122  10.829 -0.2429  0.3165 -0.1863
    8SAPS    HS  953   6.633   6.169  10.831  0.3433  1.7988 -3.3391
    8SAPS   O21  954   6.747   6.034  10.720 -0.8161  0.5486 -0.4814
    8SAPS   C21  955   6.699   6.079  10.608 -0.3535 -0.0700  0.3534
    8SAPS   O22  956   6.662   6.193  10.588 -0.3107  0.4935  0.4112
    8SAPS   C22  957   6.730   5.975  10.497 -0.0603  0.7928  0.2659
    8SAPS   H2R  958   6.741   5.872  10.537  0.5673  0.3296 -1.0620
    8SAPS   H2S  959   6.646   5.965  10.425 -0.6120  0.6253  0.9236
    8SAPS    C3  960   6.835   6.235  10.841  0.1871  0.3730 -0.0906
    8SAPS    HX  961   6.934   6.184  10.849  0.0402  0.3031  1.5038
    8SAPS    HY  962   6.839   6.286  10.940  0.3788 -0.3142  0.2598
    8SAPS   O31  963   6.832   6.330  10.739 -1.0669 -0.3265  0.3787
    8SAPS   C31  964   6.732   6.419  10.747  0.1586  0.1475 -0.0351
    8SAPS   O32  965   6.635   6.409  10.821  0.3016 -0.0417 -0.3885
    8SAPS   C32  966   6.760   6.534  10.658  0.2238 -0.5684  0.0592
    8SAPS   H2X  967   6.870   6.551  10.656  0.2423  0.0529  3.5048
    8SAPS   H2Y  968   6.719   6.623  10.709 -0.4508  1.6413 -4.1107
    8SAPS   C23  969   6.850   6.030  10.406 -0.8952 -0.1093 -0.3029
    8SAPS   H3R  970   6.941   6.066  10.459  0.2733  0.1441 -2.4548
    8SAPS   H3S  971   6.810   6.122  10.357  0.3212  1.2474  1.1820
    8SAPS   C24  972   6.899   5.925  10.300  0.8668  0.2711 -0.0110
    8SAPS   H4R  973   6.924   5.826  10.344 -0.6112  0.7744  2.0362
    8SAPS   H4S  974   6.982   5.977  10.248  1.3875  0.2223  0.7545
    8SAPS   C25  975   6.794   5.898  10.196 -0.4953  0.7055  0.2311
    8SAPS   H5R  976   6.696   5.861  10.228 -0.9253  0.8428 -0.9100
    8SAPS   C26  977   6.805   5.909  10.065  0.1020 -0.0384  0.3261
    8SAPS   H6R  978   6.732   5.872   9.992  1.7642 -0.6321 -1.0860
    8SAPS   C27  979   6.931   5.944   9.988 -0.0076  0.8149  0.0827
    8SAPS   H7R  980   6.975   5.871   9.917  0.5445  0.3216  0.9216
    8SAPS   H7S  981   7.015   5.972  10.054 -1.5032  0.7767  2.0283
    8SAPS   C28  982   6.904   6.073   9.924  0.1315  0.9310  0.1566
    8SAPS   H8R  983   6.933   6.153   9.994  0.1275  0.7783  0.3345
    8SAPS   C29  984   6.879   6.103   9.794 -0.7551 -0.4819  0.7004
    8SAPS   H9R  985   6.872   6.210   9.768 -2.1354 -0.2029  2.1436
    8SAPS  C210  986   6.872   6.002   9.680  0.5210 -0.2156  0.3174
    8SAPS  H10R  987   6.767   5.986   9.648  0.3977 -1.6327  1.4028
    8SAPS  H10S  988   6.907   5.900   9.705 -0.2467 -0.6913 -0.4993
    8SAPS  C211  989   6.954   6.048   9.565  0.6131 -0.1370  0.3429
    8SAPS  H11R  990   6.992   6.151   9.573  0.6785  0.2845 -3.9718
    8SAPS  C212  991   6.990   5.966   9.458 -0.1251 -0.5508 -0.0122
    8SAPS  H12R  992   7.057   5.997   9.377  0.2441 -3.8380 -1.0415
    8SAPS  C213  993   6.958   5.823   9.438  0.2136 -0.0966 -0.0592
    8SAPS  H13R  994   6.880   5.782   9.505 -0.1485 -1.8393 -1.5279
    8SAPS  H13S  995   7.040   5.748   9.450 -0.9080 -1.3953 -0.4031
    8SAPS  C214  996   6.904   5.808   9.300  0.1813 -0.0602 -0.2006
    8SAPS  H14R  997   6.799   5.776   9.303  0.5672 -1.4418 -1.3811
    8SAPS  C215  998   6.981   5.812   9.187  0.3484  0.4863  0.5755
    8SAPS  H15R  999   6.930   5.801   9.090 -2.0424  0.0835  1.8310
    8SAPS  C216 1000   7.126   5.845   9.174 -0.0563 -0.3110 -0.5555
    8SAPS  H16R 1001   7.176   5.752   9.138  2.8837  0.4339  1.3956
    8SAPS  H16S 1002   7.169   5.866   9.274 -0.7451 -0.7526 -0.1608
    8SAPS  C217 1003   7.158   5.952   9.070  0.2973  0.1179  0.2925
    8SAPS  H17R 1004   7.264   5.979   9.086 -0.2648  2.1962  0.7387
    8SAPS  H17S 1005   7.093   6.042   9.082  0.9764  0.5320  0.9232
    8SAPS  C218 1006   7.157   5.894   8.927  0.3013 -0.8454  0.3433
    8SAPS  H18R 1007   7.067   5.830   8.917  0.4487 -0.9351 -0.4989
    8SAPS  H18S 1008   7.253   5.840   8.919  1.4621  1.2341 -0.2577
    8SAPS  C219 1009   7.155   6.009   8.814 -0.3949  0.5677  0.5122
    8SAPS  H19R 1010   7.184   5.959   8.719 -1.3622  1.7783 -0.4232
    8SAPS  H19S 1011   7.226   6.088   8.846 -1.3402  0.8221  2.0660
    8SAPS  C220 1012   7.015   6.061   8.789 -0.5204 -0.0243  0.1535
    8SAPS  H20R 1013   7.006   6.150   8.724  0.2035 -0.6999 -0.8812
    8SAPS  H20S 1014   6.952   6.089   8.877  0.6112  0.4694  0.8107
    8SAPS  H20T 1015   6.959   5.988   8.726 -1.4022  1.8007 -1.2317
    8SAPS   C33 1016   6.693   6.537  10.519  0.2775 -0.1514  0.3580
    8SAPS   H3X 1017   6.584   6.519  10.529  0.1454  0.9843  0.9864
    8SAPS   H3Y 1018   6.739   6.461  10.453 -0.6954  1.2894 -2.0614
    8SAPS   C34 1019   6.709   6.671  10.446  0.0513  0.0152 -0.5470
    8SAPS   H4X 1020   6.809   6.652  10.400 -0.2178 -0.6914 -0.8445
    8SAPS   H4Y 1021   6.728   6.746  10.527  2.2452 -2.1306  0.9955
    8SAPS   C35 1022   6.586   6.713  10.358 -0.5695 -0.6698 -0.6766
    8SAPS   H5X 1023   6.494   6.722  10.419 -2.5631 -2.0103 -3.3997
    8SAPS   H5Y 1024   6.571   6.625  10.291  1.3803 -1.5989  0.0704
    8SAPS   C36 1025   6.604   6.841  10.280 -0.4154  0.1675  0.0386
    8SAPS   H6X 1026   6.683   6.834  10.202 -2.4436 -1.8627 -1.8834
    8SAPS   H6Y 1027   6.620   6.924  10.352 -1.3210  0.2890  0.0976
    8SAPS   C37 1028   6.478   6.893  10.202  0.9665 -1.0607  0.1963
    8SAPS   H7X 1029   6.499   7.000  10.178 -0.9648 -0.8320 -0.5575
    8SAPS   H7Y 1030   6.397   6.896  10.278  1.2951  2.4647  0.4740
    8SAPS   C38 1031   6.440   6.821  10.074  0.6069  0.1837 -0.5303
    8SAPS   H8X 1032   6.402   6.723  10.108  0.4545  0.8712  1.3622
    8SAPS   H8Y 1033   6.521   6.801  10.001 -0.1390 -0.1221 -1.2689
    8SAPS   C39 1034   6.329   6.897  10.001  0.3543  0.0094 -0.0359
    8SAPS   H9X 1035   6.350   7.006   9.999 -2.1882  0.5061 -2.0946
    8SAPS   H9Y 1036   6.233   6.873  10.052  0.3394  0.0160 -0.0625
    8SAPS  C310 1037   6.331   6.852   9.852 -0.4243  0.0380  0.0722
    8SAPS  H10X 1038   6.324   6.741   9.842  0.3044  0.0601 -0.7020
    8SAPS  H10Y 1039   6.431   6.883   9.814 -0.3131  0.2702  0.5528
    8SAPS  C311 1040   6.216   6.921   9.779 -0.5389 -0.2946  0.3523
    8SAPS  H11X 1041   6.242   7.024   9.810  1.7448 -1.6777  3.3154
    8SAPS  H11Y 1042   6.114   6.895   9.815 -0.1470  0.3609  1.9587
    8SAPS  C312 1043   6.220   6.904   9.628 -0.2308 -0.5521  0.0454
    8SAPS  H12X 1044   6.258   6.802   9.606 -2.8312 -1.0585 -2.5369
    8SAPS  H12Y 1045   6.300   6.961   9.577 -2.2066 -0.0098 -2.5595
    8SAPS  C313 1046   6.071   6.921   9.568  0.2377  0.3770 -0.1385
    8SAPS  H13X 1047   6.031   7.018   9.604 -1.5597 -0.6894  0.7830
    8SAPS  H13Y 1048   6.006   6.840   9.607  0.0001 -1.0121 -3.2295
    8SAPS  C314 1049   6.059   6.925   9.413 -0.9813 -0.4769  0.1527
    8SAPS  H14X 1050   5.960   6.972   9.391  0.7569  2.8827 -0.8652
    8SAPS  H14Y 1051   6.072   6.832   9.353 -0.7826  0.8263 -1.8837
    8SAPS  C315 1052   6.150   7.044   9.353  0.8212  0.1668  0.6430
    8SAPS  H15X 1053   6.251   6.999   9.340 -0.0871 -1.9832  0.9437
    8SAPS  H15Y 1054   6.174   7.124   9.427 -1.2523  0.9609  0.4809
    8SAPS  C316 1055   6.108   7.076   9.214 -0.7073 -0.4646 -0.0663
    8SAPS  H16X 1056   6.135   7.180   9.185  1.8987 -1.2541 -0.5640
    8SAPS  H16Y 1057   5.997   7.081   9.206 -0.9772 -2.3324  1.8625
    8SAPS  C317 1058   6.186   6.996   9.112  0.0374 -0.6508 -0.4278
    8SAPS  H17X 1059   6.190   6.892   9.152  2.2297 -0.1990  0.5999
    8SAPS  H17Y 1060   6.289   7.037   9.108  0.2899 -1.4234 -2.6128
    8SAPS  C318 1061   6.123   7.007   8.973 -0.3483 -0.2974 -0.6886
    8SAPS  H18X 1062   6.198   6.988   8.894 -0.2509 -0.4740 -0.5546
    8SAPS  H18Y 1063   6.095   7.112   8.952  1.8429  0.0840 -1.8081
    8SAPS  H18Z 1064   6.040   6.937   8.948 -0.7597  0.3449 -1.1426
    9SAPS     N 1065   2.956   2.564   6.394  0.9734 -0.0374  0.7641
    9SAPS   HN1 1066   2.909   2.640   6.341  0.9991  1.4010  2.7365
    9SAPS   HN2 1067   2.889   2.544   6.472  0.9866  1.0397  1.0573
    9SAPS   HN3 1068   3.048   2.604   6.420  1.5264  0.2580 -1.5983
    9SAPS   C12 1069   2.970   2.440   6.313  0.6977 -0.3288 -0.4876
    9SAPS  H12A 1070   2.947   2.357   6.378  1.1118 -0.4832 -0.5378
    9SAPS   C13 1071   2.880   2.437   6.191  0.6345  0.2822 -0.5457
    9SAPS  O13A 1072   2.813   2.541   6.157  0.2648 -0.7940  0.6289
    9SAPS  O13B 1073   2.864   2.329   6.128  0.4945 -0.2990  0.4576
    9SAPS   C11 1074   3.126   2.432   6.265  0.1420 -0.3788  0.1529
    9SAPS  H11A 1075   3.146   2.532   6.221  2.2329 -0.9855 -0.3527
    9SAPS  H11B 1076   3.141   2.359   6.183 -1.5558  0.4869 -0.9424
    9SAPS     P 1077   3.340   2.294   6.360  0.2212  0.4362  0.3389
    9SAPS   O13 1078   3.286   2.166   6.300  0.1325 -0.0863 -0.3461
    9SAPS   O14 1079   3.442   2.360   6.278  0.3702 -0.1790 -0.0142
    9SAPS   O12 1080   3.221   2.402   6.370 -0.4093  0.3172  0.0726
    9SAPS   O11 1081   3.389   2.273   6.509  0.6476 -0.1634 -0.2017
    9SAPS    C1 1082   3.427   2.395   6.580  0.1060  0.7589 -0.1392
    9SAPS    HA 1083   3.536   2.413   6.595 -0.2578  2.3751  0.6894
    9SAPS    HB 1084   3.387   2.486   6.531 -1.1640  1.3944  1.9861
    9SAPS    C2 1085   3.361   2.408   6.722 -0.8194 -0.2961 -0.2766
    9SAPS    HS 1086   3.388   2.510   6.756  1.2221 -0.6082 -0.8703
    9SAPS   O21 1087   3.416   2.308   6.806 -0.7030  0.3741 -0.2031
    9SAPS   C21 1088   3.519   2.343   6.881 -0.3824  0.3059  0.1716
    9SAPS   O22 1089   3.577   2.449   6.879  0.0460 -0.8670 -0.2250
    9SAPS   C22 1090   3.562   2.215   6.962 -0.1384  0.6278  0.5318
    9SAPS   H2R 1091   3.473   2.152   6.984  0.2680  0.3674  1.4718
    9SAPS   H2S 1092   3.625   2.165   6.886 -0.5347  0.7604  0.1088
    9SAPS    C3 1093   3.200   2.391   6.717  0.5120 -0.1405  0.0566
    9SAPS    HX 1094   3.186   2.309   6.643 -2.7068 -0.0592  0.4955
    9SAPS    HY 1095   3.160   2.488   6.680  1.6440 -0.4401 -2.0041
    9SAPS   O31 1096   3.147   2.356   6.851 -0.1846 -0.3370  0.3245
    9SAPS   C31 1097   3.177   2.444   6.943 -0.0907 -0.7886 -0.1595
    9SAPS   O32 1098   3.225   2.557   6.934  0.3468 -0.0745 -0.1280
    9SAPS   C32 1099   3.133   2.390   7.082  0.7233  0.1299  0.1074
    9SAPS   H2X 1100   3.195   2.301   7.106 -1.1875 -1.0802  0.7118
    9SAPS   H2Y 1101   3.034   2.339   7.077  0.4305  0.4207  2.2522
    9SAPS   C23 1102   3.650   2.241   7.081 -0.3118 -0.5501  0.7904
    9SAPS   H3R 1103   3.585   2.313   7.135 -0.2437 -0.0176  0.1691
    9SAPS   H3S 1104   3.746   2.294   7.068 -0.9166 -0.1363 -2.4790
    9SAPS   C24 1105   3.668   2.112   7.162  0.8543  0.2759  0.2583
    9SAPS   H4R 1106   3.731   2.136   7.250  2.6956 -0.3544 -0.8577
    9SAPS   H4S 1107   3.745   2.058   7.103  0.6982 -1.9143  2.0010
    9SAPS   C25 1108   3.550   2.022   7.184  0.0646 -0.0470 -0.3534
    9SAPS   H5R 1109   3.541   1.953   7.098  0.0267  0.7007 -0.9557
    9SAPS   C26 1110   3.481   1.993   7.297 -0.3509 -0.1436 -0.4506
    9SAPS   H6R 1111   3.394   1.928   7.287 -0.6410 -0.2665  2.4783
    9SAPS   C27 1112   3.499   2.060   7.432  0.0505  0.2145 -0.0954
    9SAPS   H7R 1113   3.609   2.065   7.446  0.3257 -0.6300 -1.8163
    9SAPS   H7S 1114   3.470   1.982   7.505  0.6685 -0.8487 -0.9603
    9SAPS   C28 1115   3.437   2.189   7.446 -0.1869 -0.1048 -0.3063
    9SAPS   H8R 1116   3.395   2.233   7.354 -0.4295 -0.7496 -0.5066
    9SAPS   C29 1117   3.417   2.251   7.562  0.3994  0.6614  0.3857
    9SAPS   H9R 1118   3.365   2.348   7.557 -0.5390  0.2078  1.2748
    9SAPS  C210 1119   3.457   2.199   7.695  0.4774  0.4996  0.4988
    9SAPS  H10R 1120   3.520   2.276   7.745  1.9877  1.8710 -3.3392
    9SAPS  H10S 1121   3.528   2.114   7.687 -0.8220 -0.6718  1.1482
    9SAPS  C211 1122   3.350   2.144   7.783  0.4844  0.1972  0.5646
    9SAPS  H11R 1123   3.256   2.202   7.787  0.1928 -0.3577  2.1430
    9SAPS  C212 1124   3.355   2.037   7.863 -0.2423  0.7909 -0.5016
    9SAPS  H12R 1125   3.275   2.014   7.935  0.3168  0.6287  0.0701
    9SAPS  C213 1126   3.472   1.943   7.890  0.0920  0.0213  0.5280
    9SAPS  H13R 1127   3.511   1.915   7.790  0.1736 -0.4228  0.6804
    9SAPS  H13S 1128   3.432   1.843   7.920  0.5588 -0.0194  1.0323
    9SAPS  C214 1129   3.586   1.980   7.986 -0.5305  0.2423  0.7578
    9SAPS  H14R 1130   3.675   2.014   7.931 -1.6035 -1.4943 -2.1324
    9SAPS  C215 1131   3.575   2.002   8.117  0.0646 -0.1097 -0.5221
    9SAPS  H15R 1132   3.658   2.044   8.176  0.4892 -2.7414  0.8097
    9SAPS  C216 1133   3.451   1.986   8.204  0.2161 -0.1880  0.4945
    9SAPS  H16R 1134   3.388   1.907   8.157 -0.6993  0.1288  1.1691
    9SAPS  H16S 1135   3.390   2.079   8.194  2.3776  1.0935 -1.2397
    9SAPS  C217 1136   3.470   1.950   8.349  0.3254 -0.1457 -0.3251
    9SAPS  H17R 1137   3.533   2.028   8.397  1.8335 -0.6590 -1.4214
    9SAPS  H17S 1138   3.536   1.861   8.361 -1.1645 -1.3235 -0.7106
    9SAPS  C218 1139   3.334   1.932   8.420  0.3068 -0.3480  0.6269
    9SAPS  H18R 1140   3.352   1.927   8.529  2.2865  0.4805  0.3623
    9SAPS  H18S 1141   3.288   1.833   8.399 -1.0298  0.2146  0.8737
    9SAPS  C219 1142   3.234   2.044   8.386 -1.0258 -0.2438 -0.0802
    9SAPS  H19R 1143   3.189   2.023   8.286 -2.0669 -0.1190  0.3579
    9SAPS  H19S 1144   3.284   2.140   8.363 -2.1118  0.5865  0.9756
    9SAPS  C220 1145   3.132   2.061   8.500 -0.0104 -0.1856 -0.3001
    9SAPS  H20R 1146   3.046   2.124   8.469 -0.4226  0.2470  1.6362
    9SAPS  H20S 1147   3.170   2.116   8.589 -0.2325 -0.7447  0.1461
    9SAPS  H20T 1148   3.098   1.958   8.527 -0.9275  0.9263  3.1209
    9SAPS   C33 1149   3.137   2.495   7.195 -0.2770  0.1299  0.3238
    9SAPS   H3X 1150   3.137   2.597   7.152 -1.9327  0.4315  0.9874
    9SAPS   H3Y 1151   3.224   2.480   7.263  0.5524 -2.1425 -1.1952
    9SAPS   C34 1152   3.011   2.481   7.279  0.2978  0.9399 -0.0147
    9SAPS   H4X 1153   2.977   2.378   7.300 -0.3288  0.9147 -1.1427
    9SAPS   H4Y 1154   2.929   2.528   7.220 -2.8246 -3.0507  0.9175
    9SAPS   C35 1155   3.016   2.549   7.412 -0.0080  0.2937  0.7472
    9SAPS   H5X 1156   2.918   2.596   7.435 -0.8177 -1.4324  0.9246
    9SAPS   H5Y 1157   3.095   2.625   7.406  1.1667 -1.0832 -2.1590
    9SAPS   C36 1158   3.042   2.444   7.524  0.3995 -0.9218 -0.1510
    9SAPS   H6X 1159   3.124   2.373   7.503  2.0477  1.0670 -0.6663
    9SAPS   H6Y 1160   2.956   2.374   7.523 -0.8070  0.5204  0.0258
    9SAPS   C37 1161   3.038   2.515   7.661 -0.6437 -0.5058  0.3736
    9SAPS   H7X 1162   2.963   2.598   7.658  0.1370  0.2751  1.7563
    9SAPS   H7Y 1163   3.140   2.550   7.689 -0.6940 -0.3675  0.3851
    9SAPS   C38 1164   2.982   2.425   7.773 -1.3649  0.0455  0.0224
    9SAPS   H8X 1165   3.050   2.337   7.762  2.4495  2.6634  1.6143
    9SAPS   H8Y 1166   2.882   2.390   7.738 -1.8126  1.2391  0.0980
    9SAPS   C39 1167   2.980   2.484   7.908  0.2261 -0.0470 -0.2495
    9SAPS   H9X 1168   2.905   2.566   7.906  1.5739  1.2972  1.7451
    9SAPS   H9Y 1169   3.077   2.535   7.928  0.4280 -0.5247  0.0037
    9SAPS  C310 1170   2.934   2.378   8.016 -0.2318 -0.8217  0.4633
    9SAPS  H10X 1171   2.837   2.329   7.993  0.8433 -2.7664 -0.0147
    9SAPS  H10Y 1172   2.911   2.442   8.104  2.3294  2.8725 -1.4042
    9SAPS  C311 1173   3.049   2.277   8.048 -0.0687  0.2542 -0.3910
    9SAPS  H11X 1174   3.083   2.219   7.959  0.7365 -1.2155  0.8633
    9SAPS  H11Y 1175   2.994   2.193   8.097 -0.3998  0.4647 -0.4004
    9SAPS  C312 1176   3.161   2.324   8.139  0.1534 -0.5830 -0.4525
    9SAPS  H12X 1177   3.221   2.401   8.085 -0.5664 -0.0778 -0.5514
    9SAPS  H12Y 1178   3.233   2.243   8.164  0.2367 -0.1662  0.7330
    9SAPS  C313 1179   3.119   2.402   8.270 -0.2524  0.5450  0.2197
    9SAPS  H13X 1180   3.044   2.348   8.330 -1.7030  0.1610 -1.8946
    9SAPS  H13Y 1181   3.065   2.493   8.237  1.1506  0.3601 -2.7933
    9SAPS  C314 1182   3.237   2.447   8.361 -0.0419 -0.0837 -0.6075
    9SAPS  H14X 1183   3.295   2.528   8.312  1.4032  0.8322  2.4643
    9SAPS  H14Y 1184   3.311   2.364   8.362 -0.5215 -0.5636 -2.7150
    9SAPS  C315 1185   3.198   2.479   8.506 -0.0488  0.0209 -0.3292
    9SAPS  H15X 1186   3.297   2.490   8.556 -1.4919  1.7166  2.2412
    9SAPS  H15Y 1187   3.139   2.395   8.548  0.7576 -0.1042  0.5862
    9SAPS  C316 1188   3.143   2.621   8.511 -0.5055 -0.8196  0.1482
    9SAPS  H16X 1189   3.038   2.627   8.475  0.1237  1.7586 -1.3306
    9SAPS  H16Y 1190   3.204   2.686   8.445 -2.5096  0.1517 -0.7957
    9SAPS  C317 1191   3.132   2.665   8.657 -0.5026 -0.3004 -0.0512
    9SAPS  H17X 1192   3.237   2.665   8.695  0.4057  1.8417 -2.3919
    9SAPS  H17Y 1193   3.074   2.599   8.724 -0.0364 -1.1348 -0.4684
    9SAPS  C318 1194   3.081   2.810   8.682  0.3185  0.0886  0.0914
    9SAPS  H18X 1195   3.074   2.845   8.787  2.4904  0.8873 -0.0055
    9SAPS  H18Y 1196   2.978   2.797   8.641 -0.0746 -0.1350  1.1508
    9SAPS  H18Z 1197   3.127   2.894   8.624  2.7692 -0.4091  1.2820
   10SAPS     N 1198   3.247   0.870   6.255  0.2192 -0.0138 -0.8054
   10SAPS   HN1 1199   3.198   0.942   6.198  0.1994  0.1656 -0.5618
   10SAPS   HN2 1200   3.187   0.848   6.337  1.0800  1.9037  0.3747
   10SAPS   HN3 1201   3.338   0.908   6.288  0.3538 -2.5601  1.9519
   10SAPS   C12 1202   3.269   0.742   6.186 -0.2724 -0.2094 -0.0183
   10SAPS  H12A 1203   3.215   0.676   6.252 -1.9658  1.3653  0.1870
   10SAPS   C13 1204   3.209   0.717   6.043  0.3664  0.2785 -0.6699
   10SAPS  O13A 1205   3.133   0.810   5.993  0.3016  0.1909  0.1256
   10SAPS  O13B 1206   3.201   0.601   5.994 -0.4307 -0.4633  0.4351
   10SAPS   C11 1207   3.421   0.719   6.178  0.6493  0.6659  0.4670
   10SAPS  H11A 1208   3.476   0.797   6.122 -0.9545  0.5360 -1.3350
   10SAPS  H11B 1209   3.431   0.622   6.124 -2.3692  0.5601  0.0408
   10SAPS     P 1210   3.508   0.574   6.373 -0.0293  0.1489 -0.1761
   10SAPS   O13 1211   3.416   0.475   6.306  0.1279 -0.2440 -0.2852
   10SAPS   O14 1212   3.650   0.542   6.355 -0.8744 -0.2168 -0.3099
   10SAPS   O12 1213   3.470   0.711   6.311 -0.1946  0.2306  0.4143
   10SAPS   O11 1214   3.476   0.595   6.520 -0.1570  0.4757 -0.0980
   10SAPS    C1 1215   3.362   0.676   6.567 -0.6361 -0.3366 -0.3445
   10SAPS    HA 1216   3.317   0.735   6.485  0.8841  0.6289 -0.4914
   10SAPS    HB 1217   3.281   0.606   6.598  0.4996 -0.6014  2.1706
   10SAPS    C2 1218   3.401   0.764   6.689  0.0525  0.0036  0.6674
   10SAPS    HS 1219   3.485   0.830   6.660 -0.9666  0.0465 -2.3765
   10SAPS   O21 1220   3.428   0.686   6.804 -0.0354  0.0171  0.8208
   10SAPS   C21 1221   3.552   0.689   6.847  0.2571  0.7067  0.0955
   10SAPS   O22 1222   3.645   0.749   6.808 -0.0474  0.1053  0.3232
   10SAPS   C22 1223   3.552   0.595   6.974 -0.0409  0.6176 -0.5120
   10SAPS   H2R 1224   3.493   0.646   7.053 -0.8406  0.7746 -1.2114
   10SAPS   H2S 1225   3.499   0.504   6.939 -1.7469  0.7420  1.6132
   10SAPS    C3 1226   3.290   0.866   6.721 -0.0529 -0.7172 -0.4610
   10SAPS    HX 1227   3.195   0.812   6.741 -0.9998  1.0665  0.0651
   10SAPS    HY 1228   3.268   0.937   6.638 -0.9704 -2.0405 -1.3555
   10SAPS   O31 1229   3.318   0.935   6.844 -0.5659  0.0047 -0.7148
   10SAPS   C31 1230   3.365   1.056   6.831 -0.6926 -0.1541 -0.4935
   10SAPS   O32 1231   3.389   1.115   6.726  0.3465  0.1732  0.4203
   10SAPS   C32 1232   3.368   1.122   6.966  0.5288 -0.2846 -0.1030
   10SAPS   H2X 1233   3.452   1.072   7.019  0.4489 -0.6997 -0.3688
   10SAPS   H2Y 1234   3.267   1.095   7.004  1.7336 -0.5203  3.0663
   10SAPS   C23 1235   3.698   0.563   7.027  0.4109  0.4503  0.0508
   10SAPS   H3R 1236   3.738   0.660   7.064  1.0238  0.2250 -0.0144
   10SAPS   H3S 1237   3.766   0.537   6.943  1.0601 -1.8732  1.2659
   10SAPS   C24 1238   3.696   0.451   7.128 -0.7645  0.5178 -0.8609
   10SAPS   H4R 1239   3.664   0.358   7.076 -2.2390  1.6121 -1.9343
   10SAPS   H4S 1240   3.622   0.470   7.209  0.8686 -0.5974  0.9469
   10SAPS   C25 1241   3.833   0.419   7.192 -0.4927 -0.4448 -0.2204
   10SAPS   H5R 1242   3.924   0.461   7.146 -2.0311  2.8528 -0.4434
   10SAPS   C26 1243   3.851   0.351   7.304  0.2452 -0.5978  0.4184
   10SAPS   H6R 1244   3.950   0.328   7.346 -0.7140  0.5135  3.4487
   10SAPS   C27 1245   3.732   0.284   7.379 -0.1424 -0.2132 -0.1410
   10SAPS   H7R 1246   3.661   0.251   7.300 -0.9565  0.6934  0.2040
   10SAPS   H7S 1247   3.683   0.364   7.439  0.9183  0.9714 -0.8389
   10SAPS   C28 1248   3.776   0.169   7.473 -0.4055  0.0077  0.2305
   10SAPS   H8R 1249   3.778   0.066   7.434 -0.4584 -0.0272  0.3205
   10SAPS   C29 1250   3.801   0.177   7.608  0.7138  0.2099 -0.4984
   10SAPS   H9R 1251   3.828   0.085   7.662  1.2058  1.6609  1.7689
   10SAPS  C210 1252   3.798   0.304   7.694 -0.3309  0.5581  0.3135
   10SAPS  H10R 1253   3.730   0.282   7.779 -0.0192 -0.4005  0.3239
   10SAPS  H10S 1254   3.768   0.392   7.633 -2.0637  1.2889  2.1911
   10SAPS  C211 1255   3.938   0.341   7.741 -0.3471 -0.2757  0.0825
   10SAPS  H11R 1256   4.002   0.348   7.651  0.5382  0.5697  0.7739
   10SAPS  C212 1257   3.984   0.368   7.861  0.1548 -0.5772 -0.0758
   10SAPS  H12R 1258   4.092   0.389   7.867  0.3434 -1.7867  0.8348
   10SAPS  C213 1259   3.907   0.375   7.992 -0.1117 -0.7640  0.0558
   10SAPS  H13R 1260   3.803   0.411   7.978 -0.1736  0.1698  2.6597
   10SAPS  H13S 1261   3.968   0.433   8.065 -1.9805 -0.4757  1.4394
   10SAPS  C214 1262   3.879   0.240   8.050  0.8374  0.3081  0.8203
   10SAPS  H14R 1263   3.786   0.198   8.008  0.7342  0.9503  0.4049
   10SAPS  C215 1264   3.950   0.194   8.155 -0.2201  0.1635 -0.1096
   10SAPS  H15R 1265   3.925   0.096   8.200  1.6105 -0.3673 -0.2262
   10SAPS  C216 1266   4.070   0.258   8.228 -0.3538  0.2149  0.0036
   10SAPS  H16R 1267   4.112   0.343   8.171 -2.1328  0.0627 -1.6234
   10SAPS  H16S 1268   4.156   0.193   8.254  1.0311  2.6460  1.6187
   10SAPS  C217 1269   4.027   0.309   8.367 -0.2619 -0.4125 -0.6094
   10SAPS  H17R 1270   4.004   0.222   8.432 -1.0340 -0.0967 -0.4627
   10SAPS  H17S 1271   3.933   0.367   8.358  0.0862  0.5059  1.5703
   10SAPS  C218 1272   4.145   0.390   8.426 -0.9407 -0.7396  0.7248
   10SAPS  H18R 1273   4.111   0.443   8.517  0.2882 -1.9242  1.9038
   10SAPS  H18S 1274   4.169   0.469   8.352 -1.3769 -1.1876  0.1015
   10SAPS  C219 1275   4.264   0.300   8.468  0.7127  0.2064  0.2071
   10SAPS  H19R 1276   4.342   0.295   8.390  0.4251 -1.2864  0.0009
   10SAPS  H19S 1277   4.234   0.195   8.488 -1.8162  0.3600 -2.4189
   10SAPS  C220 1278   4.333   0.344   8.597  0.4771  0.1549 -0.2131
   10SAPS  H20R 1279   4.273   0.323   8.687 -1.1539 -1.3711 -1.6170
   10SAPS  H20S 1280   4.373   0.448   8.596  1.4965 -0.2329 -1.5999
   10SAPS  H20T 1281   4.426   0.288   8.623  0.3557 -0.6597 -1.4772
   10SAPS   C33 1282   3.381   1.273   6.958  0.7453  0.3408  0.2184
   10SAPS   H3X 1283   3.293   1.323   6.912 -0.4769  0.6014  2.7504
   10SAPS   H3Y 1284   3.473   1.311   6.907  1.2782  0.0497  0.9547
   10SAPS   C34 1285   3.397   1.345   7.095 -0.3219 -0.2094  0.1699
   10SAPS   H4X 1286   3.467   1.295   7.164 -0.1506  1.9652  1.6066
   10SAPS   H4Y 1287   3.299   1.349   7.147  0.3464  0.7289  1.3721
   10SAPS   C35 1288   3.450   1.488   7.083 -0.0502  0.7491 -0.1237
   10SAPS   H5X 1289   3.380   1.553   7.025  1.6123 -0.6020 -3.8094
   10SAPS   H5Y 1290   3.550   1.483   7.035  0.4261 -0.0455  0.9448
   10SAPS   C36 1291   3.472   1.561   7.217 -0.2523  0.4194 -0.2475
   10SAPS   H6X 1292   3.509   1.665   7.202  0.5964  0.4398  1.8494
   10SAPS   H6Y 1293   3.557   1.507   7.264  0.5443  1.6023 -0.2910
   10SAPS   C37 1294   3.357   1.568   7.307 -0.1930  0.4094 -0.1941
   10SAPS   H7X 1295   3.325   1.468   7.340  1.5659  0.5117  1.9890
   10SAPS   H7Y 1296   3.275   1.618   7.251  2.0556  5.5426  0.7396
   10SAPS   C38 1297   3.377   1.645   7.437 -0.9798 -0.2080 -0.0330
   10SAPS   H8X 1298   3.394   1.751   7.411 -0.4804 -0.3595 -0.3386
   10SAPS   H8Y 1299   3.468   1.605   7.486  0.7058  1.9626 -1.3184
   10SAPS   C39 1300   3.263   1.625   7.531  0.6506  0.1966  0.0005
   10SAPS   H9X 1301   3.245   1.515   7.528 -2.3450  0.6582 -0.9016
   10SAPS   H9Y 1302   3.173   1.678   7.495  0.5056  1.5865  2.2971
   10SAPS  C310 1303   3.293   1.668   7.676 -0.1448 -0.1994 -1.6519
   10SAPS  H10X 1304   3.306   1.778   7.663  0.0766  0.1316  1.0514
   10SAPS  H10Y 1305   3.393   1.628   7.705  0.6891  1.6613 -1.8840
   10SAPS  C311 1306   3.185   1.618   7.776  0.5464 -0.0424 -0.6052
   10SAPS  H11X 1307   3.182   1.508   7.760 -0.5819 -0.3823  1.8497
   10SAPS  H11Y 1308   3.087   1.666   7.752  1.3113  0.8365 -2.0682
   10SAPS  C312 1309   3.224   1.651   7.917  0.0728 -1.1238  0.0340
   10SAPS  H12X 1310   3.212   1.761   7.920 -1.0284 -1.2125 -0.5730
   10SAPS  H12Y 1311   3.328   1.622   7.941  1.1180  0.0608 -2.8669
   10SAPS  C313 1312   3.132   1.593   8.021  0.3577 -0.6894  0.1184
   10SAPS  H13X 1313   3.130   1.481   8.023  0.8472 -0.7009  0.0458
   10SAPS  H13Y 1314   3.029   1.629   8.001  0.1879 -0.9995  0.4296
   10SAPS  C314 1315   3.168   1.645   8.166 -0.0945 -0.3289  0.0693
   10SAPS  H14X 1316   3.171   1.755   8.148 -1.9084 -0.3858 -0.6380
   10SAPS  H14Y 1317   3.272   1.608   8.183 -0.0978  0.0196  0.8812
   10SAPS  C315 1318   3.062   1.592   8.266  0.3169  0.5793 -0.3079
   10SAPS  H15X 1319   3.056   1.481   8.259 -0.1433  0.5773  0.1022
   10SAPS  H15Y 1320   2.971   1.640   8.224 -1.0468 -0.0501  1.8547
   10SAPS  C316 1321   3.078   1.635   8.413 -0.4668  0.5421 -0.0742
   10SAPS  H16X 1322   2.986   1.598   8.463  0.5587 -0.1003  1.3760
   10SAPS  H16Y 1323   3.086   1.745   8.426  1.3644  0.3347  0.6164
   10SAPS  C317 1324   3.189   1.560   8.486  0.4205 -0.1388 -0.3457
   10SAPS  H17X 1325   3.284   1.562   8.427  0.4120  1.8389 -0.3256
   10SAPS  H17Y 1326   3.163   1.452   8.492  1.3574 -0.4797 -1.9115
   10SAPS  C318 1327   3.221   1.602   8.625 -0.4008  0.4904 -0.4384
   10SAPS  H18X 1328   3.313   1.552   8.664 -2.3110 -1.2968  1.8895
   10SAPS  H18Y 1329   3.146   1.582   8.704 -0.9270 -2.6684 -1.6587
   10SAPS  H18Z 1330   3.250   1.709   8.620  0.8446  0.0780 -2.5053
   11SAPS     N 1331   5.168   3.969   5.799  0.1118  0.2389  0.4701
   11SAPS   HN1 1332   5.068   3.943   5.812 -0.0670  0.5703 -0.2241
   11SAPS   HN2 1333   5.211   3.899   5.736  0.7007  1.5916 -0.6607
   11SAPS   HN3 1334   5.216   3.960   5.891 -1.4933  2.3670  1.5541
   11SAPS   C12 1335   5.187   4.108   5.746 -0.2325 -0.0476  0.9414
   11SAPS  H12A 1336   5.276   4.106   5.685 -1.4937  2.0715 -1.0595
   11SAPS   C13 1337   5.071   4.155   5.661  0.6511  0.3501  0.6647
   11SAPS  O13A 1338   4.969   4.083   5.650 -0.2084  0.5333 -0.2411
   11SAPS  O13B 1339   5.078   4.264   5.608  0.1578  0.0228  0.8422
   11SAPS   C11 1340   5.202   4.200   5.869 -0.5114 -0.1068 -0.6675
   11SAPS  H11A 1341   5.108   4.209   5.928  1.0824  0.2374  1.8749
   11SAPS  H11B 1342   5.226   4.300   5.827  0.1574  0.4672  1.0237
   11SAPS     P 1343   5.405   4.262   6.027 -0.4645 -0.0154 -0.3144
   11SAPS   O13 1344   5.516   4.188   6.087 -0.3046 -0.5661  0.5903
   11SAPS   O14 1345   5.436   4.373   5.935  0.4443 -0.7081  0.0005
   11SAPS   O12 1346   5.312   4.156   5.952  0.2293  0.1154 -0.0955
   11SAPS   O11 1347   5.319   4.325   6.144  0.8213 -0.1276  0.2496
   11SAPS    C1 1348   5.215   4.254   6.211  0.1139  0.1964  0.1232
   11SAPS    HA 1349   5.147   4.205   6.139  1.7822  0.1946 -1.4833
   11SAPS    HB 1350   5.250   4.172   6.277  2.3233 -1.7133 -3.2939
   11SAPS    C2 1351   5.124   4.344   6.300  0.0711 -0.1857 -0.3220
   11SAPS    HS 1352   5.085   4.290   6.388  1.8310  2.0901  1.9456
   11SAPS   O21 1353   5.018   4.403   6.225 -0.2130 -0.3415 -0.6419
   11SAPS   C21 1354   4.909   4.323   6.227  0.5471 -0.3970  0.7289
   11SAPS   O22 1355   4.901   4.209   6.269 -0.0892  0.6683  0.9135
   11SAPS   C22 1356   4.794   4.391   6.154  0.1487 -0.1617  0.0180
   11SAPS   H2R 1357   4.808   4.501   6.158 -1.7794  0.1360 -0.4355
   11SAPS   H2S 1358   4.789   4.352   6.050  0.7256 -2.2931  0.7597
   11SAPS    C3 1359   5.210   4.456   6.374 -0.5547 -0.8222  0.0029
   11SAPS    HX 1360   5.261   4.513   6.294 -1.0746  1.3122  1.1499
   11SAPS    HY 1361   5.298   4.403   6.416  0.1307 -0.1012 -0.4983
   11SAPS   O31 1362   5.146   4.534   6.466  0.5832  0.0785 -0.4527
   11SAPS   C31 1363   5.077   4.640   6.427 -0.1412 -0.8572 -0.5076
   11SAPS   O32 1364   5.072   4.682   6.312  0.1055  0.3367  0.3131
   11SAPS   C32 1365   4.990   4.686   6.546  0.5787  0.2636 -0.0684
   11SAPS   H2X 1366   5.049   4.680   6.639 -1.9478  0.3301  1.5837
   11SAPS   H2Y 1367   4.904   4.616   6.554 -0.2758  1.1580 -1.2397
   11SAPS   C23 1368   4.653   4.379   6.217 -0.2748  0.4673  0.1989
   11SAPS   H3R 1369   4.625   4.272   6.220 -1.0453  0.6778  0.3955
   11SAPS   H3S 1370   4.580   4.437   6.156 -0.8820 -0.9547 -0.4355
   11SAPS   C24 1371   4.652   4.433   6.358 -0.3889  0.4073 -0.2610
   11SAPS   H4R 1372   4.718   4.369   6.420  3.2922  0.7955 -3.5897
   11SAPS   H4S 1373   4.547   4.419   6.393 -0.6185  2.4598 -0.0432
   11SAPS   C25 1374   4.685   4.579   6.376  1.0982 -0.0768 -0.1972
   11SAPS   H5R 1375   4.766   4.628   6.319  1.9674  0.6273  1.5992
   11SAPS   C26 1376   4.627   4.660   6.467  0.2644 -0.1340 -0.3115
   11SAPS   H6R 1377   4.662   4.765   6.462 -1.0803  0.3264 -0.1362
   11SAPS   C27 1378   4.518   4.624   6.563 -0.4541  0.7068 -0.1387
   11SAPS   H7R 1379   4.437   4.579   6.500 -0.1375 -1.5798  1.0327
   11SAPS   H7S 1380   4.466   4.714   6.602  1.4473  0.9722  1.8539
   11SAPS   C28 1381   4.568   4.522   6.662  0.1533  0.3270  0.0134
   11SAPS   H8R 1382   4.652   4.460   6.629  0.2028 -0.4857  1.5953
   11SAPS   C29 1383   4.533   4.510   6.796 -0.0808  0.5943 -0.0511
   11SAPS   H9R 1384   4.567   4.415   6.840  0.0022  0.7391  0.2024
   11SAPS  C210 1385   4.449   4.600   6.882 -0.2576 -0.4059 -0.7708
   11SAPS  H10R 1386   4.424   4.554   6.980 -1.2888  3.3625  0.8091
   11SAPS  H10S 1387   4.344   4.614   6.848 -0.1886 -0.4204 -0.9909
   11SAPS  C211 1388   4.525   4.734   6.906 -0.3519  1.7823  0.0476
   11SAPS  H11R 1389   4.593   4.756   6.823  1.4348 -2.0419  0.4000
   11SAPS  C212 1390   4.519   4.811   7.015 -0.2705 -0.4675  0.4059
   11SAPS  H12R 1391   4.581   4.902   7.010 -1.3622  0.4003  2.2690
   11SAPS  C213 1392   4.428   4.797   7.132  0.2614 -0.3482 -0.7859
   11SAPS  H13R 1393   4.330   4.751   7.104 -0.6127 -0.2430  1.9045
   11SAPS  H13S 1394   4.412   4.892   7.187 -1.0360 -0.0932 -1.5706
   11SAPS  C214 1395   4.494   4.696   7.219 -0.0905 -0.4388  0.2210
   11SAPS  H14R 1396   4.522   4.601   7.171 -0.6052 -0.5265  0.0867
   11SAPS  C215 1397   4.525   4.706   7.347 -0.7891 -0.1327  0.2159
   11SAPS  H15R 1398   4.587   4.625   7.386 -0.5361 -2.0304 -3.8687
   11SAPS  C216 1399   4.508   4.827   7.437  0.5086  0.4194 -0.1364
   11SAPS  H16R 1400   4.495   4.800   7.544 -0.1918  2.1863  0.2427
   11SAPS  H16S 1401   4.412   4.879   7.418 -0.5865 -1.1185  1.0434
   11SAPS  C217 1402   4.606   4.944   7.429  0.1150 -0.1724  0.1935
   11SAPS  H17R 1403   4.578   5.023   7.502  0.2911 -1.7215  1.9858
   11SAPS  H17S 1404   4.602   4.990   7.328 -0.6116  1.5503  0.9973
   11SAPS  C218 1405   4.745   4.900   7.481 -0.1061  0.1053  0.4153
   11SAPS  H18R 1406   4.768   4.819   7.409  0.5357  0.6444  0.0073
   11SAPS  H18S 1407   4.737   4.859   7.584 -0.6153 -1.4775 -0.2341
   11SAPS  C219 1408   4.856   4.996   7.461 -0.0560  0.3193  0.2531
   11SAPS  H19R 1409   4.839   5.090   7.519 -2.1435  1.3686 -1.9689
   11SAPS  H19S 1410   4.870   5.034   7.358 -0.3693  1.1773  0.5156
   11SAPS  C220 1411   4.983   4.935   7.517  0.3016 -0.0988 -0.2980
   11SAPS  H20R 1412   4.973   4.921   7.626  0.1202 -1.1038 -0.4450
   11SAPS  H20S 1413   5.070   5.001   7.496  1.1527 -0.8886  0.7392
   11SAPS  H20T 1414   5.009   4.848   7.452  0.7904  0.1949 -0.4991
   11SAPS   C33 1415   4.947   4.834   6.541  0.0624 -0.0979  0.0443
   11SAPS   H3X 1416   4.876   4.853   6.458 -0.7704  0.3307  0.8571
   11SAPS   H3Y 1417   5.039   4.891   6.513 -0.0039 -0.2355 -0.4565
   11SAPS   C34 1418   4.891   4.901   6.662  0.9526  0.6036 -0.4915
   11SAPS   H4X 1419   4.949   4.878   6.754 -1.2508  0.4986  0.9155
   11SAPS   H4Y 1420   4.793   4.855   6.686  0.4107  2.0885  0.1451
   11SAPS   C35 1421   4.872   5.057   6.662  0.3855 -0.1968  0.1580
   11SAPS   H5X 1422   4.805   5.082   6.577  0.5661 -0.3195 -0.0209
   11SAPS   H5Y 1423   4.969   5.106   6.642  0.0210  0.8319  0.8914
   11SAPS   C36 1424   4.812   5.102   6.797  0.0499 -0.2186  0.3301
   11SAPS   H6X 1425   4.891   5.073   6.870  0.7660 -0.5247 -0.5562
   11SAPS   H6Y 1426   4.721   5.043   6.821  0.9619 -2.2424 -1.0183
   11SAPS   C37 1427   4.764   5.249   6.805 -0.5269  0.4122  0.0342
   11SAPS   H7X 1428   4.697   5.270   6.719 -1.7266 -0.6569  0.6956
   11SAPS   H7Y 1429   4.849   5.316   6.781  0.5313 -0.4513  1.3163
   11SAPS   C38 1430   4.692   5.263   6.941 -0.7780  0.2717 -0.4032
   11SAPS   H8X 1431   4.627   5.176   6.963 -1.6999  0.9515 -0.3970
   11SAPS   H8Y 1432   4.637   5.359   6.951  2.4031  2.0363  1.3342
   11SAPS   C39 1433   4.787   5.259   7.063 -0.4104 -0.0780  0.0084
   11SAPS   H9X 1434   4.846   5.353   7.061 -0.8939  0.2152 -0.5976
   11SAPS   H9Y 1435   4.855   5.171   7.062  1.0092  0.9718  1.2917
   11SAPS  C310 1436   4.716   5.252   7.204 -0.3700  0.3854  0.1275
   11SAPS  H10X 1437   4.787   5.264   7.289 -0.2025  1.7999 -0.1918
   11SAPS  H10Y 1438   4.668   5.152   7.212  1.1794 -0.2573  1.7150
   11SAPS  C311 1439   4.614   5.372   7.218  0.1248  0.3387 -0.6186
   11SAPS  H11X 1440   4.544   5.367   7.132  1.3864 -2.4149 -1.5328
   11SAPS  H11Y 1441   4.675   5.465   7.212 -1.1678  1.2506  0.0155
   11SAPS  C312 1442   4.538   5.363   7.348 -0.7782 -0.4781 -0.1069
   11SAPS  H12X 1443   4.486   5.265   7.339  1.2423 -1.2946 -3.6181
   11SAPS  H12Y 1444   4.473   5.451   7.369  0.4243  1.3844 -3.7894
   11SAPS  C313 1445   4.624   5.355   7.473  1.1392 -0.4708  0.6982
   11SAPS  H13X 1446   4.713   5.422   7.465 -0.1866  1.1792 -0.7650
   11SAPS  H13Y 1447   4.653   5.251   7.497  1.6460 -0.6799 -0.7890
   11SAPS  C314 1448   4.541   5.418   7.588  0.1686  0.1771 -0.0659
   11SAPS  H14X 1449   4.445   5.363   7.593  0.5275 -0.4446 -0.0167
   11SAPS  H14Y 1450   4.516   5.523   7.562  0.1470 -0.0187 -0.8399
   11SAPS  C315 1451   4.616   5.412   7.721  0.0021  0.0068 -0.1532
   11SAPS  H15X 1452   4.552   5.468   7.793 -2.2835 -2.7707  0.1037
   11SAPS  H15Y 1453   4.711   5.466   7.701 -1.3728  2.6909  0.3089
   11SAPS  C316 1454   4.625   5.277   7.784 -0.3285 -0.1433  0.1301
   11SAPS  H16X 1455   4.679   5.209   7.714 -0.0467  0.2234 -0.0069
   11SAPS  H16Y 1456   4.520   5.247   7.808 -0.4510  0.0250 -0.1922
   11SAPS  C317 1457   4.697   5.274   7.917  0.0095  0.1322 -0.3323
   11SAPS  H17X 1458   4.641   5.337   7.988 -1.0134 -1.2351  0.0927
   11SAPS  H17Y 1459   4.799   5.317   7.901  0.4423 -0.0161  1.9476
   11SAPS  C318 1460   4.707   5.133   7.956 -0.3666  0.4670  0.2049
   11SAPS  H18X 1461   4.762   5.108   8.049 -0.1797 -1.6503 -0.4555
   11SAPS  H18Y 1462   4.745   5.083   7.865 -0.6151  0.1310  0.2837
   11SAPS  H18Z 1463   4.602   5.099   7.973 -0.4677 -0.3575 -1.9423
   12SAPS     N 1464   4.931   5.738   5.903  0.0545 -0.1679 -0.3661
   12SAPS   HN1 1465   4.994   5.730   5.986 -1.2383 -0.5660  0.6015
   12SAPS   HN2 1466   4.855   5.671   5.928  0.3172 -0.4490 -0.3186
   12SAPS   HN3 1467   4.975   5.701   5.816  0.0843  0.3424 -0.5687
   12SAPS   C12 1468   4.888   5.881   5.894  0.3159 -1.1624  0.3307
   12SAPS  H12A 1469   4.953   5.925   5.820  0.3568 -3.0678 -0.7973
   12SAPS   C13 1470   4.746   5.911   5.842 -0.1489  0.4629 -0.3562
   12SAPS  O13A 1471   4.671   5.823   5.799  0.2205 -0.0763 -0.3240
   12SAPS  O13B 1472   4.706   6.030   5.837 -0.2693  0.2173  0.1350
   12SAPS   C11 1473   4.906   5.941   6.036  0.4377  0.1766  0.3163
   12SAPS  H11A 1474   4.827   5.893   6.096 -0.7707 -0.0862 -1.4340
   12SAPS  H11B 1475   4.884   6.050   6.043  0.0413  0.1198 -0.0355
   12SAPS     P 1476   5.151   6.010   6.113  0.2318  0.4447  0.3041
   12SAPS   O13 1477   5.276   5.937   6.113 -0.2487 -0.2671  0.4562
   12SAPS   O14 1478   5.131   6.116   6.013  0.3774 -0.5391  0.4239
   12SAPS   O12 1479   5.037   5.910   6.086  0.1449 -0.0852 -0.6438
   12SAPS   O11 1480   5.117   6.070   6.257 -0.3802 -0.3282 -0.4222
   12SAPS    C1 1481   5.030   6.004   6.351  0.5922  0.2642  0.3690
   12SAPS    HA 1482   4.971   6.091   6.387  2.6131  1.7788  0.1289
   12SAPS    HB 1483   4.971   5.927   6.296  1.0107 -0.6003  1.1135
   12SAPS    C2 1484   5.102   5.953   6.477 -0.1669 -0.5685  0.2360
   12SAPS    HS 1485   5.040   5.879   6.532  1.0132 -1.0051  1.0025
   12SAPS   O21 1486   5.135   6.062   6.563 -0.1939  0.2833 -0.3930
   12SAPS   C21 1487   5.040   6.097   6.648 -0.5921 -0.8460 -1.1240
   12SAPS   O22 1488   4.933   6.046   6.667  0.0924  0.0508 -0.0451
   12SAPS   C22 1489   5.102   6.210   6.736 -0.4491  0.1755  0.0315
   12SAPS   H2R 1490   5.211   6.225   6.723 -0.5333  0.9334  0.1827
   12SAPS   H2S 1491   5.053   6.306   6.710 -1.5764 -1.0290 -2.5086
   12SAPS    C3 1492   5.235   5.882   6.451  0.2626 -0.0505  0.6057
   12SAPS    HX 1493   5.306   5.950   6.401 -0.2397 -0.0074 -0.0582
   12SAPS    HY 1494   5.204   5.805   6.377  0.3188  1.8436 -1.4399
   12SAPS   O31 1495   5.294   5.826   6.564  0.4597  0.0030  0.1729
   12SAPS   C31 1496   5.384   5.915   6.622 -0.4344 -1.4654 -0.3507
   12SAPS   O32 1497   5.424   6.021   6.582  0.0422 -0.3895  0.2781
   12SAPS   C32 1498   5.407   5.853   6.760 -0.4752 -0.2275 -0.2589
   12SAPS   H2X 1499   5.435   5.746   6.746 -0.3702  0.0986 -2.6158
   12SAPS   H2Y 1500   5.305   5.853   6.805 -1.3794  1.0106 -2.2427
   12SAPS   C23 1501   5.092   6.196   6.889  0.5307 -0.5272  0.4605
   12SAPS   H3R 1502   5.130   6.099   6.925  2.2303  0.1478  0.5358
   12SAPS   H3S 1503   4.984   6.214   6.906  1.2183  2.9258  1.6546
   12SAPS   C24 1504   5.179   6.310   6.956 -0.5407  0.1913  0.3938
   12SAPS   H4R 1505   5.281   6.309   6.913  0.1023 -4.2808  1.7076
   12SAPS   H4S 1506   5.199   6.294   7.064  0.6387  0.4628  0.2297
   12SAPS   C25 1507   5.117   6.448   6.946 -0.1518  0.3701  0.3592
   12SAPS   H5R 1508   5.133   6.489   6.845  0.3409 -0.1241  0.2355
   12SAPS   C26 1509   5.066   6.522   7.039 -0.3345  0.4095  0.1469
   12SAPS   H6R 1510   5.040   6.626   7.015  0.1450  0.3505 -0.6412
   12SAPS   C27 1511   5.033   6.489   7.180  0.0041  0.0917  0.2476
   12SAPS   H7R 1512   4.959   6.565   7.215  1.1002  0.4686  1.7965
   12SAPS   H7S 1513   5.121   6.503   7.246  0.1476  1.4978 -0.2140
   12SAPS   C28 1514   4.975   6.354   7.219  0.3725  0.5466 -0.1196
   12SAPS   H8R 1515   4.946   6.289   7.135  0.0283 -0.0666  0.4711
   12SAPS   C29 1516   4.948   6.314   7.345 -0.6024  0.5034 -0.2370
   12SAPS   H9R 1517   4.892   6.219   7.356 -2.0323  1.3594  0.0493
   12SAPS  C210 1518   4.986   6.398   7.465 -1.6495 -0.2479 -0.6840
   12SAPS  H10R 1519   4.899   6.461   7.492  0.2809  1.3157  2.1618
   12SAPS  H10S 1520   5.064   6.474   7.442 -1.2907 -0.5492 -0.4667
   12SAPS  C211 1521   5.040   6.313   7.588 -0.1728  0.3006 -0.6045
   12SAPS  H11R 1522   5.123   6.246   7.561  1.1820  0.8010  2.1724
   12SAPS  C212 1523   4.983   6.310   7.706 -0.1564  0.0211  0.1135
   12SAPS  H12R 1524   5.016   6.244   7.788  0.3456  0.3091  0.1486
   12SAPS  C213 1525   4.866   6.395   7.749 -0.2256  0.1435 -0.3285
   12SAPS  H13R 1526   4.792   6.392   7.666  0.1533 -0.1744 -0.6602
   12SAPS  H13S 1527   4.889   6.503   7.746  2.4944 -0.4176 -0.9375
   12SAPS  C214 1528   4.812   6.364   7.893 -0.2046  0.2985 -0.7817
   12SAPS  H14R 1529   4.780   6.260   7.908  1.2947 -0.0864 -0.1254
   12SAPS  C215 1530   4.815   6.451   7.993  0.0029 -0.0704 -0.5022
   12SAPS  H15R 1531   4.789   6.419   8.095  1.3918 -0.6949 -0.3274
   12SAPS  C216 1532   4.872   6.594   8.006 -0.5377  0.2158  1.2372
   12SAPS  H16R 1533   4.795   6.674   8.003 -0.6278  0.1199  0.9394
   12SAPS  H16S 1534   4.948   6.620   7.929 -1.6673  0.1730  0.0811
   12SAPS  C217 1535   4.943   6.597   8.142 -0.7028 -0.0562  0.0600
   12SAPS  H17R 1536   4.867   6.581   8.222 -0.5559 -0.9248  0.0313
   12SAPS  H17S 1537   4.982   6.700   8.154  0.6683 -0.6316  0.5922
   12SAPS  C218 1538   5.082   6.511   8.145  0.7918 -0.3828  0.4691
   12SAPS  H18R 1539   5.159   6.560   8.082  0.9274  1.1892  1.8356
   12SAPS  H18S 1540   5.071   6.414   8.093 -1.1347  0.2860 -0.4164
   12SAPS  C219 1541   5.138   6.483   8.287  0.1693  0.0157 -0.0836
   12SAPS  H19R 1542   5.044   6.458   8.340 -0.2133  0.0013 -0.7689
   12SAPS  H19S 1543   5.184   6.576   8.326  2.4667 -1.7546  1.5442
   12SAPS  C220 1544   5.250   6.377   8.287  0.0332 -0.7687 -0.8934
   12SAPS  H20R 1545   5.252   6.319   8.381 -2.3790  1.6751  0.7664
   12SAPS  H20S 1546   5.347   6.428   8.266 -1.6931  2.3622 -1.6736
   12SAPS  H20T 1547   5.236   6.304   8.205 -1.8233  0.0549 -1.3441
   12SAPS   C33 1548   5.505   5.929   6.850 -0.0078  0.6472 -0.6858
   12SAPS   H3X 1549   5.495   6.039   6.845 -0.6225  0.6516  0.4939
   12SAPS   H3Y 1550   5.605   5.905   6.806 -0.8756 -1.6099 -1.4986
   12SAPS   C34 1551   5.511   5.882   6.998  0.1369 -0.3485  0.2845
   12SAPS   H4X 1552   5.588   5.926   7.066  0.4810 -1.9882  0.9730
   12SAPS   H4Y 1553   5.513   5.771   7.005 -2.7319 -0.4669 -0.2369
   12SAPS   C35 1554   5.384   5.931   7.067  0.2530  0.1661 -0.2263
   12SAPS   H5X 1555   5.296   5.915   7.001  1.4630 -1.7267 -1.4490
   12SAPS   H5Y 1556   5.394   6.041   7.076  0.9361  0.3767 -3.2043
   12SAPS   C36 1557   5.353   5.886   7.214  0.1613 -0.5751 -0.5532
   12SAPS   H6X 1558   5.315   5.782   7.219 -0.0125 -0.5026 -0.3536
   12SAPS   H6Y 1559   5.266   5.945   7.248 -0.5256 -1.9992  0.2084
   12SAPS   C37 1560   5.473   5.904   7.318  0.1878  1.4972  0.3588
   12SAPS   H7X 1561   5.498   6.010   7.339 -0.8790  1.1359  3.7227
   12SAPS   H7Y 1562   5.557   5.850   7.269 -0.6907 -0.3844  0.9013
   12SAPS   C38 1563   5.447   5.839   7.451 -0.4407 -0.3138  0.2092
   12SAPS   H8X 1564   5.537   5.790   7.496 -0.0834 -0.4496 -0.6406
   12SAPS   H8Y 1565   5.375   5.755   7.437 -1.6897  0.8890 -0.7462
   12SAPS   C39 1566   5.393   5.952   7.541 -0.0164  0.3505 -0.0821
   12SAPS   H9X 1567   5.316   6.010   7.486 -0.1935  0.5405  0.3634
   12SAPS   H9Y 1568   5.473   6.028   7.554  0.5217 -0.4310  1.3270
   12SAPS  C310 1569   5.353   5.910   7.684  0.3327 -0.2890 -0.6805
   12SAPS  H10X 1570   5.431   5.850   7.737 -0.5185  0.2859  1.2733
   12SAPS  H10Y 1571   5.267   5.844   7.663 -0.4143 -0.0162  1.4221
   12SAPS  C311 1572   5.306   6.025   7.778  0.4331 -0.2572 -0.3571
   12SAPS  H11X 1573   5.227   6.081   7.723 -0.3259 -0.2078  0.7496
   12SAPS  H11Y 1574   5.387   6.094   7.808  0.2906 -1.5341  3.2285
   12SAPS  C312 1575   5.239   5.964   7.906 -0.1687  0.1233 -0.3748
   12SAPS  H12X 1576   5.316   5.901   7.955 -0.5705 -1.4434 -1.6981
   12SAPS  H12Y 1577   5.147   5.903   7.893 -1.3694  1.5820  1.1924
   12SAPS  C313 1578   5.200   6.068   8.021 -0.0784 -0.6248  0.0774
   12SAPS  H13X 1579   5.109   6.112   7.974  0.6468 -0.4924 -1.2437
   12SAPS  H13Y 1580   5.284   6.140   8.031 -0.2809 -0.4810  0.7413
   12SAPS  C314 1581   5.183   6.000   8.160 -0.2638 -0.8057 -0.2127
   12SAPS  H14X 1582   5.207   6.062   8.248  0.2750  1.5092 -1.9308
   12SAPS  H14Y 1583   5.268   5.928   8.155  0.5593  0.2474 -1.8280
   12SAPS  C315 1584   5.065   5.908   8.192  0.4755  0.0476 -0.3352
   12SAPS  H15X 1585   5.107   5.813   8.231 -0.7501 -0.2152  0.3811
   12SAPS  H15Y 1586   5.003   5.879   8.104 -0.7167 -1.7288  1.0263
   12SAPS  C316 1587   4.962   5.963   8.294  0.3327  0.0875 -0.3937
   12SAPS  H16X 1588   5.004   5.975   8.396  0.3967  1.2966 -0.5585
   12SAPS  H16Y 1589   4.877   5.891   8.298 -1.3247  2.0412  0.7488
   12SAPS  C317 1590   4.911   6.102   8.251  1.0535 -0.7693  1.1445
   12SAPS  H17X 1591   4.840   6.076   8.169  1.9365 -1.9325  0.7425
   12SAPS  H17Y 1592   5.001   6.161   8.224  0.3523  0.5674  1.6823
   12SAPS  C318 1593   4.837   6.200   8.355 -0.1842  0.1187 -0.1448
   12SAPS  H18X 1594   4.756   6.151   8.412  0.7917  0.6292  1.7007
   12SAPS  H18Y 1595   4.801   6.289   8.298 -1.6830  0.2009  0.9143
   12SAPS  H18Z 1596   4.912   6.237   8.428 -1.4520 -1.3495  1.9521
   13SAPS     N 1597   5.813   3.813   6.095 -0.3956 -0.5062  0.1831
   13SAPS   HN1 1598   5.728   3.868   6.072  0.7198  1.6650  1.0630
   13SAPS   HN2 1599   5.897   3.844   6.042 -0.1368 -0.6324  0.5132
   13SAPS   HN3 1600   5.781   3.719   6.066  0.3313 -0.1951 -1.6681
   13SAPS   C12 1601   5.862   3.808   6.234  0.0933 -0.0936 -0.5662
   13SAPS  H12A 1602   5.965   3.778   6.227  0.8119  1.9976  0.8191
   13SAPS   C13 1603   5.865   3.945   6.298  0.0644 -0.3505  0.0395
   13SAPS  O13A 1604   5.826   4.053   6.243  0.4622  0.0083  0.3720
   13SAPS  O13B 1605   5.912   3.948   6.417  0.1387  0.3970  0.1627
   13SAPS   C11 1606   5.774   3.709   6.315  0.6956  0.6408 -0.5379
   13SAPS  H11A 1607   5.673   3.753   6.306  1.5147  2.7375  0.2735
   13SAPS  H11B 1608   5.805   3.698   6.421 -0.3941 -1.3080 -0.3873
   13SAPS     P 1609   5.662   3.477   6.265  0.3976  0.5484  0.5826
   13SAPS   O13 1610   5.548   3.527   6.190  0.0637  0.0471 -0.2459
   13SAPS   O14 1611   5.705   3.337   6.239 -0.4967  0.5950 -0.2316
   13SAPS   O12 1612   5.780   3.580   6.248  0.4223 -0.5277 -0.2914
   13SAPS   O11 1613   5.648   3.496   6.420 -0.4656 -0.1626  0.2691
   13SAPS    C1 1614   5.586   3.396   6.500 -0.4680  0.3886 -1.0290
   13SAPS    HA 1615   5.613   3.289   6.483  1.2918  0.3286  1.8298
   13SAPS    HB 1616   5.603   3.426   6.605 -1.1164 -0.5737 -0.6361
   13SAPS    C2 1617   5.426   3.407   6.488 -0.8206  0.3677 -0.9430
   13SAPS    HS 1618   5.394   3.387   6.383 -4.0718  1.1814 -0.1802
   13SAPS   O21 1619   5.392   3.537   6.521  0.1046  0.1049  0.2221
   13SAPS   C21 1620   5.272   3.575   6.499  0.7974 -0.0508  0.6570
   13SAPS   O22 1621   5.181   3.510   6.445 -0.4300 -0.3849  0.1062
   13SAPS   C22 1622   5.264   3.714   6.561 -0.6624 -0.4124 -0.2324
   13SAPS   H2R 1623   5.359   3.730   6.617 -0.2939  0.0273 -0.9639
   13SAPS   H2S 1624   5.268   3.779   6.471  0.1678  0.2767  0.2820
   13SAPS    C3 1625   5.359   3.296   6.581  0.0648 -0.4230  0.2422
   13SAPS    HX 1626   5.376   3.196   6.536  0.0379  0.1584 -1.0751
   13SAPS    HY 1627   5.251   3.318   6.569  0.3687  0.3908 -1.0875
   13SAPS   O31 1628   5.399   3.305   6.719  0.1861 -0.1541 -0.3432
   13SAPS   C31 1629   5.488   3.224   6.770 -0.6887  0.3407  0.1510
   13SAPS   O32 1630   5.541   3.136   6.706 -0.0366 -0.4758 -0.2109
   13SAPS   C32 1631   5.498   3.255   6.919  0.4782  0.1860 -0.6785
   13SAPS   H2X 1632   5.402   3.221   6.962  1.7120 -2.2819  0.2760
   13SAPS   H2Y 1633   5.507   3.365   6.925 -0.4115  0.2090  0.3812
   13SAPS   C23 1634   5.136   3.732   6.634  0.1584 -0.3653  0.1573
   13SAPS   H3R 1635   5.051   3.686   6.578 -0.1453 -0.2046  0.4814
   13SAPS   H3S 1636   5.108   3.839   6.624  0.2380 -0.3701 -0.1279
   13SAPS   C24 1637   5.134   3.686   6.782 -0.2116  0.5449  0.7763
   13SAPS   H4R 1638   5.031   3.707   6.818 -1.4472 -2.4342 -0.8507
   13SAPS   H4S 1639   5.208   3.746   6.840  1.4765 -0.5591 -0.1917
   13SAPS   C25 1640   5.177   3.539   6.821 -0.2009  0.3232 -0.6755
   13SAPS   H5R 1641   5.257   3.493   6.761  0.7504 -0.8235  1.4048
   13SAPS   C26 1642   5.117   3.465   6.912  0.0028 -0.3423  0.7302
   13SAPS   H6R 1643   5.151   3.360   6.918  1.6273  0.0818 -0.7829
   13SAPS   C27 1644   5.000   3.508   7.002 -0.0382 -0.4681  0.0812
   13SAPS   H7R 1645   4.975   3.426   7.074  1.2371 -2.8878 -2.1614
   13SAPS   H7S 1646   4.909   3.522   6.940  0.1931  0.0900 -0.1276
   13SAPS   C28 1647   5.025   3.636   7.071  0.4752  0.1362  0.1960
   13SAPS   H8R 1648   4.997   3.728   7.019 -0.4889 -0.2597  0.0005
   13SAPS   C29 1649   5.069   3.651   7.195 -0.4392  0.3081  0.4056
   13SAPS   H9R 1650   5.079   3.753   7.235  2.6767 -0.2296  1.1466
   13SAPS  C210 1651   5.123   3.525   7.275 -0.0244  0.0717 -0.5677
   13SAPS  H10R 1652   5.182   3.452   7.217 -0.1508  0.6686 -1.4624
   13SAPS  H10S 1653   5.031   3.472   7.306 -0.8851  0.6059 -2.1542
   13SAPS  C211 1654   5.197   3.565   7.399  0.3151 -0.1867 -0.2816
   13SAPS  H11R 1655   5.306   3.564   7.384  0.4981  1.5928  0.7442
   13SAPS  C212 1656   5.151   3.622   7.510 -0.3488  0.0057  0.3829
   13SAPS  H12R 1657   5.221   3.638   7.594  0.0294  1.4064 -0.1771
   13SAPS  C213 1658   5.008   3.637   7.543 -0.8805  0.3658  1.1566
   13SAPS  H13R 1659   4.971   3.546   7.596 -1.6869 -1.2626 -2.0213
   13SAPS  H13S 1660   4.945   3.646   7.452 -2.6441  1.3090  2.4575
   13SAPS  C214 1661   5.004   3.767   7.617  0.2390 -0.6740 -0.6788
   13SAPS  H14R 1662   5.028   3.859   7.562 -0.2974 -1.1416 -1.7174
   13SAPS  C215 1663   4.978   3.780   7.748 -0.6942  0.1328  0.4514
   13SAPS  H15R 1664   4.976   3.881   7.792 -0.1430 -0.7662  2.6214
   13SAPS  C216 1665   4.953   3.660   7.845 -0.2704  0.2029 -0.4075
   13SAPS  H16R 1666   4.983   3.685   7.950 -0.7071  0.6441 -0.3815
   13SAPS  H16S 1667   5.020   3.575   7.821 -0.0654  0.0438  0.6953
   13SAPS  C217 1668   4.803   3.607   7.854  0.6903  0.5365 -0.6177
   13SAPS  H17R 1669   4.792   3.558   7.755  1.2066  0.0403 -0.4312
   13SAPS  H17S 1670   4.719   3.680   7.850 -1.6038 -2.0130 -0.7780
   13SAPS  C218 1671   4.794   3.511   7.972  0.0347 -0.7000  0.3501
   13SAPS  H18R 1672   4.854   3.547   8.058  1.0328  1.2789 -1.1377
   13SAPS  H18S 1673   4.849   3.418   7.944 -0.6679 -0.9556 -0.1859
   13SAPS  C219 1674   4.653   3.500   8.021 -0.3644 -0.0829 -0.3831
   13SAPS  H19R 1675   4.653   3.410   8.086  0.9258  0.0870 -0.1369
   13SAPS  H19S 1676   4.581   3.493   7.937  0.8750  0.8816 -1.5486
   13SAPS  C220 1677   4.625   3.620   8.108 -0.1333  0.2487 -0.3419
   13SAPS  H20R 1678   4.683   3.621   8.202  0.5922 -0.2029 -0.7855
   13SAPS  H20S 1679   4.519   3.627   8.139 -0.1069 -1.7228  0.2326
   13SAPS  H20T 1680   4.653   3.715   8.056  2.4946  0.1881  0.9046
   13SAPS   C33 1681   5.605   3.174   7.011 -0.3633 -0.0593  0.1201
   13SAPS   H3X 1682   5.701   3.229   7.006  0.3106 -1.1626  0.8025
   13SAPS   H3Y 1683   5.625   3.069   6.980 -1.2830  0.4174 -2.2079
   13SAPS   C34 1684   5.565   3.180   7.152 -0.4505 -0.0560 -0.8869
   13SAPS   H4X 1685   5.464   3.133   7.157  0.1412 -1.2174  0.5889
   13SAPS   H4Y 1686   5.537   3.280   7.191 -0.4060 -0.7287  0.9439
   13SAPS   C35 1687   5.666   3.117   7.248  0.5208  0.3397 -0.3045
   13SAPS   H5X 1688   5.775   3.136   7.237  1.0258 -0.4213  2.7192
   13SAPS   H5Y 1689   5.660   3.008   7.231  1.0568  0.0450  1.3154
   13SAPS   C36 1690   5.646   3.155   7.393  0.2577 -0.0692 -0.3395
   13SAPS   H6X 1691   5.630   3.265   7.400 -2.2226 -0.2417 -2.5514
   13SAPS   H6Y 1692   5.738   3.127   7.448  0.9553  1.1212 -0.8890
   13SAPS   C37 1693   5.525   3.078   7.451  0.2198 -0.3301 -0.3583
   13SAPS   H7X 1694   5.553   2.971   7.434  0.4779 -0.0594 -1.6564
   13SAPS   H7Y 1695   5.436   3.109   7.393 -1.2015  0.6134  2.2318
   13SAPS   C38 1696   5.498   3.084   7.601  0.6384 -0.0489  0.3327
   13SAPS   H8X 1697   5.581   3.021   7.640  0.7202  0.1357  0.4591
   13SAPS   H8Y 1698   5.401   3.030   7.613  0.5405 -0.4770 -2.0685
   13SAPS   C39 1699   5.508   3.219   7.675  0.0901 -0.0106  0.0834
   13SAPS   H9X 1700   5.421   3.280   7.642 -0.3820 -1.1078 -0.7418
   13SAPS   H9Y 1701   5.602   3.273   7.654 -0.9105  1.3084 -1.1065
   13SAPS  C310 1702   5.497   3.204   7.832  0.7733 -0.8021 -0.3717
   13SAPS  H10X 1703   5.580   3.150   7.881  1.8096 -0.1640 -1.4099
   13SAPS  H10Y 1704   5.398   3.157   7.850  0.2360  0.7843  0.9941
   13SAPS  C311 1705   5.503   3.338   7.916  0.0042  0.0177 -0.3728
   13SAPS  H11X 1706   5.600   3.388   7.892 -0.4034  0.6807 -0.6410
   13SAPS  H11Y 1707   5.499   3.324   8.026 -3.2679  1.7519 -0.2222
   13SAPS  C312 1708   5.384   3.432   7.900  0.5026  0.0392 -0.7556
   13SAPS  H12X 1709   5.291   3.375   7.919  0.0258  0.9285 -0.3887
   13SAPS  H12Y 1710   5.376   3.470   7.796  1.6681  1.5999 -0.2911
   13SAPS  C313 1711   5.393   3.554   7.997  0.9105  0.1758  0.0827
   13SAPS  H13X 1712   5.485   3.613   7.979  0.0225  1.4266 -0.4302
   13SAPS  H13Y 1713   5.403   3.511   8.099  1.6653 -0.5577 -0.2946
   13SAPS  C314 1714   5.268   3.639   7.993  0.3580  0.4249  0.3718
   13SAPS  H14X 1715   5.180   3.575   8.013  1.1136 -0.9674 -0.6804
   13SAPS  H14Y 1716   5.252   3.678   7.890 -0.8018 -0.6347  0.1310
   13SAPS  C315 1717   5.276   3.750   8.093 -0.1611 -0.2206 -0.1913
   13SAPS  H15X 1718   5.363   3.815   8.070  1.2988 -2.3514 -0.8926
   13SAPS  H15Y 1719   5.288   3.703   8.194  4.3364 -2.7160 -1.7359
   13SAPS  C316 1720   5.156   3.849   8.084  0.5577  0.2624  0.5866
   13SAPS  H16X 1721   5.068   3.784   8.101 -0.3132  1.6632  1.4567
   13SAPS  H16Y 1722   5.148   3.885   7.979 -0.5137  0.3817  0.7131
   13SAPS  C317 1723   5.164   3.972   8.172 -0.3726  0.3412  0.3462
   13SAPS  H17X 1724   5.246   4.036   8.133 -2.3244  0.3921 -3.9170
   13SAPS  H17Y 1725   5.175   3.932   8.275 -2.0996 -1.6820 -0.2007
   13SAPS  C318 1726   5.035   4.044   8.171  0.4685  0.4203 -0.9888
   13SAPS  H18X 1727   5.050   4.127   8.243 -2.2040  2.5756 -2.8118
   13SAPS  H18Y 1728   4.949   3.978   8.192  1.6585 -1.0995 -0.8334
   13SAPS  H18Z 1729   5.019   4.098   8.075  3.3616  0.8876 -1.2616
   14SAPS     N 1730   4.849   5.452   5.480 -0.0717 -0.1594 -0.1968
   14SAPS   HN1 1731   4.896   5.501   5.401 -1.0984  1.6670  0.2711
   14SAPS   HN2 1732   4.802   5.372   5.433 -0.8481  1.1062 -1.6273
   14SAPS   HN3 1733   4.773   5.520   5.501 -0.0537  0.3791 -1.7640
   14SAPS   C12 1734   4.926   5.429   5.611 -0.9350 -0.4371  0.2594
   14SAPS  H12A 1735   4.998   5.356   5.577 -2.3522 -0.1498 -3.6152
   14SAPS   C13 1736   5.009   5.543   5.674 -0.0060 -0.2898 -0.3745
   14SAPS  O13A 1737   4.982   5.662   5.636 -0.0798 -0.0598 -0.5964
   14SAPS  O13B 1738   5.089   5.510   5.768  0.3238  0.1562  0.5470
   14SAPS   C11 1739   4.830   5.355   5.707 -0.4020  0.7697 -0.1231
   14SAPS  H11A 1740   4.880   5.338   5.804 -1.1795 -1.9620 -0.1451
   14SAPS  H11B 1741   4.820   5.248   5.676 -0.4612  0.6234  0.4056
   14SAPS     P 1742   4.585   5.351   5.765 -0.2350  0.0615 -0.1555
   14SAPS   O13 1743   4.474   5.444   5.735  0.1015  0.5211  0.1652
   14SAPS   O14 1744   4.579   5.217   5.712 -0.9207 -0.0780  0.0518
   14SAPS   O12 1745   4.706   5.420   5.709  0.0399 -0.0074  1.0371
   14SAPS   O11 1746   4.605   5.344   5.915  0.0946  0.4186  0.2110
   14SAPS    C1 1747   4.570   5.231   5.993  0.5791  0.1657 -0.3796
   14SAPS    HA 1748   4.466   5.199   5.970  0.4730  0.5495 -0.4433
   14SAPS    HB 1749   4.645   5.151   6.008  0.1622 -0.3924 -1.1993
   14SAPS    C2 1750   4.556   5.270   6.147 -0.5275 -0.0856 -0.4425
   14SAPS    HS 1751   4.504   5.367   6.163  0.7308  0.0799  3.0188
   14SAPS   O21 1752   4.693   5.289   6.199  0.2017 -0.2742 -0.1305
   14SAPS   C21 1753   4.709   5.395   6.291  0.0090 -0.1057 -0.1993
   14SAPS   O22 1754   4.619   5.470   6.321 -0.2598  0.0617  0.7265
   14SAPS   C22 1755   4.845   5.391   6.348  0.2179  0.1683  0.5476
   14SAPS   H2R 1756   4.849   5.302   6.414 -1.2046 -0.2683  0.0629
   14SAPS   H2S 1757   4.924   5.376   6.271  0.3891  0.4021  0.6766
   14SAPS    C3 1758   4.483   5.146   6.218 -0.8968 -0.6119 -0.2903
   14SAPS    HX 1759   4.525   5.052   6.178  1.0523 -0.7253  1.9538
   14SAPS    HY 1760   4.376   5.144   6.188 -0.1710  1.1739 -3.1764
   14SAPS   O31 1761   4.506   5.135   6.356  0.3206  0.1529 -0.4661
   14SAPS   C31 1762   4.431   5.044   6.417  0.2385 -0.3376 -0.4183
   14SAPS   O32 1763   4.353   4.970   6.358  0.4950 -0.0451  0.1003
   14SAPS   C32 1764   4.467   5.057   6.567  0.1370  0.2008 -0.1679
   14SAPS   H2X 1765   4.547   5.131   6.587 -0.9644  1.0970  1.0056
   14SAPS   H2Y 1766   4.516   4.959   6.585  0.9473  0.5290 -0.5790
   14SAPS   C23 1767   4.883   5.512   6.433  0.3733 -0.4589 -0.1271
   14SAPS   H3R 1768   4.804   5.524   6.510 -0.5783 -2.9662 -0.6518
   14SAPS   H3S 1769   4.883   5.598   6.363 -0.7118 -1.3421 -1.2380
   14SAPS   C24 1770   5.018   5.502   6.510  0.7045  0.3853 -0.8683
   14SAPS   H4R 1771   5.007   5.423   6.586  4.5793  0.7845  0.2507
   14SAPS   H4S 1772   5.031   5.599   6.564 -0.4203  0.4594 -0.7277
   14SAPS   C25 1773   5.141   5.491   6.421 -0.0950 -0.7145 -0.1008
   14SAPS   H5R 1774   5.163   5.587   6.373 -1.7642  1.0121  2.4575
   14SAPS   C26 1775   5.215   5.382   6.394 -0.1698 -0.1572  0.6671
   14SAPS   H6R 1776   5.300   5.392   6.325  3.0114  0.5552  4.5206
   14SAPS   C27 1777   5.186   5.245   6.449 -0.2582 -0.5807 -0.7300
   14SAPS   H7R 1778   5.091   5.243   6.507  0.8479  2.1074  1.2797
   14SAPS   H7S 1779   5.271   5.223   6.517 -0.7952 -2.0574 -0.5033
   14SAPS   C28 1780   5.191   5.147   6.332  0.2963 -0.9406 -0.5281
   14SAPS   H8R 1781   5.101   5.157   6.271 -0.4090 -1.6405  0.3865
   14SAPS   C29 1782   5.277   5.048   6.291 -0.1456  0.7294 -0.0481
   14SAPS   H9R 1783   5.246   4.988   6.204 -1.1227  0.4021  0.5193
   14SAPS  C210 1784   5.396   4.999   6.368  0.1023  0.3173  0.9839
   14SAPS  H10R 1785   5.397   5.041   6.471  0.0682  1.8137  0.3774
   14SAPS  H10S 1786   5.480   5.037   6.308  0.3326  1.1335  1.8128
   14SAPS  C211 1787   5.400   4.847   6.371 -0.5474 -1.0901  0.1247
   14SAPS  H11R 1788   5.383   4.790   6.278 -1.8096 -0.1449 -0.2386
   14SAPS  C212 1789   5.429   4.780   6.483 -0.7573  0.1757  0.8637
   14SAPS  H12R 1790   5.413   4.671   6.475 -1.3122  0.4280 -2.2828
   14SAPS  C213 1791   5.446   4.834   6.619  0.6200 -0.2582  0.6259
   14SAPS  H13R 1792   5.520   4.918   6.619  0.4492 -0.1068 -0.0745
   14SAPS  H13S 1793   5.496   4.756   6.681  3.2337  1.4682  0.7804
   14SAPS  C214 1794   5.321   4.884   6.684  0.5190 -0.0235 -0.3176
   14SAPS  H14R 1795   5.270   4.960   6.623 -0.5953 -1.4192 -1.1443
   14SAPS  C215 1796   5.262   4.847   6.799  0.3777 -0.2412 -0.3192
   14SAPS  H15R 1797   5.165   4.890   6.827  0.7683 -0.3018  1.1922
   14SAPS  C216 1798   5.322   4.750   6.898 -0.5522 -0.0679 -0.4637
   14SAPS  H16R 1799   5.431   4.750   6.881 -0.2183  1.0134  1.5044
   14SAPS  H16S 1800   5.283   4.648   6.878 -0.0353 -0.3527 -0.0264
   14SAPS  C217 1801   5.293   4.764   7.050  0.2883 -0.2477  0.7084
   14SAPS  H17R 1802   5.313   4.870   7.075  0.6139  0.1039 -0.9383
   14SAPS  H17S 1803   5.361   4.701   7.111 -0.2095 -0.9217  0.5688
   14SAPS  C218 1804   5.153   4.736   7.098  0.6428  0.4234 -0.3065
   14SAPS  H18R 1805   5.151   4.760   7.206  0.2294 -0.6897 -0.0620
   14SAPS  H18S 1806   5.143   4.628   7.073  1.0221  0.9242 -2.7804
   14SAPS  C219 1807   5.040   4.823   7.042  0.4223  0.3961 -0.3902
   14SAPS  H19R 1808   5.018   4.795   6.937 -0.8827  0.4977 -0.1526
   14SAPS  H19S 1809   5.063   4.932   7.031 -0.7866  0.6875 -0.1590
   14SAPS  C220 1810   4.908   4.814   7.124  0.4157  0.0475 -0.0806
   14SAPS  H20R 1811   4.883   4.708   7.143  0.0906  0.1161 -0.1117
   14SAPS  H20S 1812   4.815   4.845   7.072  1.8258  0.2466 -2.5450
   14SAPS  H20T 1813   4.906   4.871   7.219 -1.3732 -1.6456  0.9134
   14SAPS   C33 1814   4.342   5.068   6.662  0.7859  0.1898  0.1824
   14SAPS   H3X 1815   4.288   4.971   6.656  4.1334 -2.0089  3.0187
   14SAPS   H3Y 1816   4.273   5.145   6.623 -0.5262 -1.0256  0.0714
   14SAPS   C34 1817   4.365   5.127   6.805 -0.4988  0.2525  0.0480
   14SAPS   H4X 1818   4.394   5.234   6.804 -2.6764  0.9219  2.3285
   14SAPS   H4Y 1819   4.457   5.075   6.839  0.2508 -0.1493 -2.4667
   14SAPS   C35 1820   4.247   5.117   6.902  0.0075 -0.0216 -0.4467
   14SAPS   H5X 1821   4.245   5.013   6.941  0.4739 -0.4365 -1.5171
   14SAPS   H5Y 1822   4.155   5.144   6.845 -0.0747  1.4495  0.3553
   14SAPS   C36 1823   4.254   5.213   7.022 -0.6756  0.6790  0.2330
   14SAPS   H6X 1824   4.239   5.321   7.000  2.3651  1.6402  2.5450
   14SAPS   H6Y 1825   4.354   5.193   7.066 -1.5272 -0.5044  1.6532
   14SAPS   C37 1826   4.137   5.185   7.122 -0.2997  0.5077  0.2453
   14SAPS   H7X 1827   4.135   5.081   7.161 -0.0640  1.0030  1.5959
   14SAPS   H7Y 1828   4.041   5.199   7.068 -0.2592  1.9909  0.5581
   14SAPS   C38 1829   4.156   5.276   7.243 -0.2073  0.1237  0.1777
   14SAPS   H8X 1830   4.150   5.384   7.215 -2.0048 -0.2390 -0.9181
   14SAPS   H8Y 1831   4.248   5.241   7.294 -0.2782 -4.2063 -2.4563
   14SAPS   C39 1832   4.045   5.250   7.344 -0.1797  0.5910  0.3358
   14SAPS   H9X 1833   4.042   5.141   7.365 -0.2878  0.1603 -1.8436
   14SAPS   H9Y 1834   3.952   5.273   7.289  0.2462 -0.2341 -0.7376
   14SAPS  C310 1835   4.048   5.322   7.479  0.2143 -0.3604 -0.5120
   14SAPS  H10X 1836   3.950   5.310   7.530  0.1520 -2.5575 -1.0972
   14SAPS  H10Y 1837   4.053   5.432   7.472 -1.4008 -0.0782  2.1741
   14SAPS  C311 1838   4.169   5.280   7.569  0.5939  0.9249  0.4890
   14SAPS  H11X 1839   4.171   5.347   7.657  1.1692  1.0817  0.3587
   14SAPS  H11Y 1840   4.265   5.291   7.514  1.6347 -3.7806  1.1479
   14SAPS  C312 1841   4.175   5.132   7.606  0.2449  0.2545  0.1626
   14SAPS  H12X 1842   4.207   5.064   7.524  0.4350  2.3702 -1.5521
   14SAPS  H12Y 1843   4.078   5.095   7.645 -0.1515 -2.5581 -3.2217
   14SAPS  C313 1844   4.297   5.098   7.700 -0.3615  0.6500 -0.5739
   14SAPS  H13X 1845   4.296   5.154   7.796  4.6855 -0.5254  0.3081
   14SAPS  H13Y 1846   4.390   5.136   7.652  0.4623  0.6867  1.0163
   14SAPS  C314 1847   4.317   4.946   7.730 -0.3650 -0.0911 -0.4445
   14SAPS  H14X 1848   4.334   4.884   7.639 -2.1326  0.9719 -1.5461
   14SAPS  H14Y 1849   4.231   4.916   7.794 -0.1204 -0.0217 -0.0808
   14SAPS  C315 1850   4.433   4.916   7.822  0.5681 -0.0580 -0.3991
   14SAPS  H15X 1851   4.412   4.972   7.916 -1.1447  0.2224 -0.9347
   14SAPS  H15Y 1852   4.529   4.954   7.781  0.9668  1.1082  1.5535
   14SAPS  C316 1853   4.442   4.766   7.858  0.0945 -0.5508 -0.1737
   14SAPS  H16X 1854   4.440   4.711   7.762 -0.0662 -0.7092 -0.0780
   14SAPS  H16Y 1855   4.357   4.733   7.921  0.6167  0.0956  0.8927
   14SAPS  C317 1856   4.565   4.721   7.943  0.2424  0.3660  0.1337
   14SAPS  H17X 1857   4.536   4.766   8.041 -0.6992 -2.0120  0.9724
   14SAPS  H17Y 1858   4.662   4.763   7.909  0.3189  0.3532  0.3339
   14SAPS  C318 1859   4.583   4.576   7.970 -0.6105  0.4342 -0.3105
   14SAPS  H18X 1860   4.665   4.564   8.044  0.2518  2.5855 -0.8610
   14SAPS  H18Y 1861   4.626   4.525   7.881  1.1533  2.0605 -0.4359
   14SAPS  H18Z 1862   4.486   4.532   8.000 -0.5460  1.3791  1.3637
   15SAPS     N 1863   5.494   4.494   5.690 -1.0659 -0.8649 -0.1291
   15SAPS   HN1 1864   5.415   4.460   5.630 -0.4196 -0.0522 -1.4599
   15SAPS   HN2 1865   5.477   4.462   5.787  0.5703  1.0092  0.8038
   15SAPS   HN3 1866   5.505   4.597   5.693  3.0359 -1.2159 -0.3165
   15SAPS   C12 1867   5.614   4.430   5.645 -0.6818 -0.0325 -0.7590
   15SAPS  H12A 1868   5.586   4.326   5.644 -0.4975 -0.0831 -1.2248
   15SAPS   C13 1869   5.676   4.468   5.507 -0.3297  0.6760  0.6436
   15SAPS  O13A 1870   5.622   4.554   5.434  0.0011  0.8496  0.1076
   15SAPS  O13B 1871   5.779   4.413   5.471  0.3263  0.0125  0.4482
   15SAPS   C11 1872   5.728   4.455   5.749  0.5971  0.2491  0.5413
   15SAPS  H11A 1873   5.820   4.408   5.708 -1.3184 -3.0942 -0.0915
   15SAPS  H11B 1874   5.719   4.398   5.844 -0.7603  1.6020  1.2376
   15SAPS     P 1875   5.888   4.660   5.818 -0.0779 -0.2617  0.3099
   15SAPS   O13 1876   5.994   4.555   5.820  0.7652  0.1613 -0.0333
   15SAPS   O14 1877   5.915   4.779   5.727  0.2922  0.0622  0.7205
   15SAPS   O12 1878   5.758   4.594   5.761 -0.4374 -0.4474 -0.1805
   15SAPS   O11 1879   5.854   4.702   5.974  0.5041  0.3593  0.0483
   15SAPS    C1 1880   5.743   4.784   6.014  0.7769 -0.0668  0.0243
   15SAPS    HA 1881   5.787   4.883   6.039 -0.2582  0.5033 -0.3816
   15SAPS    HB 1882   5.672   4.799   5.930 -0.2028 -0.7120  0.7265
   15SAPS    C2 1883   5.656   4.732   6.130  0.3032 -0.2515 -0.0843
   15SAPS    HS 1884   5.567   4.798   6.126  1.9308  1.9078 -1.9131
   15SAPS   O21 1885   5.731   4.742   6.253 -0.2898 -0.7696  0.0098
   15SAPS   C21 1886   5.751   4.862   6.304 -1.0154 -0.4426 -0.3051
   15SAPS   O22 1887   5.721   4.970   6.252  0.3151 -0.2830 -0.0651
   15SAPS   C22 1888   5.830   4.847   6.439  0.2953  0.0508  0.3938
   15SAPS   H2R 1889   5.768   4.774   6.495 -2.4823  3.1382  1.4510
   15SAPS   H2S 1890   5.931   4.802   6.423  0.7790  1.1439  0.3193
   15SAPS    C3 1891   5.614   4.582   6.108 -0.2448  0.2206  0.4545
   15SAPS    HX 1892   5.700   4.534   6.058 -0.4051 -0.6409  0.9923
   15SAPS    HY 1893   5.531   4.585   6.034 -1.7014  0.4344  2.0585
   15SAPS   O31 1894   5.566   4.519   6.230 -0.0281 -0.6527 -0.9424
   15SAPS   C31 1895   5.663   4.461   6.299 -0.0228 -0.7343  0.1644
   15SAPS   O32 1896   5.781   4.449   6.272  0.4662 -0.3685  0.3406
   15SAPS   C32 1897   5.606   4.425   6.434  0.0843  0.3419  0.0698
   15SAPS   H2X 1898   5.639   4.321   6.452 -1.3457  0.0131  0.7714
   15SAPS   H2Y 1899   5.496   4.423   6.445  0.3329  0.7388  3.0748
   15SAPS   C23 1900   5.857   4.993   6.503  0.6775 -0.7292 -0.1137
   15SAPS   H3R 1901   5.764   5.049   6.527  0.7719 -1.4688  2.1248
   15SAPS   H3S 1902   5.902   5.040   6.413 -1.4351  0.0738 -0.7824
   15SAPS   C24 1903   5.951   4.985   6.626 -0.3614  0.7749 -0.3217
   15SAPS   H4R 1904   5.956   5.084   6.677 -0.6093  2.6874 -3.8405
   15SAPS   H4S 1905   6.053   4.951   6.601 -0.1739 -0.4952  2.0162
   15SAPS   C25 1906   5.885   4.875   6.711  0.2130  0.1865 -0.6422
   15SAPS   H5R 1907   5.914   4.772   6.686 -0.7922  0.0621 -1.3372
   15SAPS   C26 1908   5.804   4.877   6.818  0.7773 -0.2798 -0.2524
   15SAPS   H6R 1909   5.783   4.784   6.872 -0.2979  0.4797  0.6704
   15SAPS   C27 1910   5.749   5.000   6.877 -0.4926 -0.4034  0.2851
   15SAPS   H7R 1911   5.638   5.000   6.874 -0.4732 -1.0635 -0.8348
   15SAPS   H7S 1912   5.778   5.082   6.807 -0.7457 -2.2551 -2.0394
   15SAPS   C28 1913   5.807   5.030   7.013  0.3282  0.0989  0.2978
   15SAPS   H8R 1914   5.900   5.089   7.006  0.9805 -0.9827 -0.2999
   15SAPS   C29 1915   5.758   5.008   7.134  0.2587 -1.2136 -0.2226
   15SAPS   H9R 1916   5.823   5.043   7.216 -0.3942 -0.2289 -0.1122
   15SAPS  C210 1917   5.622   4.947   7.167  0.0419 -0.8929  0.4364
   15SAPS  H10R 1918   5.593   4.862   7.102  2.3193 -0.8514 -0.6736
   15SAPS  H10S 1919   5.552   5.030   7.145  2.1151  0.3741 -1.5634
   15SAPS  C211 1920   5.614   4.891   7.306  0.7272  1.1279  0.0515
   15SAPS  H11R 1921   5.696   4.832   7.350 -2.2582 -2.0567  1.6138
   15SAPS  C212 1922   5.508   4.907   7.392 -0.0635  0.1882  0.2810
   15SAPS  H12R 1923   5.523   4.862   7.491  0.0982 -0.6437 -0.1229
   15SAPS  C213 1924   5.379   4.983   7.371 -0.9132 -0.2622 -0.2902
   15SAPS  H13R 1925   5.309   4.924   7.435 -2.6202  0.8144 -1.1286
   15SAPS  H13S 1926   5.349   4.975   7.264  1.0451  3.4824 -1.1713
   15SAPS  C214 1927   5.372   5.130   7.422  0.5720  0.9386 -0.0809
   15SAPS  H14R 1928   5.394   5.206   7.345 -0.2750 -0.0291 -1.3030
   15SAPS  C215 1929   5.353   5.172   7.547 -0.2982 -0.1391  0.3220
   15SAPS  H15R 1930   5.351   5.281   7.562 -0.3623 -0.4066  2.3899
   15SAPS  C216 1931   5.332   5.085   7.668 -0.2900 -0.0252  0.6756
   15SAPS  H16R 1932   5.426   5.081   7.726  1.8365  2.5710 -2.4062
   15SAPS  H16S 1933   5.296   4.981   7.655 -1.2887  0.1694  1.7830
   15SAPS  C217 1934   5.225   5.165   7.747 -0.3593  0.4822  0.3323
   15SAPS  H17R 1935   5.127   5.154   7.695 -0.8151 -1.5481  1.5718
   15SAPS  H17S 1936   5.242   5.275   7.750  0.8048  0.5243 -4.2981
   15SAPS  C218 1937   5.218   5.110   7.889 -0.5212  0.5612 -0.5078
   15SAPS  H18R 1938   5.315   5.120   7.943  0.1863  0.8690 -1.8036
   15SAPS  H18S 1939   5.208   5.000   7.882  2.9305  0.1708 -0.5458
   15SAPS  C219 1940   5.102   5.162   7.976 -0.0691 -0.2926 -0.3824
   15SAPS  H19R 1941   5.009   5.145   7.917 -2.5687  1.7926  2.7700
   15SAPS  H19S 1942   5.101   5.270   8.001 -0.0989 -0.2146 -0.7233
   15SAPS  C220 1943   5.088   5.068   8.096 -0.1682  0.1008  0.4545
   15SAPS  H20R 1944   5.177   5.064   8.162 -0.3488 -0.6155  0.6608
   15SAPS  H20S 1945   5.066   4.963   8.064  3.2115 -0.5860  0.2409
   15SAPS  H20T 1946   5.002   5.099   8.160  0.4722  1.4884  0.6579
   15SAPS   C33 1947   5.671   4.507   6.551  0.0887 -0.0156 -0.1842
   15SAPS   H3X 1948   5.628   4.609   6.547  0.5854  0.1445 -1.9147
   15SAPS   H3Y 1949   5.782   4.517   6.543  0.3887 -3.2478 -0.9263
   15SAPS   C34 1950   5.648   4.435   6.686 -0.1668 -0.5992 -0.2348
   15SAPS   H4X 1951   5.681   4.500   6.770 -0.4271  0.2426 -0.7759
   15SAPS   H4Y 1952   5.721   4.352   6.685  2.5352  1.6575  1.0609
   15SAPS   C35 1953   5.513   4.371   6.716  0.0522  0.1603 -0.2149
   15SAPS   H5X 1954   5.491   4.293   6.639  1.0922  0.2265 -0.5887
   15SAPS   H5Y 1955   5.443   4.456   6.698 -1.7789 -1.5441 -1.3954
   15SAPS   C36 1956   5.499   4.297   6.847  0.0603  0.4145 -0.2951
   15SAPS   H6X 1957   5.579   4.221   6.860 -0.2337  0.2440  0.5280
   15SAPS   H6Y 1958   5.406   4.238   6.832  0.4934 -0.3089 -0.1561
   15SAPS   C37 1959   5.490   4.383   6.968  0.1926  0.0318 -0.1100
   15SAPS   H7X 1960   5.401   4.448   6.952  1.2573  1.3014 -0.9071
   15SAPS   H7Y 1961   5.580   4.446   6.978  0.4150 -0.5197  1.4790
   15SAPS   C38 1962   5.462   4.292   7.089  0.2802  0.2711 -0.3820
   15SAPS   H8X 1963   5.547   4.230   7.124 -0.5029 -1.1765 -0.9901
   15SAPS   H8Y 1964   5.381   4.221   7.060 -0.5721  0.2021  2.0627
   15SAPS   C39 1965   5.422   4.376   7.217  0.1755 -0.3738 -0.3187
   15SAPS   H9X 1966   5.368   4.314   7.291  1.9586  0.6812  1.9122
   15SAPS   H9Y 1967   5.348   4.446   7.173 -0.1963 -1.2286 -1.0568
   15SAPS  C310 1968   5.531   4.472   7.275  1.0153  0.1457  0.1644
   15SAPS  H10X 1969   5.549   4.552   7.201  1.1235  0.1225  0.1648
   15SAPS  H10Y 1970   5.620   4.409   7.299  0.7465 -0.7153 -1.0823
   15SAPS  C311 1971   5.487   4.552   7.405  0.3590 -0.0901  1.1289
   15SAPS  H11X 1972   5.397   4.608   7.374 -1.0514 -2.2679  1.2291
   15SAPS  H11Y 1973   5.554   4.640   7.418 -1.1457  1.5266 -1.6032
   15SAPS  C312 1974   5.458   4.470   7.534 -0.6790 -0.8599 -1.2932
   15SAPS  H12X 1975   5.548   4.409   7.560  0.2984  1.9746  2.3391
   15SAPS  H12Y 1976   5.364   4.412   7.518 -3.0243  2.2834  0.5399
   15SAPS  C313 1977   5.439   4.551   7.666  0.0225 -0.1927 -0.0125
   15SAPS  H13X 1978   5.368   4.636   7.650  0.0631 -0.3028 -0.8280
   15SAPS  H13Y 1979   5.537   4.593   7.698 -0.5984  2.6446 -1.6192
   15SAPS  C314 1980   5.396   4.473   7.790  0.1186 -0.7372  0.4116
   15SAPS  H14X 1981   5.301   4.416   7.779  1.4808 -3.6131  2.7587
   15SAPS  H14Y 1982   5.378   4.537   7.879 -0.9700  1.7791 -1.5713
   15SAPS  C315 1983   5.501   4.379   7.836 -0.3166  0.0274 -0.2725
   15SAPS  H15X 1984   5.601   4.426   7.841 -0.2314 -0.3142  2.4245
   15SAPS  H15Y 1985   5.512   4.306   7.753  1.5637 -0.1382  0.0882
   15SAPS  C316 1986   5.467   4.305   7.966 -0.1417  0.3549  0.3562
   15SAPS  H16X 1987   5.457   4.194   7.965  0.3613  0.2974  0.9172
   15SAPS  H16Y 1988   5.363   4.333   7.992  0.2797  2.4422 -0.1163
   15SAPS  C317 1989   5.560   4.342   8.079  0.1012 -1.0418  0.3396
   15SAPS  H17X 1990   5.566   4.452   8.092  0.7961 -1.0821  0.4133
   15SAPS  H17Y 1991   5.665   4.314   8.057 -0.0863 -0.1540 -1.8320
   15SAPS  C318 1992   5.523   4.288   8.218  0.1715  0.5688 -0.1267
   15SAPS  H18X 1993   5.430   4.333   8.259  0.9352 -0.1373  2.4724
   15SAPS  H18Y 1994   5.611   4.296   8.285  0.4736  2.3128 -0.7014
   15SAPS  H18Z 1995   5.497   4.180   8.216  1.3840  0.2751 -0.8383
   16SAPS     N 1996   0.702   6.244   6.393 -0.7263 -0.3782  0.5748
   16SAPS   HN1 1997   0.730   6.253   6.293 -2.5338 -1.2027 -0.0138
   16SAPS   HN2 1998   0.643   6.161   6.412  2.0487 -2.5440  0.0504
   16SAPS   HN3 1999   0.647   6.329   6.417  0.5799  1.1313 -1.5758
   16SAPS   C12 2000   0.827   6.245   6.478  0.1723  0.7512 -0.6748
   16SAPS  H12A 2001   0.808   6.215   6.579  1.2187  0.3244 -0.5985
   16SAPS   C13 2002   0.952   6.173   6.419 -0.1675  0.3971  0.1252
   16SAPS  O13A 2003   0.941   6.099   6.318  0.3916  0.1073 -0.2034
   16SAPS  O13B 2004   1.054   6.160   6.489  0.4733 -0.0261 -0.3070
   16SAPS   C11 2005   0.877   6.401   6.494 -0.0154 -0.8892  0.0846
   16SAPS  H11A 2006   0.905   6.447   6.397 -2.0212  1.7224  0.6668
   16SAPS  H11B 2007   0.965   6.392   6.562  1.0826 -1.9085 -1.4434
   16SAPS     P 2008   0.772   6.638   6.555  0.0308 -0.2032  0.3799
   16SAPS   O13 2009   0.779   6.696   6.423 -0.5363 -0.0844  0.6925
   16SAPS   O14 2010   0.670   6.677   6.647 -0.0171 -0.0040  0.5255
   16SAPS   O12 2011   0.771   6.478   6.551  0.7164 -0.8082  0.1697
   16SAPS   O11 2012   0.912   6.656   6.613 -0.6553  0.1264 -0.3832
   16SAPS    C1 2013   0.957   6.769   6.693 -0.2964 -0.4447  0.2526
   16SAPS    HA 2014   1.035   6.828   6.641 -2.9088  1.8014 -1.3188
   16SAPS    HB 2015   0.886   6.849   6.723  1.3414  0.9078  0.5655
   16SAPS    C2 2016   0.995   6.719   6.835 -0.4934  0.2629  0.3452
   16SAPS    HS 2017   0.996   6.799   6.912 -1.1744 -0.3809  1.0180
   16SAPS   O21 2018   1.123   6.645   6.831 -0.0031  0.3222  0.0575
   16SAPS   C21 2019   1.188   6.629   6.951  0.0087  0.1098 -0.2543
   16SAPS   O22 2020   1.170   6.700   7.049  0.6221 -0.6039 -0.2558
   16SAPS   C22 2021   1.288   6.509   6.940 -0.2922  0.0445 -0.4022
   16SAPS   H2R 2022   1.240   6.418   6.899  1.6760 -2.0770  1.8008
   16SAPS   H2S 2023   1.351   6.545   6.857  0.8753 -2.2394 -0.5637
   16SAPS    C3 2024   0.882   6.623   6.889  0.1154  0.3642 -0.2060
   16SAPS    HX 2025   0.857   6.536   6.824  0.8509 -0.1230  0.1480
   16SAPS    HY 2026   0.789   6.681   6.877  0.0072  0.3860  0.7401
   16SAPS   O31 2027   0.905   6.579   7.020  0.4449 -0.0431 -0.5328
   16SAPS   C31 2028   0.872   6.664   7.123 -0.2511 -0.4847 -0.8704
   16SAPS   O32 2029   0.812   6.765   7.111  0.6263  0.1110  0.0922
   16SAPS   C32 2030   0.941   6.614   7.252 -0.3053 -1.0966 -0.4438
   16SAPS   H2X 2031   0.952   6.701   7.320  0.1373 -0.4735 -1.3126
   16SAPS   H2Y 2032   1.037   6.572   7.216  0.9772  1.0997  0.3376
   16SAPS   C23 2033   1.360   6.486   7.077  0.7369  0.9729 -0.2430
   16SAPS   H3R 2034   1.385   6.577   7.135  2.0688  0.6905 -0.3398
   16SAPS   H3S 2035   1.458   6.435   7.062  1.5883  2.2377  0.9264
   16SAPS   C24 2036   1.271   6.408   7.176  0.4331 -0.6131  0.7527
   16SAPS   H4R 2037   1.163   6.424   7.152  0.6074 -0.3429  0.1181
   16SAPS   H4S 2038   1.287   6.463   7.271  0.8524  0.6256 -0.0205
   16SAPS   C25 2039   1.306   6.265   7.175 -0.2362 -0.0910  0.1321
   16SAPS   H5R 2040   1.375   6.236   7.094  0.5813  0.6090  0.5717
   16SAPS   C26 2041   1.261   6.171   7.264  0.1345 -0.1608  0.7678
   16SAPS   H6R 2042   1.297   6.068   7.255  0.5252  0.0480 -0.1618
   16SAPS   C27 2043   1.172   6.205   7.380  1.0288 -0.2130  0.9034
   16SAPS   H7R 2044   1.123   6.113   7.419 -0.2745  1.0391  2.2922
   16SAPS   H7S 2045   1.090   6.271   7.344  0.1075 -1.4276  0.7361
   16SAPS   C28 2046   1.237   6.275   7.497 -0.2860 -0.1411  0.2891
   16SAPS   H8R 2047   1.334   6.324   7.480 -1.3637  1.6976 -0.7785
   16SAPS   C29 2048   1.168   6.297   7.614  0.2336 -0.0221  0.3562
   16SAPS   H9R 2049   1.219   6.356   7.692  0.2696  1.1059 -0.4967
   16SAPS  C210 2050   1.026   6.253   7.651  0.1856 -0.0433  0.1171
   16SAPS  H10R 2051   1.004   6.145   7.636  1.0719 -0.6050  2.6699
   16SAPS  H10S 2052   0.956   6.304   7.582  0.1955  1.9545  1.5452
   16SAPS  C211 2053   0.997   6.290   7.795 -0.3838  0.6246  0.0381
   16SAPS  H11R 2054   1.063   6.245   7.870 -1.4576 -1.5498 -0.2535
   16SAPS  C212 2055   0.907   6.371   7.848  0.2634 -0.1100  0.5104
   16SAPS  H12R 2056   0.906   6.376   7.958 -3.2836 -0.2361  0.5431
   16SAPS  C213 2057   0.808   6.447   7.763  0.6962 -0.3429 -0.0307
   16SAPS  H13R 2058   0.717   6.387   7.744 -0.3358  1.0140  0.5529
   16SAPS  H13S 2059   0.849   6.479   7.664 -1.2444  0.7787 -0.4962
   16SAPS  C214 2060   0.762   6.573   7.825 -0.6703 -0.2078 -0.1889
   16SAPS  H14R 2061   0.780   6.663   7.765  0.1123 -0.1592  0.1035
   16SAPS  C215 2062   0.678   6.584   7.934 -0.0376 -0.0519  1.0685
   16SAPS  H15R 2063   0.665   6.687   7.970  0.2298  0.2619  0.2693
   16SAPS  C216 2064   0.616   6.474   8.017  0.4602 -0.4920  0.7362
   16SAPS  H16R 2065   0.643   6.499   8.122 -1.3509 -4.1161  2.1427
   16SAPS  H16S 2066   0.642   6.371   7.985  1.3327 -0.0345 -0.0442
   16SAPS  C217 2067   0.457   6.479   8.000 -0.1559  0.0242 -0.2073
   16SAPS  H17R 2068   0.396   6.404   8.055 -1.0748 -0.8825 -2.3889
   16SAPS  H17S 2069   0.429   6.447   7.897 -1.4099 -0.6221  0.3327
   16SAPS  C218 2070   0.376   6.609   8.013  0.6790  0.9711 -0.8955
   16SAPS  H18R 2071   0.391   6.674   7.923  1.6955 -0.7423 -1.9949
   16SAPS  H18S 2072   0.414   6.673   8.095  0.9776  1.1059 -1.1354
   16SAPS  C219 2073   0.222   6.610   8.029 -0.1806 -0.5177 -0.0634
   16SAPS  H19R 2074   0.195   6.579   8.132 -0.4109  1.0629  0.3703
   16SAPS  H19S 2075   0.163   6.537   7.969  1.2484  0.3092 -2.5391
   16SAPS  C220 2076   0.149   6.748   8.014 -0.6170 -0.0120  0.3196
   16SAPS  H20R 2077   0.184   6.819   8.092 -0.4209  0.7218 -0.4368
   16SAPS  H20S 2078   0.040   6.731   8.029 -1.3503  3.5032 -0.7438
   16SAPS  H20T 2079   0.180   6.785   7.914 -0.9184  0.2463  0.3219
   16SAPS   C33 2080   0.869   6.491   7.308 -0.2951 -0.4385  0.0623
   16SAPS   H3X 2081   0.942   6.444   7.377 -0.5559 -0.4158  0.3498
   16SAPS   H3Y 2082   0.853   6.408   7.235 -0.4598  0.0828 -0.4966
   16SAPS   C34 2083   0.739   6.519   7.380  0.2409 -0.4510  0.5938
   16SAPS   H4X 2084   0.675   6.585   7.318 -0.2385  0.4020  1.9596
   16SAPS   H4Y 2085   0.749   6.577   7.475 -0.8831  0.3389  0.2468
   16SAPS   C35 2086   0.669   6.389   7.425 -0.9580 -0.0563  0.8949
   16SAPS   H5X 2087   0.711   6.356   7.523  2.6450 -0.5228 -0.7123
   16SAPS   H5Y 2088   0.671   6.304   7.353  1.9189  1.2227 -0.6371
   16SAPS   C36 2089   0.517   6.423   7.433  0.0559 -0.4014  0.4919
   16SAPS   H6X 2090   0.451   6.335   7.422  0.5310 -0.4665 -2.1324
   16SAPS   H6Y 2091   0.502   6.493   7.347  0.9749 -2.0067 -1.0106
   16SAPS   C37 2092   0.478   6.508   7.559  0.3241  0.1357  0.3234
   16SAPS   H7X 2093   0.529   6.606   7.570  0.9672 -0.2495  0.8404
   16SAPS   H7Y 2094   0.517   6.443   7.641 -0.0266 -2.3175 -1.3957
   16SAPS   C38 2095   0.323   6.529   7.557 -0.5138 -0.2818  0.3951
   16SAPS   H8X 2096   0.293   6.563   7.455  3.1303 -1.6224 -1.2241
   16SAPS   H8Y 2097   0.315   6.609   7.633  2.3304  0.2214  0.2137
   16SAPS   C39 2098   0.253   6.402   7.597 -0.9030  0.4686 -0.3982
   16SAPS   H9X 2099   0.304   6.364   7.688 -1.5832 -0.9908 -0.6106
   16SAPS   H9Y 2100   0.274   6.331   7.514 -0.2942  0.4094 -0.1967
   16SAPS  C310 2101   0.102   6.404   7.608  0.3173 -0.3295 -0.1204
   16SAPS  H10X 2102   0.081   6.465   7.698  3.3299  1.3171 -0.4569
   16SAPS  H10Y 2103   0.063   6.301   7.623  0.4081 -0.4679 -0.8049
   16SAPS  C311 2104   0.030   6.473   7.488 -0.6988 -0.4630  0.0410
   16SAPS  H11X 2105   0.071   6.451   7.387 -0.0853  0.7607  0.0150
   16SAPS  H11Y 2106   0.040   6.581   7.512  0.5931 -0.4990 -0.2474
   16SAPS  C312 2107  -0.116   6.444   7.499  0.2519  0.4435 -0.1488
   16SAPS  H12X 2108  -0.153   6.452   7.604  0.1914  0.0722 -0.1400
   16SAPS  H12Y 2109  -0.138   6.340   7.469 -1.7527  1.3057 -1.8198
   16SAPS  C313 2110  -0.206   6.538   7.421 -0.7235  0.4365 -0.0967
   16SAPS  H13X 2111  -0.155   6.635   7.402 -1.0680  0.1551 -2.6574
   16SAPS  H13Y 2112  -0.305   6.558   7.467 -0.1319  1.5708  0.7113
   16SAPS  C314 2113  -0.230   6.486   7.277  0.5060  1.1495 -0.1817
   16SAPS  H14X 2114  -0.306   6.545   7.222 -0.6239 -0.2428 -0.1455
   16SAPS  H14Y 2115  -0.285   6.390   7.279  1.6807  0.4196 -1.6888
   16SAPS  C315 2116  -0.106   6.474   7.186  1.0349 -0.0448 -0.0604
   16SAPS  H15X 2117  -0.061   6.385   7.235 -0.3304 -0.4573  0.4534
   16SAPS  H15Y 2118  -0.041   6.563   7.195  0.7253  0.4650 -2.4363
   16SAPS  C316 2119  -0.138   6.450   7.039 -0.0891  0.2217 -0.4587
   16SAPS  H16X 2120  -0.046   6.428   6.981 -1.6658  0.2677 -3.0484
   16SAPS  H16Y 2121  -0.193   6.531   6.987  0.1357  0.2640 -0.6278
   16SAPS  C317 2122  -0.220   6.322   7.016  0.2671  0.1323 -0.0139
   16SAPS  H17X 2123  -0.320   6.310   7.063  0.1733 -2.3302 -0.8151
   16SAPS  H17Y 2124  -0.154   6.243   7.058  0.9925  0.0962 -1.2085
   16SAPS  C318 2125  -0.229   6.279   6.865  0.2327 -0.0321 -0.0133
   16SAPS  H18X 2126  -0.257   6.363   6.798 -1.4295  0.5252  1.3233
   16SAPS  H18Y 2127  -0.313   6.207   6.860 -0.8102  1.3122 -2.4720
   16SAPS  H18Z 2128  -0.138   6.242   6.815 -0.6039  1.0703 -2.4246
   17SAPC     N 2129   4.559   3.512  10.280  0.8085 -0.2004  0.3564
   17SAPC   C12 2130   4.694   3.564  10.244  0.2940  0.0637  0.0736
   17SAPC  H12A 2131   4.725   3.628  10.325 -0.6998  0.8896 -0.1904
   17SAPC  H12B 2132   4.689   3.628  10.157  0.2997  0.0191  0.0398
   17SAPC   C13 2133   4.551   3.458  10.421  0.1213  0.2531  0.4353
   17SAPC  H13A 2134   4.473   3.383  10.426  0.0810  0.2267 -0.5465
   17SAPC  H13B 2135   4.645   3.428  10.465  0.2948  0.3056  0.0945
   17SAPC  H13C 2136   4.520   3.542  10.481  0.1456  0.7197 -0.2061
   17SAPC   C14 2137   4.459   3.621  10.262 -0.5559 -0.3717  0.6814
   17SAPC  H14A 2138   4.483   3.707  10.324 -0.4213  0.2648 -0.2358
   17SAPC  H14B 2139   4.475   3.652  10.159 -0.8524 -0.0067  0.7433
   17SAPC  H14C 2140   4.356   3.592  10.277 -0.5223 -0.3294  0.9965
   17SAPC   C15 2141   4.532   3.395  10.189  0.1002  0.1029 -0.6502
   17SAPC  H15A 2142   4.595   3.321  10.235 -0.5602  0.0920  0.2526
   17SAPC  H15B 2143   4.430   3.359  10.188  0.5137 -1.0667 -2.5264
   17SAPC  H15C 2144   4.561   3.412  10.086 -2.8239 -1.2543 -1.7745
   17SAPC   C11 2145   4.803   3.451  10.222 -0.2650  0.0878 -0.1118
   17SAPC  H11A 2146   4.872   3.499  10.150 -1.9508  0.6917 -1.3426
   17SAPC  H11B 2147   4.768   3.363  10.164  0.0823 -0.8240  1.0356
   17SAPC     P 2148   4.981   3.503  10.403 -0.0774  0.7619 -0.5079
   17SAPC   O13 2149   4.971   3.641  10.353  0.3811 -0.4711 -0.4147
   17SAPC   O14 2150   5.000   3.488  10.549 -0.3341 -0.5994 -0.1240
   17SAPC   O12 2151   4.866   3.413  10.348 -0.0493  0.5104  0.3121
   17SAPC   O11 2152   5.107   3.443  10.335  0.7295  0.0808 -0.0389
   17SAPC    C1 2153   5.123   3.301  10.323 -1.0640  0.1022  0.6084
   17SAPC    HA 2154   5.222   3.273  10.366 -1.4917 -0.6905  1.0846
   17SAPC    HB 2155   5.053   3.236  10.379 -1.6277  0.2925  0.1251
   17SAPC    C2 2156   5.125   3.255  10.173 -0.0474  0.0715  0.0602
   17SAPC    HS 2157   5.019   3.265  10.144 -0.5099  0.4557  1.8203
   17SAPC   O21 2158   5.171   3.119  10.160 -0.4299  0.1500 -0.3852
   17SAPC   C21 2159   5.125   3.059  10.052  0.0687  0.2921  0.2215
   17SAPC   O22 2160   5.021   3.090   9.993 -0.0845  0.1770 -0.2861
   17SAPC   C22 2161   5.214   2.941  10.009  0.4000 -0.4815  0.2502
   17SAPC   H2R 2162   5.308   2.960  10.065  2.1320  3.0051 -3.5848
   17SAPC   H2S 2163   5.172   2.844  10.044  0.4826 -0.2437  1.0112
   17SAPC    C3 2164   5.215   3.346  10.087 -0.3819  0.3808 -0.0763
   17SAPC    HX 2165   5.318   3.310  10.109  0.6021  2.6179 -0.9073
   17SAPC    HY 2166   5.213   3.455  10.108 -0.7047  0.4105 -0.2546
   17SAPC   O31 2167   5.207   3.319   9.943 -0.5799  0.4799  0.4078
   17SAPC   C31 2168   5.103   3.376   9.875  0.4876  0.7412 -0.1809
   17SAPC   O32 2169   5.022   3.450   9.919 -0.3401  0.0059  0.1881
   17SAPC   C32 2170   5.111   3.320   9.731  0.4798  0.1256  1.3960
   17SAPC   H2X 2171   5.128   3.210   9.733 -0.1898 -0.0137  0.0513
   17SAPC   H2Y 2172   5.200   3.371   9.687  0.9406 -0.2038  1.9320
   17SAPC   C23 2173   5.243   2.932   9.864 -0.5502 -0.4036  0.7304
   17SAPC   H3R 2174   5.158   2.976   9.808  1.5028 -1.5266 -3.4694
   17SAPC   H3S 2175   5.264   2.831   9.822  1.1029 -0.3827  1.4591
   17SAPC   C24 2176   5.378   2.999   9.829  0.3540 -0.2669 -0.9951
   17SAPC   H4R 2177   5.381   3.104   9.863  0.4155 -0.3417 -0.7668
   17SAPC   H4S 2178   5.386   3.005   9.719  0.0309  2.8868 -0.8711
   17SAPC   C25 2179   5.503   2.929   9.872  0.4929 -0.0725 -0.6742
   17SAPC   H5R 2180   5.530   2.953   9.976 -0.2028 -0.2514 -0.4461
   17SAPC   C26 2181   5.577   2.830   9.813 -0.1543  0.2108  0.5495
   17SAPC   H6R 2182   5.659   2.777   9.863 -1.4049  0.4318  2.8539
   17SAPC   C27 2183   5.541   2.766   9.676  0.4348  0.3899 -0.2306
   17SAPC   H7R 2184   5.633   2.739   9.620  0.3555 -0.1362 -0.1131
   17SAPC   H7S 2185   5.481   2.843   9.624 -1.6375 -0.2936  1.0890
   17SAPC   C28 2186   5.447   2.644   9.675 -0.6574  0.8227 -0.9341
   17SAPC   H8R 2187   5.350   2.666   9.721 -0.3569  0.3797 -0.0689
   17SAPC   C29 2188   5.465   2.527   9.602  0.1602 -0.0055  0.5642
   17SAPC   H9R 2189   5.392   2.448   9.623 -0.2845  0.1836 -0.2788
   17SAPC  C210 2190   5.571   2.487   9.500  0.5098  0.4587  0.7694
   17SAPC  H10R 2191   5.555   2.382   9.469 -1.0417  1.2033 -1.0595
   17SAPC  H10S 2192   5.673   2.496   9.542  0.6733 -0.6410  0.6186
   17SAPC  C211 2193   5.569   2.576   9.379 -0.2047 -0.1633 -0.3106
   17SAPC  H11R 2194   5.539   2.679   9.406  0.5010 -0.1497  0.4444
   17SAPC  C212 2195   5.589   2.537   9.249  0.5492 -0.5933  0.3789
   17SAPC  H12R 2196   5.576   2.601   9.160  0.7311 -2.1067 -0.7686
   17SAPC  C213 2197   5.630   2.402   9.205  0.2570  0.3036  0.3854
   17SAPC  H13R 2198   5.652   2.327   9.284  0.4810  1.0698  1.0617
   17SAPC  H13S 2199   5.721   2.401   9.141 -1.5163  1.4444 -2.2663
   17SAPC  C214 2200   5.511   2.343   9.127  0.1837  0.9983 -0.4581
   17SAPC  H14R 2201   5.435   2.297   9.191 -0.3558 -0.2025 -1.9138
   17SAPC  C215 2202   5.494   2.344   8.995  0.8230 -0.3208  0.1434
   17SAPC  H15R 2203   5.412   2.284   8.953  0.4455 -0.7880  1.5006
   17SAPC  C216 2204   5.582   2.419   8.897 -0.1747 -0.1067  0.1552
   17SAPC  H16R 2205   5.661   2.481   8.944  0.2152  0.5128 -1.3057
   17SAPC  H16S 2206   5.516   2.477   8.829  2.8172  0.7388 -2.1233
   17SAPC  C217 2207   5.658   2.321   8.813  0.5921  0.0320  0.1957
   17SAPC  H17R 2208   5.590   2.262   8.749  1.2052 -0.3702 -0.0830
   17SAPC  H17S 2209   5.709   2.254   8.886 -0.1445  1.4070  2.0299
   17SAPC  C218 2210   5.764   2.395   8.727 -0.1252  0.6142 -0.4978
   17SAPC  H18R 2211   5.835   2.448   8.794 -1.3589 -0.0415  1.3435
   17SAPC  H18S 2212   5.723   2.472   8.658  0.9037  0.5293 -1.2223
   17SAPC  C219 2213   5.837   2.301   8.623  0.4384  0.3390  0.3214
   17SAPC  H19R 2214   5.868   2.215   8.687  1.2498  2.4905  2.8924
   17SAPC  H19S 2215   5.922   2.350   8.570 -0.6027  0.5887 -1.1468
   17SAPC  C220 2216   5.741   2.265   8.507 -0.1041 -0.3311  0.2503
   17SAPC  H20R 2217   5.794   2.176   8.467 -0.5728  0.4729 -2.2634
   17SAPC  H20S 2218   5.737   2.338   8.423  0.6466  0.1460  0.6281
   17SAPC  H20T 2219   5.639   2.231   8.536 -0.6106  2.0773  1.4297
   17SAPC   C33 2220   4.983   3.342   9.656 -0.8292  0.2146 -0.0920
   17SAPC   H3X 2221   4.946   3.447   9.655 -2.0653 -0.2134 -1.1274
   17SAPC   H3Y 2222   4.900   3.286   9.704 -0.8630  1.1378  0.9572
   17SAPC   C34 2223   4.993   3.295   9.508 -0.0084  0.1130  0.1012
   17SAPC   H4X 2224   4.896   3.319   9.461  0.8876  2.8444 -0.4475
   17SAPC   H4Y 2225   5.009   3.185   9.513  0.2492  0.1840  1.1566
   17SAPC   C35 2226   5.111   3.356   9.432  0.4586 -0.7427  0.0599
   17SAPC   H5X 2227   5.208   3.315   9.469 -0.3277 -1.1846  1.6876
   17SAPC   H5Y 2228   5.098   3.466   9.424  1.3807 -0.7336 -1.6207
   17SAPC   C36 2229   5.121   3.313   9.289 -0.2231 -0.5132  0.1229
   17SAPC   H6X 2230   5.105   3.204   9.285 -1.4789 -0.2924 -1.4373
   17SAPC   H6Y 2231   5.221   3.345   9.252  0.2757  0.6190  2.3224
   17SAPC   C37 2232   5.010   3.380   9.202 -0.0141 -0.7159 -0.3432
   17SAPC   H7X 2233   5.025   3.490   9.199  0.0175 -0.6852  0.7642
   17SAPC   H7Y 2234   4.909   3.350   9.236 -0.7947 -0.0901 -2.0834
   17SAPC   C38 2235   5.015   3.330   9.059 -0.2425 -0.2004  0.2583
   17SAPC   H8X 2236   4.999   3.220   9.062 -1.6035  0.0252  1.9611
   17SAPC   H8Y 2237   5.120   3.349   9.029  0.4332 -1.0560  2.0739
   17SAPC   C39 2238   4.919   3.402   8.964  0.1693 -0.2540 -0.2520
   17SAPC   H9X 2239   4.905   3.506   9.001 -3.5579 -1.2658  1.4878
   17SAPC   H9Y 2240   4.828   3.338   8.973  0.4686 -0.6432  0.0203
   17SAPC  C310 2241   4.968   3.391   8.821 -0.2799 -0.1321  0.3205
   17SAPC  H10X 2242   5.021   3.294   8.808  1.2194  0.8333 -0.9603
   17SAPC  H10Y 2243   5.044   3.467   8.793 -0.0697 -0.8385 -1.0965
   17SAPC  C311 2244   4.856   3.420   8.721  0.5732  0.3920  0.8448
   17SAPC  H11X 2245   4.809   3.519   8.741 -0.6677 -0.1359  0.5622
   17SAPC  H11Y 2246   4.796   3.328   8.727  1.5554 -0.1367  3.0036
   17SAPC  C312 2247   4.903   3.436   8.578  0.1776  0.2540  0.2413
   17SAPC  H12X 2248   4.968   3.524   8.561  0.1956  0.1898 -0.0236
   17SAPC  H12Y 2249   4.817   3.477   8.522 -0.2776  0.1319  0.8501
   17SAPC  C313 2250   4.952   3.303   8.515 -0.3828  0.5191  1.2520
   17SAPC  H13X 2251   4.861   3.241   8.502  0.2059 -0.0746 -0.2003
   17SAPC  H13Y 2252   5.026   3.257   8.583  1.3333  2.6746  0.9296
   17SAPC  C314 2253   5.032   3.339   8.390 -0.9003  0.7931  0.1096
   17SAPC  H14X 2254   5.113   3.412   8.411  0.5250 -0.2621 -1.6399
   17SAPC  H14Y 2255   4.968   3.392   8.316 -0.3850  2.6068  0.9194
   17SAPC  C315 2256   5.097   3.223   8.316  0.2370 -0.6453  0.3858
   17SAPC  H15X 2257   5.013   3.154   8.295  0.5786 -1.2709  1.0291
   17SAPC  H15Y 2258   5.165   3.182   8.393 -1.6305  0.5818  2.7543
   17SAPC  C316 2259   5.180   3.249   8.190 -0.7667 -0.3726 -0.2280
   17SAPC  H16X 2260   5.258   3.317   8.231 -1.8530  2.4143 -2.5769
   17SAPC  H16Y 2261   5.120   3.298   8.110 -1.2022  0.1263  0.4004
   17SAPC  C317 2262   5.248   3.124   8.130  0.2673 -0.6260  0.1370
   17SAPC  H17X 2263   5.319   3.150   8.048 -0.4037 -0.4147 -0.3796
   17SAPC  H17Y 2264   5.168   3.062   8.085  0.7315 -0.3324 -1.1317
   17SAPC  C318 2265   5.330   3.040   8.233  0.0141  0.5027  0.0196
   17SAPC  H18X 2266   5.407   2.972   8.192  0.9156  2.3604 -1.4093
   17SAPC  H18Y 2267   5.376   3.117   8.298 -1.1682  0.5695  0.8127
   17SAPC  H18Z 2268   5.265   2.983   8.303 -1.5230  1.6473 -0.4531
   18SAPC     N 2269   5.314   3.033  10.668  0.4223 -0.5052 -0.7719
   18SAPC   C12 2270   5.202   2.949  10.614  0.2727  0.9201 -0.1183
   18SAPC  H12A 2271   5.104   2.984  10.644  0.0445  0.4981 -0.3580
   18SAPC  H12B 2272   5.192   2.852  10.661  0.1855  2.0596  2.2843
   18SAPC   C13 2273   5.310   3.176  10.616  0.4504 -0.3174  0.1912
   18SAPC  H13A 2274   5.360   3.244  10.684 -0.0863  0.3630 -0.0861
   18SAPC  H13B 2275   5.357   3.186  10.520  0.3674  1.1896  0.2938
   18SAPC  H13C 2276   5.205   3.203  10.606 -0.5567 -4.1537 -0.2184
   18SAPC   C14 2277   5.293   3.043  10.822 -0.3448  0.8813  0.3941
   18SAPC  H14A 2278   5.278   2.940  10.853 -0.0031  0.6992 -0.0354
   18SAPC  H14B 2279   5.390   3.065  10.863  0.1679 -0.3566 -0.1218
   18SAPC  H14C 2280   5.215   3.114  10.843 -0.6580  0.6020  0.1895
   18SAPC   C15 2281   5.448   2.979  10.627 -0.1075  0.4418 -0.1407
   18SAPC  H15A 2282   5.465   2.878  10.661  0.9961  0.7866  0.3409
   18SAPC  H15B 2283   5.447   2.973  10.519  3.4665  1.0335 -0.2499
   18SAPC  H15C 2284   5.532   3.039  10.656  1.1347 -1.0313 -0.5785
   18SAPC   C11 2285   5.204   2.923  10.463  0.1389 -0.0168 -0.1212
   18SAPC  H11A 2286   5.210   3.021  10.411  0.5693 -1.3728 -2.7097
   18SAPC  H11B 2287   5.107   2.873  10.440  0.3142  1.0528 -3.3982
   18SAPC     P 2288   5.338   2.694  10.473  0.1400 -0.3599 -0.0529
   18SAPC   O13 2289   5.474   2.668  10.526 -0.2935 -0.1171 -0.0355
   18SAPC   O14 2290   5.220   2.660  10.565  0.1570  0.0713  0.3682
   18SAPC   O12 2291   5.320   2.847  10.423 -0.3982  0.1156 -0.2455
   18SAPC   O11 2292   5.323   2.614  10.333 -0.3007 -0.4735 -0.1716
   18SAPC    C1 2293   5.346   2.689  10.212 -0.0016  0.0539  0.0171
   18SAPC    HA 2294   5.247   2.736  10.195  0.4378  0.5429 -1.3082
   18SAPC    HB 2295   5.427   2.764  10.218 -0.3329  0.3892  0.2777
   18SAPC    C2 2296   5.379   2.600  10.093 -0.1517 -0.1437  0.4659
   18SAPC    HS 2297   5.378   2.660   9.999 -1.0945 -0.1939  0.4411
   18SAPC   O21 2298   5.296   2.488  10.084 -0.0113 -0.0283  0.4434
   18SAPC   C21 2299   5.167   2.487  10.120 -0.5165 -0.1785 -0.0245
   18SAPC   O22 2300   5.093   2.581  10.131  0.5025  0.1608  0.4994
   18SAPC   C22 2301   5.131   2.348  10.176 -0.5274 -0.4485 -0.8139
   18SAPC   H2R 2302   5.193   2.335  10.267 -0.3061  0.7298 -0.7967
   18SAPC   H2S 2303   5.029   2.352  10.221  0.7948  1.0877  2.1684
   18SAPC    C3 2304   5.528   2.542  10.107 -0.6525 -0.6830  0.0076
   18SAPC    HX 2305   5.548   2.486  10.201  6.8371  1.9506  0.3107
   18SAPC    HY 2306   5.597   2.626  10.128 -0.7713 -0.4539 -0.5077
   18SAPC   O31 2307   5.564   2.473   9.984  0.1973  0.0953  0.1424
   18SAPC   C31 2308   5.554   2.338   9.987 -0.0089 -0.5220  0.0431
   18SAPC   O32 2309   5.504   2.277  10.082  0.0806 -0.4053 -0.2329
   18SAPC   C32 2310   5.611   2.282   9.863 -0.2818 -0.7088 -0.3504
   18SAPC   H2X 2311   5.720   2.262   9.864  0.3580  2.3971 -1.5472
   18SAPC   H2Y 2312   5.604   2.361   9.785 -0.4415  1.6502  1.9809
   18SAPC   C23 2313   5.163   2.236  10.077  0.7655 -0.6242 -0.3976
   18SAPC   H3R 2314   5.161   2.138  10.129 -1.3796  0.5949  1.9483
   18SAPC   H3S 2315   5.262   2.260  10.032  1.3026 -0.1127  1.0216
   18SAPC   C24 2316   5.054   2.240   9.969  0.1355 -0.5718 -0.0458
   18SAPC   H4R 2317   5.047   2.340   9.922  0.2637 -0.6664 -0.2693
   18SAPC   H4S 2318   4.953   2.223  10.012  0.1860 -1.1851 -0.1642
   18SAPC   C25 2319   5.074   2.126   9.870 -0.3353  0.1335 -0.0589
   18SAPC   H5R 2320   5.055   2.032   9.923  0.0252 -0.8253 -1.5890
   18SAPC   C26 2321   5.105   2.124   9.740 -0.0775  0.1146 -0.6264
   18SAPC   H6R 2322   5.097   2.031   9.682 -1.5947  0.3200 -0.7492
   18SAPC   C27 2323   5.123   2.242   9.648  0.0599 -0.3876  0.0081
   18SAPC   H7R 2324   5.222   2.240   9.598  0.2993  1.1125  0.3952
   18SAPC   H7S 2325   5.132   2.340   9.698 -1.6619  0.0144 -0.4204
   18SAPC   C28 2326   5.005   2.261   9.554  0.1706  0.1641 -0.0593
   18SAPC   H8R 2327   4.909   2.221   9.592  1.0919 -2.7337 -0.6423
   18SAPC   C29 2328   5.011   2.308   9.427 -0.1112 -0.9088  0.6950
   18SAPC   H9R 2329   4.919   2.315   9.367  0.0443  0.0197  0.5550
   18SAPC  C210 2330   5.139   2.360   9.363  0.1570  0.0851  0.1041
   18SAPC  H10R 2331   5.223   2.288   9.378  0.3148  0.3197  0.3402
   18SAPC  H10S 2332   5.168   2.456   9.410 -0.5147 -0.1244  0.9513
   18SAPC  C211 2333   5.135   2.389   9.211 -0.0522  0.0742  0.7272
   18SAPC  H11R 2334   5.163   2.494   9.194  1.6017 -0.2389  1.4813
   18SAPC  C212 2335   5.129   2.301   9.111  0.3212  0.8668  0.0519
   18SAPC  H12R 2336   5.123   2.339   9.008  0.6141  0.6086 -0.0611
   18SAPC  C213 2337   5.114   2.156   9.114 -0.0058  0.3951  0.3255
   18SAPC  H13R 2338   5.063   2.115   9.204 -0.7118  0.7254  0.0761
   18SAPC  H13S 2339   5.207   2.095   9.119  0.3966  0.8997 -0.9062
   18SAPC  C214 2340   5.032   2.103   8.996  0.2346 -0.2173 -0.3407
   18SAPC  H14R 2341   4.947   2.170   8.975 -0.0794  0.4026  2.6566
   18SAPC  C215 2342   5.046   1.990   8.927  0.3857  0.0231  0.3597
   18SAPC  H15R 2343   4.982   1.983   8.838  0.9687  0.0889 -0.0732
   18SAPC  C216 2344   5.162   1.890   8.930 -0.1294 -0.3286 -0.3878
   18SAPC  H16R 2345   5.240   1.904   9.009 -1.2906  2.3830  0.3415
   18SAPC  H16S 2346   5.223   1.898   8.838 -2.4206 -1.8248 -2.0789
   18SAPC  C217 2347   5.113   1.742   8.930 -0.3569  0.0214  0.7684
   18SAPC  H17R 2348   5.070   1.723   9.031  0.3675  1.6182  1.3894
   18SAPC  H17S 2349   5.188   1.663   8.911 -1.6942 -1.7805  2.7843
   18SAPC  C218 2350   4.994   1.712   8.833 -0.7203  0.7349  0.0472
   18SAPC  H18R 2351   5.026   1.746   8.733 -0.6366 -0.9366 -0.4993
   18SAPC  H18S 2352   4.911   1.771   8.879  1.1270  1.5508  2.4525
   18SAPC  C219 2353   4.957   1.560   8.833 -0.3642 -0.3465  0.2785
   18SAPC  H19R 2354   5.033   1.497   8.782  0.1022 -2.7001  3.6967
   18SAPC  H19S 2355   4.858   1.560   8.783 -0.4572  2.5747  0.3806
   18SAPC  C220 2356   4.938   1.494   8.971 -0.7392 -0.4122 -0.5661
   18SAPC  H20R 2357   5.041   1.491   9.013 -0.5153  0.6500 -1.0073
   18SAPC  H20S 2358   4.893   1.393   8.961 -3.3558  0.7293 -0.7427
   18SAPC  H20T 2359   4.875   1.564   9.030  2.0948  1.2417  0.5973
   18SAPC   C33 2360   5.534   2.156   9.818 -0.7004 -0.2074 -0.2469
   18SAPC   H3X 2361   5.425   2.175   9.811 -0.6734  0.2224  0.4020
   18SAPC   H3Y 2362   5.549   2.064   9.878 -2.2604 -1.0166 -1.0682
   18SAPC   C34 2363   5.576   2.111   9.683 -0.0569  0.3349  0.2425
   18SAPC   H4X 2364   5.681   2.074   9.677 -0.4265 -1.1051  2.0301
   18SAPC   H4Y 2365   5.573   2.201   9.618 -0.4221  0.4574  0.4294
   18SAPC   C35 2366   5.487   1.996   9.631  0.4119  0.0056  0.1081
   18SAPC   H5X 2367   5.380   2.023   9.645 -0.2984 -1.6896 -1.7866
   18SAPC   H5Y 2368   5.503   1.904   9.692  0.9987  1.0459  1.5403
   18SAPC   C36 2369   5.514   1.975   9.483  0.0316 -0.8557  0.3304
   18SAPC   H6X 2370   5.614   1.928   9.473  0.3220 -0.5273  1.5598
   18SAPC   H6Y 2371   5.525   2.077   9.440 -1.3083  0.0601  2.0731
   18SAPC   C37 2372   5.412   1.896   9.397  0.2434  0.3840 -0.4196
   18SAPC   H7X 2373   5.345   1.971   9.351 -0.5486  0.6552  1.1520
   18SAPC   H7Y 2374   5.346   1.826   9.452  0.8958 -1.9998 -2.5625
   18SAPC   C38 2375   5.477   1.830   9.273 -0.3940 -0.5426  0.1773
   18SAPC   H8X 2376   5.406   1.769   9.213  0.9130 -1.5833 -0.3433
   18SAPC   H8Y 2377   5.567   1.768   9.291 -1.0744 -2.8707 -3.7973
   18SAPC   C39 2378   5.519   1.944   9.169  0.0767 -0.5162 -0.5529
   18SAPC   H9X 2379   5.602   1.998   9.219 -0.7520  3.1290 -2.8931
   18SAPC   H9Y 2380   5.446   2.024   9.145  1.8575  1.8571  1.6637
   18SAPC  C310 2381   5.578   1.884   9.037 -0.3516  0.2842  0.4777
   18SAPC  H10X 2382   5.489   1.829   8.999  0.1907 -0.6652  0.5869
   18SAPC  H10Y 2383   5.661   1.814   9.058 -0.3316  0.9083  2.5827
   18SAPC  C311 2384   5.623   1.983   8.938 -0.3490 -0.2927  0.9786
   18SAPC  H11X 2385   5.723   2.025   8.962  0.0916 -0.5892 -0.2944
   18SAPC  H11Y 2386   5.558   2.074   8.934  2.1355  1.5438  1.1994
   18SAPC  C312 2387   5.632   1.926   8.791  0.2523  0.0990  0.1028
   18SAPC  H12X 2388   5.679   1.826   8.804 -0.5855 -0.3236 -0.0476
   18SAPC  H12Y 2389   5.705   1.975   8.724  1.3498  0.7442  1.7239
   18SAPC  C313 2390   5.484   1.893   8.730  0.4568  0.0817  0.7244
   18SAPC  H13X 2391   5.433   1.984   8.691  0.4854 -0.3101 -0.2363
   18SAPC  H13Y 2392   5.425   1.843   8.810 -0.6623  1.7676  0.9736
   18SAPC  C314 2393   5.489   1.805   8.604  0.0058  0.1263 -0.6020
   18SAPC  H14X 2394   5.381   1.808   8.580 -0.0834 -0.8390 -0.3259
   18SAPC  H14Y 2395   5.512   1.697   8.617 -2.3332  0.1016  4.0265
   18SAPC  C315 2396   5.574   1.865   8.484 -0.1795  0.4099 -0.1198
   18SAPC  H15X 2397   5.679   1.865   8.522 -0.0672  2.5355 -0.4056
   18SAPC  H15Y 2398   5.534   1.966   8.462  1.0460  0.5529 -1.8105
   18SAPC  C316 2399   5.565   1.784   8.353 -0.0150  0.6026  0.4619
   18SAPC  H16X 2400   5.456   1.769   8.338  0.4429 -0.9534 -1.6808
   18SAPC  H16Y 2401   5.613   1.684   8.359  0.5422  0.7901 -0.7109
   18SAPC  C317 2402   5.616   1.870   8.240  0.0687 -0.3269  0.2622
   18SAPC  H17X 2403   5.552   1.961   8.239 -0.3397 -0.5321  3.0576
   18SAPC  H17Y 2404   5.587   1.822   8.144 -2.1379 -0.8244  1.1390
   18SAPC  C318 2405   5.767   1.894   8.231 -0.2814 -0.3092  0.0870
   18SAPC  H18X 2406   5.799   1.943   8.326 -0.0011 -0.4525  0.0645
   18SAPC  H18Y 2407   5.788   1.948   8.136  0.6835 -1.5543 -0.4183
   18SAPC  H18Z 2408   5.813   1.795   8.213 -1.6337 -0.5945 -2.0765
   19SAPC     N 2409   4.975   3.895  10.591 -0.2291  0.3846 -0.8889
   19SAPC   C12 2410   4.856   3.827  10.535 -0.8951  0.0249  0.5828
   19SAPC  H12A 2411   4.887   3.728  10.505  1.4805  0.5339  1.2678
   19SAPC  H12B 2412   4.820   3.885  10.451  0.2666  1.0878  0.8089
   19SAPC   C13 2413   4.943   4.042  10.617 -0.1735 -0.0168  0.3901
   19SAPC  H13A 2414   5.033   4.090  10.652 -0.1960 -0.7205  1.4774
   19SAPC  H13B 2415   4.910   4.095  10.529  0.0013  0.2802  0.5041
   19SAPC  H13C 2416   4.870   4.056  10.696  1.5389  1.9547  1.6776
   19SAPC   C14 2417   5.009   3.829  10.722 -0.2065  0.5310 -0.1629
   19SAPC  H14A 2418   4.919   3.826  10.781 -0.7397 -2.5222 -1.0360
   19SAPC  H14B 2419   5.027   3.723  10.718 -0.4910  0.5324 -2.1162
   19SAPC  H14C 2420   5.090   3.884  10.766  1.1742  1.4917 -3.6965
   19SAPC   C15 2421   5.093   3.889  10.498  0.2930  0.2335  0.0050
   19SAPC  H15A 2422   5.114   3.785  10.476  1.0264  0.3043  0.3762
   19SAPC  H15B 2423   5.067   3.945  10.409 -0.0306  0.8577  0.4889
   19SAPC  H15C 2424   5.183   3.923  10.547  0.9594  0.5616 -1.3952
   19SAPC   C11 2425   4.735   3.802  10.625 -0.9027 -0.2279  0.5265
   19SAPC  H11A 2426   4.759   3.738  10.713 -1.3492 -0.0545  0.7757
   19SAPC  H11B 2427   4.665   3.738  10.567  0.2039  0.0834 -1.1749
   19SAPC     P 2428   4.560   3.992  10.549 -0.0898  0.0894  0.1170
   19SAPC   O13 2429   4.458   3.893  10.510 -0.2389 -0.4946 -0.2948
   19SAPC   O14 2430   4.518   4.121  10.599 -0.2371  0.1352 -0.0588
   19SAPC   O12 2431   4.666   3.927  10.656  0.5247  0.2991 -0.6271
   19SAPC   O11 2432   4.643   4.006  10.422 -0.3214 -0.1130  0.0904
   19SAPC    C1 2433   4.685   4.130  10.373 -0.7679 -0.1106  0.2638
   19SAPC    HA 2434   4.721   4.205  10.447 -0.7912  2.0531 -1.8515
   19SAPC    HB 2435   4.774   4.122  10.306  1.7936  4.0014  2.9482
   19SAPC    C2 2436   4.566   4.203  10.296  0.4242 -0.6619 -0.8443
   19SAPC    HS 2437   4.479   4.215  10.364  1.6826  1.0124  0.5073
   19SAPC   O21 2438   4.530   4.116  10.184  0.4435  0.4996 -0.1732
   19SAPC   C21 2439   4.404   4.118  10.146 -0.0626  0.8736 -0.6444
   19SAPC   O22 2440   4.317   4.176  10.207 -0.6566  0.2397  0.0564
   19SAPC   C22 2441   4.386   4.041  10.020 -0.3363 -0.0969 -0.1138
   19SAPC   H2R 2442   4.485   4.034   9.970  0.0080  1.6263  0.2761
   19SAPC   H2S 2443   4.352   3.942  10.056 -0.4949 -0.7087 -1.8862
   19SAPC    C3 2444   4.614   4.344  10.252  0.1706 -0.3149  0.0756
   19SAPC    HX 2445   4.703   4.334  10.187  0.1346 -1.1361  0.1499
   19SAPC    HY 2446   4.636   4.401  10.345 -2.1209  1.6520 -0.5363
   19SAPC   O31 2447   4.504   4.402  10.182  0.3161 -0.5502  0.2132
   19SAPC   C31 2448   4.537   4.526  10.147 -0.4886  0.1214 -0.2944
   19SAPC   O32 2449   4.639   4.582  10.183 -0.0520  0.3641  0.2371
   19SAPC   C32 2450   4.432   4.589  10.058  0.2684  0.0307 -0.3647
   19SAPC   H2X 2451   4.377   4.658  10.126  1.4548  0.1638  0.4728
   19SAPC   H2Y 2452   4.369   4.503  10.027 -0.7701  0.8962 -0.6635
   19SAPC   C23 2453   4.279   4.103   9.927 -0.4067 -0.3653 -0.0718
   19SAPC   H3R 2454   4.299   4.211   9.908 -1.3266 -0.2538 -0.3958
   19SAPC   H3S 2455   4.179   4.100   9.975  0.4263  0.3015  1.7433
   19SAPC   C24 2456   4.294   4.030   9.794 -0.7473  0.9063  0.1146
   19SAPC   H4R 2457   4.264   3.924   9.810 -1.1571  1.4365  3.2783
   19SAPC   H4S 2458   4.397   4.046   9.754  0.4020 -2.4866  1.5096
   19SAPC   C25 2459   4.197   4.093   9.697 -0.0653  0.0199  0.0838
   19SAPC   H5R 2460   4.109   4.127   9.752  0.5338  0.6335  0.6749
   19SAPC   C26 2461   4.207   4.125   9.571 -0.3128  0.1138  0.4003
   19SAPC   H6R 2462   4.115   4.165   9.525 -1.0606 -2.5264 -0.5349
   19SAPC   C27 2463   4.330   4.109   9.477 -0.1647  0.0027  0.7722
   19SAPC   H7R 2464   4.417   4.081   9.539  0.4799  0.4850  0.0880
   19SAPC   H7S 2465   4.356   4.214   9.451  0.8111 -0.3615  0.2658
   19SAPC   C28 2466   4.312   4.017   9.361 -0.6540 -0.0364 -1.6510
   19SAPC   H8R 2467   4.293   3.913   9.390  1.8864 -0.2621 -0.7083
   19SAPC   C29 2468   4.328   4.044   9.231 -0.1697  0.7012 -0.2792
   19SAPC   H9R 2469   4.301   3.970   9.154  1.6025  0.0148 -0.2543
   19SAPC  C210 2470   4.360   4.188   9.179 -0.9323  0.3596  0.6779
   19SAPC  H10R 2471   4.425   4.237   9.255  0.0986 -1.3338  0.9204
   19SAPC  H10S 2472   4.267   4.249   9.176 -2.1218 -1.4961 -1.4103
   19SAPC  C211 2473   4.432   4.182   9.046  0.6855  0.0456 -1.2584
   19SAPC  H11R 2474   4.540   4.166   9.042  0.2336 -3.1204 -2.3642
   19SAPC  C212 2475   4.374   4.185   8.928  0.2797 -0.2657  0.1963
   19SAPC  H12R 2476   4.439   4.165   8.842 -1.6628  1.2568 -1.7086
   19SAPC  C213 2477   4.227   4.195   8.887  0.5738 -0.6908  0.2346
   19SAPC  H13R 2478   4.195   4.295   8.923 -0.1827  0.1999 -2.7792
   19SAPC  H13S 2479   4.170   4.124   8.951 -0.9075  1.1150  0.9743
   19SAPC  C214 2480   4.207   4.166   8.744 -0.1891  0.5147  0.1100
   19SAPC  H14R 2481   4.213   4.059   8.721 -1.3625  0.4904 -0.1102
   19SAPC  C215 2482   4.178   4.247   8.635 -0.4823  0.0590  0.1885
   19SAPC  H15R 2483   4.163   4.201   8.537  1.2641 -0.1873  0.0159
   19SAPC  C216 2484   4.161   4.398   8.644 -0.9356  0.3118  0.6411
   19SAPC  H16R 2485   4.129   4.430   8.746  0.4537  3.1256  0.2294
   19SAPC  H16S 2486   4.075   4.428   8.581  1.0203  0.1054 -2.2160
   19SAPC  C217 2487   4.291   4.458   8.596 -0.5715 -0.1806 -0.3524
   19SAPC  H17R 2488   4.346   4.407   8.514  0.2650  0.6679 -0.3306
   19SAPC  H17S 2489   4.357   4.462   8.686 -1.7755  1.8916  0.4740
   19SAPC  C218 2490   4.263   4.606   8.542  0.0315 -0.5539 -0.0434
   19SAPC  H18R 2491   4.183   4.654   8.603  2.0694 -0.2412  2.4434
   19SAPC  H18S 2492   4.222   4.584   8.441  0.9256 -0.5388 -0.4071
   19SAPC  C219 2493   4.389   4.681   8.513 -0.6110 -0.9523 -0.1237
   19SAPC  H19R 2494   4.432   4.713   8.611 -0.8303 -0.9891 -0.0160
   19SAPC  H19S 2495   4.377   4.775   8.454  1.1495 -1.0210 -0.6317
   19SAPC  C220 2496   4.490   4.605   8.425 -0.3161 -0.0840  0.9662
   19SAPC  H20R 2497   4.441   4.588   8.326  1.0003  1.1000  0.0860
   19SAPC  H20S 2498   4.539   4.516   8.470 -0.4641 -0.2431  0.8142
   19SAPC  H20T 2499   4.582   4.665   8.410 -0.6215  0.9654  3.2420
   19SAPC   C33 2500   4.483   4.663   9.929  0.1073 -0.2927 -0.8090
   19SAPC   H3X 2501   4.549   4.744   9.966  0.3202 -0.1483 -1.4981
   19SAPC   H3Y 2502   4.402   4.721   9.882 -2.1763 -1.8275  1.1229
   19SAPC   C34 2503   4.553   4.562   9.833  0.1273  0.3999  0.3675
   19SAPC   H4X 2504   4.496   4.466   9.841 -0.3062  0.5319 -1.1161
   19SAPC   H4Y 2505   4.652   4.532   9.873 -0.7597 -0.5104  1.9552
   19SAPC   C35 2506   4.550   4.620   9.689 -0.1238  0.0730 -0.9283
   19SAPC   H5X 2507   4.619   4.707   9.690  0.4573 -0.3848  0.7659
   19SAPC   H5Y 2508   4.447   4.655   9.666 -1.2100 -1.4576  1.4395
   19SAPC   C36 2509   4.594   4.505   9.588 -0.0814  0.3303 -0.3736
   19SAPC   H6X 2510   4.510   4.433   9.590 -2.7175  3.2426 -0.8951
   19SAPC   H6Y 2511   4.686   4.451   9.618 -1.6951 -1.6438  1.1015
   19SAPC   C37 2512   4.612   4.572   9.448  1.1443  0.3436  0.5781
   19SAPC   H7X 2513   4.716   4.611   9.440  1.2112  0.0646  0.1101
   19SAPC   H7Y 2514   4.560   4.670   9.446 -0.3791 -0.4635  0.2617
   19SAPC   C38 2515   4.577   4.487   9.318 -0.4723 -0.1661 -0.5793
   19SAPC   H8X 2516   4.473   4.450   9.308 -0.3285 -0.1049 -2.5217
   19SAPC   H8Y 2517   4.641   4.398   9.333 -2.9048 -1.4243  2.5926
   19SAPC   C39 2518   4.624   4.560   9.179  0.2644 -0.0212  0.5601
   19SAPC   H9X 2519   4.730   4.589   9.190  0.2451 -0.2301  1.3355
   19SAPC   H9Y 2520   4.562   4.649   9.154 -1.2668 -1.4269 -0.8786
   19SAPC  C310 2521   4.614   4.470   9.059  0.5629 -0.5080  0.8214
   19SAPC  H10X 2522   4.508   4.445   9.037  0.4373  2.6303 -2.5825
   19SAPC  H10Y 2523   4.661   4.371   9.077  0.8171 -0.7874 -1.2387
   19SAPC  C311 2524   4.673   4.521   8.931 -0.6825  0.2179 -0.0645
   19SAPC  H11X 2525   4.778   4.553   8.944 -0.8994  0.8387  0.1473
   19SAPC  H11Y 2526   4.613   4.605   8.891 -1.1981  0.1317  0.5106
   19SAPC  C312 2527   4.683   4.412   8.819  0.7414 -0.1577 -0.5164
   19SAPC  H12X 2528   4.584   4.371   8.791  1.1368 -2.5053  1.3299
   19SAPC  H12Y 2529   4.733   4.325   8.868 -1.8886 -0.7645  1.1942
   19SAPC  C313 2530   4.775   4.451   8.697  0.1987  0.4303  0.6501
   19SAPC  H13X 2531   4.724   4.544   8.662 -0.1140 -0.1067 -0.3302
   19SAPC  H13Y 2532   4.766   4.378   8.614 -0.8834 -0.2053  1.3143
   19SAPC  C314 2533   4.924   4.458   8.744 -0.0155  0.6480  0.4733
   19SAPC  H14X 2534   4.938   4.508   8.842  0.0569 -1.3409  1.5067
   19SAPC  H14Y 2535   4.968   4.532   8.674 -1.7442 -0.3705 -1.7559
   19SAPC  C315 2536   5.017   4.329   8.743 -0.4541 -0.8634  0.7471
   19SAPC  H15X 2537   4.994   4.285   8.644 -0.3813  1.6375 -0.4288
   19SAPC  H15Y 2538   4.999   4.263   8.830 -1.3825 -1.3817  0.1773
   19SAPC  C316 2539   5.168   4.359   8.755  0.4285 -0.6273 -0.4862
   19SAPC  H16X 2540   5.200   4.395   8.855  0.2084 -0.2210 -0.5596
   19SAPC  H16Y 2541   5.199   4.438   8.684 -0.3547  0.1281  0.0058
   19SAPC  C317 2542   5.247   4.229   8.733  0.0513 -0.9036  0.1922
   19SAPC  H17X 2543   5.213   4.202   8.630  0.1957  0.3991 -0.2028
   19SAPC  H17Y 2544   5.228   4.154   8.812  1.4986 -1.8223 -0.3001
   19SAPC  C318 2545   5.397   4.260   8.726  0.6069  0.0418  0.3557
   19SAPC  H18X 2546   5.437   4.331   8.802  0.6239  0.1309  0.2633
   19SAPC  H18Y 2547   5.424   4.321   8.637 -0.3376 -0.5447 -0.3378
   19SAPC  H18Z 2548   5.463   4.171   8.725 -1.2330 -1.3502  0.8379
   20SAPC     N 2549   5.061   2.056  10.935  0.0987  0.1190  0.3904
   20SAPC   C12 2550   5.063   1.914  10.889  0.1965  0.4151  0.4708
   20SAPC  H12A 2551   5.160   1.886  10.852 -0.8250 -3.3182  0.4257
   20SAPC  H12B 2552   5.001   1.902  10.801  0.2275  1.7220  0.2592
   20SAPC   C13 2553   5.104   2.147  10.825  0.1277 -0.2155  0.0280
   20SAPC  H13A 2554   5.209   2.132  10.805  0.8774  2.0253  1.9618
   20SAPC  H13B 2555   5.042   2.141  10.738 -2.7241 -0.6187  2.0394
   20SAPC  H13C 2556   5.099   2.250  10.857  0.1306 -0.0766 -0.4152
   20SAPC   C14 2557   4.924   2.103  10.986  0.1527 -0.5124  0.0096
   20SAPC  H14A 2558   4.848   2.086  10.911  2.1927 -1.3998 -1.9116
   20SAPC  H14B 2559   4.888   2.032  11.059  1.2169 -0.5488  0.5094
   20SAPC  H14C 2560   4.929   2.205  11.022 -0.9743  0.6750 -3.0417
   20SAPC   C15 2561   5.153   2.063  11.052  0.0740 -0.3725 -0.9635
   20SAPC  H15A 2562   5.169   2.166  11.081 -1.1647 -0.4141 -0.0830
   20SAPC  H15B 2563   5.110   2.007  11.134 -0.4821  2.0723  0.4902
   20SAPC  H15C 2564   5.255   2.034  11.031  0.9937  0.6221  1.7905
   20SAPC   C11 2565   5.023   1.809  10.991  0.1872 -0.0517 -0.0997
   20SAPC  H11A 2566   5.081   1.803  11.085 -2.1584  0.5009  1.4367
   20SAPC  H11B 2567   5.038   1.709  10.945  0.2484  0.1560 -0.5380
   20SAPC     P 2568   4.764   1.779  10.958  0.1746  0.0724  0.2246
   20SAPC   O13 2569   4.727   1.654  11.016 -0.1185 -0.1520  0.3870
   20SAPC   O14 2570   4.667   1.892  10.944  0.8910  0.1217 -0.0602
   20SAPC   O12 2571   4.891   1.831  11.035  0.4718 -0.0153 -0.4218
   20SAPC   O11 2572   4.825   1.749  10.812  0.0143 -0.1321 -0.0273
   20SAPC    C1 2573   4.791   1.627  10.747 -1.0639 -0.0938  0.8517
   20SAPC    HA 2574   4.826   1.542  10.810  2.4203  0.4600 -0.2164
   20SAPC    HB 2575   4.681   1.625  10.730 -0.9306 -1.1431  0.0148
   20SAPC    C2 2576   4.854   1.610  10.607  0.0402 -0.2462 -0.5382
   20SAPC    HS 2577   4.964   1.596  10.614  0.0883  0.9367  1.6480
   20SAPC   O21 2578   4.817   1.726  10.529 -0.1913  0.5272 -0.1371
   20SAPC   C21 2579   4.904   1.833  10.525  0.1904  0.6631  0.2263
   20SAPC   O22 2580   5.010   1.843  10.591  0.0540  0.2961  0.2151
   20SAPC   C22 2581   4.855   1.936  10.418  0.2318 -0.3990 -0.4322
   20SAPC   H2R 2582   4.762   1.907  10.363  0.0324 -0.6501  0.0360
   20SAPC   H2S 2583   4.839   2.028  10.479  2.0512  0.1976 -0.8344
   20SAPC    C3 2584   4.798   1.488  10.532  0.0908 -0.5152  0.1179
   20SAPC    HX 2585   4.855   1.490  10.437  0.0911  2.0242  0.1384
   20SAPC    HY 2586   4.690   1.504  10.510  0.0828 -1.4357 -0.5338
   20SAPC   O31 2587   4.827   1.371  10.610  0.0702  0.0764 -0.0591
   20SAPC   C31 2588   4.727   1.294  10.652  0.7778  0.4455 -0.2609
   20SAPC   O32 2589   4.609   1.305  10.632  0.4494  0.3095 -0.6866
   20SAPC   C32 2590   4.779   1.181  10.737  0.4875  0.4488 -0.2191
   20SAPC   H2X 2591   4.703   1.102  10.755  2.1151 -1.4180 -1.3412
   20SAPC   H2Y 2592   4.814   1.218  10.836 -0.8350  2.1200 -0.3560
   20SAPC   C23 2593   4.972   1.972  10.314 -0.3943  0.6959 -0.4839
   20SAPC   H3R 2594   5.067   1.956  10.370 -1.0430 -3.5832 -0.4124
   20SAPC   H3S 2595   4.967   2.076  10.276  1.7732  0.8890 -0.2938
   20SAPC   C24 2596   4.961   1.878  10.195  0.6187  0.4027  0.4931
   20SAPC   H4R 2597   5.024   1.935  10.124  1.4283 -0.9712  0.0997
   20SAPC   H4S 2598   4.854   1.883  10.163  0.4428  0.3091  1.0597
   20SAPC   C25 2599   5.013   1.739  10.210 -0.6201 -0.2952  0.3581
   20SAPC   H5R 2600   5.099   1.731  10.278  0.2746  1.5497 -0.4969
   20SAPC   C26 2601   4.972   1.621  10.156  0.4513 -0.0905 -0.4674
   20SAPC   H6R 2602   5.033   1.532  10.175  0.9450  0.6222  1.3736
   20SAPC   C27 2603   4.861   1.597  10.061 -0.0675 -0.3016  0.0478
   20SAPC   H7R 2604   4.893   1.522   9.986 -0.5199 -0.7082  0.2584
   20SAPC   H7S 2605   4.846   1.692  10.006  3.1257  0.7113  0.8227
   20SAPC   C28 2606   4.725   1.560  10.125 -0.2466 -0.7929 -0.4386
   20SAPC   H8R 2607   4.717   1.583  10.233 -2.3983 -0.3399 -0.6602
   20SAPC   C29 2608   4.613   1.519  10.063 -0.1288 -0.1864  0.2585
   20SAPC   H9R 2609   4.520   1.520  10.121 -0.3739 -1.2081 -0.1041
   20SAPC  C210 2610   4.605   1.500   9.912 -0.2633 -0.0422 -0.5830
   20SAPC  H10R 2611   4.702   1.505   9.859 -0.1648  1.3572 -0.2991
   20SAPC  H10S 2612   4.547   1.578   9.858 -0.4445  0.1606 -0.1019
   20SAPC  C211 2613   4.539   1.364   9.891 -0.0001 -0.0207 -0.4755
   20SAPC  H11R 2614   4.486   1.320   9.977  1.3678  0.1655  0.4865
   20SAPC  C212 2615   4.529   1.293   9.772 -1.3504 -0.4491  0.0927
   20SAPC  H12R 2616   4.485   1.192   9.781  0.2445 -1.0140  1.7487
   20SAPC  C213 2617   4.587   1.330   9.638  0.0966 -0.3238 -0.0608
   20SAPC  H13R 2618   4.590   1.441   9.640  1.3325 -0.3198  4.2025
   20SAPC  H13S 2619   4.521   1.296   9.556  0.1101  0.6785 -0.4982
   20SAPC  C214 2620   4.726   1.288   9.604 -0.4398  0.5339 -0.2881
   20SAPC  H14R 2621   4.789   1.252   9.687  1.2973  1.5089 -1.1607
   20SAPC  C215 2622   4.795   1.283   9.493 -0.5596 -0.2164  0.1282
   20SAPC  H15R 2623   4.901   1.254   9.501 -0.8197 -1.7257 -1.5526
   20SAPC  C216 2624   4.754   1.340   9.358  0.4154  0.3666  0.4041
   20SAPC  H16R 2625   4.842   1.391   9.314  1.9140 -2.0106  0.5650
   20SAPC  H16S 2626   4.671   1.414   9.361  1.7930  1.9560  0.2443
   20SAPC  C217 2627   4.706   1.232   9.262  0.5537  0.1169 -0.3314
   20SAPC  H17R 2628   4.626   1.181   9.320 -0.8117 -2.5432 -4.3549
   20SAPC  H17S 2629   4.780   1.160   9.223 -2.2847 -2.4353 -1.1936
   20SAPC  C218 2630   4.636   1.291   9.134 -0.2159 -0.4115 -0.0244
   20SAPC  H18R 2631   4.700   1.355   9.070  0.3876  1.3309  2.2509
   20SAPC  H18S 2632   4.550   1.353   9.167 -1.3024 -2.4257  1.0118
   20SAPC  C219 2633   4.573   1.184   9.047 -0.5424  1.0126 -0.1227
   20SAPC  H19R 2634   4.515   1.110   9.107  2.8996 -1.5732  0.1787
   20SAPC  H19S 2635   4.650   1.115   9.006 -0.9821  0.2612  0.3024
   20SAPC  C220 2636   4.495   1.232   8.924 -0.0435  0.3760 -0.3003
   20SAPC  H20R 2637   4.452   1.140   8.878 -0.8468  0.1798  0.8088
   20SAPC  H20S 2638   4.563   1.281   8.851 -1.1637 -0.4027 -1.8876
   20SAPC  H20T 2639   4.428   1.309   8.967 -0.8711 -1.6205  2.0747
   20SAPC   C33 2640   4.889   1.106  10.658 -0.0640  0.3401  0.6889
   20SAPC   H3X 2641   4.913   1.023  10.729 -2.9594  1.4410  3.0560
   20SAPC   H3Y 2642   4.980   1.166  10.639  0.0259 -0.2931 -0.9800
   20SAPC   C34 2643   4.835   1.055  10.517 -0.0225  0.2676 -0.3597
   20SAPC   H4X 2644   4.909   0.976  10.493 -1.7206 -0.6267 -2.8774
   20SAPC   H4Y 2645   4.841   1.147  10.454  1.3347  0.4717  0.0546
   20SAPC   C35 2646   4.697   0.985  10.504 -0.2926 -0.0728  0.4648
   20SAPC   H5X 2647   4.613   1.044  10.547  1.6163  1.6422  1.9211
   20SAPC   H5Y 2648   4.714   0.894  10.566 -2.9556 -0.3087  0.9048
   20SAPC   C36 2649   4.668   0.940  10.355 -0.2949 -0.3640  0.2791
   20SAPC   H6X 2650   4.754   0.883  10.315  0.2737  0.0120  0.9652
   20SAPC   H6Y 2651   4.654   1.040  10.307  0.5521 -0.5210 -0.2987
   20SAPC   C37 2652   4.530   0.865  10.358 -0.2528  0.9773 -0.1879
   20SAPC   H7X 2653   4.457   0.942  10.392 -1.7886 -0.8192  0.6544
   20SAPC   H7Y 2654   4.541   0.783  10.432 -0.5884  0.2959 -0.8753
   20SAPC   C38 2655   4.482   0.823  10.223 -0.3628  0.0957  0.1979
   20SAPC   H8X 2656   4.544   0.731  10.214 -0.4531  0.2257 -2.0233
   20SAPC   H8Y 2657   4.501   0.905  10.150 -1.4137  0.6344  0.5220
   20SAPC   C39 2658   4.333   0.784  10.221  0.3114  0.2437  0.4275
   20SAPC   H9X 2659   4.271   0.877  10.223 -0.2371 -0.1344  2.1777
   20SAPC   H9Y 2660   4.313   0.725  10.313  0.2788  0.3434  0.4864
   20SAPC  C310 2661   4.302   0.692  10.103 -0.1617 -0.4637 -0.0147
   20SAPC  H10X 2662   4.360   0.598  10.107 -0.3330 -0.7958 -3.5204
   20SAPC  H10Y 2663   4.311   0.738  10.002  0.1186 -2.1684 -0.7847
   20SAPC  C311 2664   4.155   0.645  10.108  0.3400 -0.4790 -0.1512
   20SAPC  H11X 2665   4.089   0.733  10.089 -1.3591 -1.2557  1.8690
   20SAPC  H11Y 2666   4.130   0.619  10.213  0.4775 -0.1012 -0.0228
   20SAPC  C312 2667   4.124   0.535  10.010  1.0890 -0.6845 -1.2392
   20SAPC  H12X 2668   4.020   0.502  10.032  2.3065 -3.0502  1.3623
   20SAPC  H12Y 2669   4.197   0.453  10.028  0.8864 -0.4568  0.7317
   20SAPC  C313 2670   4.136   0.581   9.863  0.2507 -0.2750 -0.3812
   20SAPC  H13X 2671   4.243   0.599   9.843 -0.0794 -0.7165 -2.7218
   20SAPC  H13Y 2672   4.084   0.677   9.843  0.4650  0.1817  1.2095
   20SAPC  C314 2673   4.065   0.485   9.768 -0.0779 -0.1223  0.9920
   20SAPC  H14X 2674   3.957   0.483   9.792  0.3166 -0.1942  2.8215
   20SAPC  H14Y 2675   4.099   0.380   9.780  0.7392 -0.0557 -0.5689
   20SAPC  C315 2676   4.086   0.530   9.617 -0.1541 -0.0646 -0.1033
   20SAPC  H15X 2677   4.193   0.555   9.603  0.3411 -0.8411  2.0700
   20SAPC  H15Y 2678   4.028   0.624   9.602 -2.1691 -0.9287  1.8811
   20SAPC  C316 2679   4.034   0.428   9.521  0.0579  0.2197  0.0621
   20SAPC  H16X 2680   3.937   0.388   9.556 -0.0120  1.0159  0.7716
   20SAPC  H16Y 2681   4.104   0.342   9.520  0.8265  0.8246  1.2864
   20SAPC  C317 2682   4.021   0.462   9.369 -0.1889  0.0728  0.3374
   20SAPC  H17X 2683   3.946   0.544   9.367  1.9202  2.1226  2.1973
   20SAPC  H17Y 2684   3.983   0.371   9.318  1.1903 -0.4259  0.1830
   20SAPC  C318 2685   4.149   0.516   9.303 -0.9174  0.3884  0.4022
   20SAPC  H18X 2686   4.131   0.536   9.195 -1.8824 -1.7043  0.1376
   20SAPC  H18Y 2687   4.228   0.439   9.309 -1.1075  0.1217 -0.3926
   20SAPC  H18Z 2688   4.189   0.612   9.343  0.8784 -0.1740  0.0114
   21SAPC     N 2689   4.673   6.690  10.612  0.6279 -0.0298 -0.1095
   21SAPC   C12 2690   4.586   6.798  10.536  0.3956 -0.0277  0.5738
   21SAPC  H12A 2691   4.495   6.813  10.592 -0.1985  3.3319 -1.1769
   21SAPC  H12B 2692   4.562   6.759  10.439  1.3012  2.4038 -0.6716
   21SAPC   C13 2693   4.686   6.724  10.752  0.0513  0.0871 -0.9728
   21SAPC  H13A 2694   4.589   6.717  10.797 -0.3129  1.5818 -1.5034
   21SAPC  H13B 2695   4.743   6.653  10.810  0.1944  0.9386 -0.0636
   21SAPC  H13C 2696   4.731   6.820  10.772  0.0088  0.3106 -1.9412
   21SAPC   C14 2697   4.604   6.557  10.592  0.0178  0.0699  0.1726
   21SAPC  H14A 2698   4.650   6.476  10.648 -2.4820 -1.3622  0.2150
   21SAPC  H14B 2699   4.499   6.568  10.615  0.0260  0.6780 -0.0735
   21SAPC  H14C 2700   4.625   6.535  10.489  4.2070 -1.7237  1.2930
   21SAPC   C15 2701   4.804   6.672  10.556 -0.1464 -1.0292  0.7444
   21SAPC  H15A 2702   4.856   6.765  10.538 -0.1018 -1.1365  0.3141
   21SAPC  H15B 2703   4.860   6.593  10.603 -0.5756 -2.3969 -1.0087
   21SAPC  H15C 2704   4.779   6.634  10.458 -1.0112  1.5189 -0.0652
   21SAPC   C11 2705   4.653   6.936  10.522  0.3521  0.5728 -0.1561
   21SAPC  H11A 2706   4.587   6.998  10.458  1.8648  0.9720 -1.3711
   21SAPC  H11B 2707   4.749   6.913  10.469 -0.2031 -1.7477 -0.1908
   21SAPC     P 2708   4.568   7.075  10.726 -0.0840 -0.1288 -0.1516
   21SAPC   O13 2709   4.488   6.980  10.812 -0.0473  0.0153  0.2474
   21SAPC   O14 2710   4.632   7.194  10.792 -0.3404 -0.0653  0.1937
   21SAPC   O12 2711   4.679   6.997  10.647 -0.9110  0.2736  0.2409
   21SAPC   O11 2712   4.465   7.124  10.619 -0.0245  0.4705  0.2178
   21SAPC    C1 2713   4.470   7.257  10.574  0.5850 -0.0921 -0.3639
   21SAPC    HA 2714   4.374   7.310  10.594  1.0527  0.5259  0.2723
   21SAPC    HB 2715   4.559   7.315  10.605 -0.8578  2.8465 -1.4746
   21SAPC    C2 2716   4.465   7.255  10.416  0.2966 -0.5595 -0.0611
   21SAPC    HS 2717   4.414   7.349  10.387 -1.5275 -0.9886  1.6528
   21SAPC   O21 2718   4.394   7.145  10.362 -0.5375  0.4877  0.0646
   21SAPC   C21 2719   4.267   7.117  10.391  0.3779  0.4049 -0.2551
   21SAPC   O22 2720   4.176   7.202  10.402 -0.0466 -0.3384 -0.5033
   21SAPC   C22 2721   4.251   6.963  10.411  0.3084  0.3075 -0.8000
   21SAPC   H2R 2722   4.341   6.912  10.369  0.4207  0.2695 -0.5161
   21SAPC   H2S 2723   4.259   6.952  10.521  1.3719  1.3090 -0.7600
   21SAPC    C3 2724   4.605   7.264  10.338  0.6643  0.6371 -0.6586
   21SAPC    HX 2725   4.657   7.170  10.367 -1.4209 -0.1320  0.6768
   21SAPC    HY 2726   4.666   7.348  10.376  0.4404 -0.6485  2.6515
   21SAPC   O31 2727   4.578   7.277  10.200 -0.1741  0.6292  0.1954
   21SAPC   C31 2728   4.580   7.176  10.117  0.1917  0.8968 -0.5234
   21SAPC   O32 2729   4.609   7.062  10.141  0.0291  0.5651 -0.0984
   21SAPC   C32 2730   4.526   7.222   9.983  0.6741 -0.6070  0.1118
   21SAPC   H2X 2731   4.582   7.317   9.964  0.5535 -0.0950  2.1931
   21SAPC   H2Y 2732   4.418   7.247   9.992  1.0285  0.6811  1.0778
   21SAPC   C23 2733   4.124   6.901  10.362 -0.5721  0.4384 -0.0212
   21SAPC   H3R 2734   4.033   6.964  10.379 -0.7729  0.2534 -0.3981
   21SAPC   H3S 2735   4.117   6.806  10.418  0.0174  0.7490  0.5791
   21SAPC   C24 2736   4.114   6.874  10.213  0.2461  0.1135  0.4433
   21SAPC   H4R 2737   4.017   6.829  10.181  0.4430 -0.5706  0.7949
   21SAPC   H4S 2738   4.181   6.786  10.198  1.3856  0.8482  1.1574
   21SAPC   C25 2739   4.147   6.991  10.132 -0.0448  0.5793 -0.4663
   21SAPC   H5R 2740   4.111   7.086  10.175 -0.2315  0.5476 -0.5511
   21SAPC   C26 2741   4.208   6.987  10.013  0.6048 -0.0132 -0.4362
   21SAPC   H6R 2742   4.220   7.075   9.948 -1.9031 -0.0096 -0.9169
   21SAPC   C27 2743   4.231   6.859   9.942  0.0504  0.4187 -0.3099
   21SAPC   H7R 2744   4.307   6.803  10.001  0.0805  0.5824 -0.1892
   21SAPC   H7S 2745   4.286   6.881   9.848  0.9729 -1.8687 -0.3482
   21SAPC   C28 2746   4.106   6.775   9.911 -0.6538 -0.2117  0.2426
   21SAPC   H8R 2747   4.025   6.769   9.985 -0.8515 -2.2698 -0.1001
   21SAPC   C29 2748   4.078   6.721   9.795  0.1445  0.5619 -0.1634
   21SAPC   H9R 2749   3.985   6.663   9.801  0.6250 -0.3443 -1.1787
   21SAPC  C210 2750   4.159   6.716   9.669 -0.5560 -0.3763  0.5014
   21SAPC  H10R 2751   4.133   6.620   9.619  0.9542 -0.5177 -0.0574
   21SAPC  H10S 2752   4.268   6.717   9.692 -0.4153 -0.0715 -0.1535
   21SAPC  C211 2753   4.124   6.827   9.581 -0.0418 -0.2479  0.2055
   21SAPC  H11R 2754   4.144   6.927   9.622  0.0832 -1.5930  3.5603
   21SAPC  C212 2755   4.066   6.827   9.458 -0.1371  0.0402  0.9756
   21SAPC  H12R 2756   4.054   6.921   9.401  0.1673 -0.7791 -0.4794
   21SAPC  C213 2757   4.000   6.718   9.378 -0.3783  0.4568  0.8598
   21SAPC  H13R 2758   3.912   6.765   9.328 -1.9996 -0.3538  2.8933
   21SAPC  H13S 2759   3.972   6.635   9.446  1.3609 -1.7082 -0.9705
   21SAPC  C214 2760   4.105   6.660   9.280 -0.2932 -0.5221  0.4716
   21SAPC  H14R 2761   4.201   6.626   9.322  0.4702 -3.1445 -3.1324
   21SAPC  C215 2762   4.094   6.632   9.154  0.2139 -0.0770 -0.1355
   21SAPC  H15R 2763   4.183   6.609   9.094  0.6486  0.1356  0.4375
   21SAPC  C216 2764   3.977   6.667   9.071  1.0920 -0.4168  0.3929
   21SAPC  H16R 2765   3.924   6.755   9.114 -0.2436 -0.3235 -1.3502
   21SAPC  H16S 2766   3.908   6.581   9.060  1.5396 -0.6362 -0.7294
   21SAPC  C217 2767   4.013   6.722   8.929 -0.5717 -0.1476 -0.2271
   21SAPC  H17R 2768   4.081   6.810   8.940 -0.6746 -0.2449  1.2762
   21SAPC  H17S 2769   3.913   6.761   8.899 -0.1411 -1.1337 -3.0726
   21SAPC  C218 2770   4.062   6.621   8.822  0.8295  0.5699  0.3805
   21SAPC  H18R 2771   4.003   6.527   8.817  0.4029  0.9184 -1.3589
   21SAPC  H18S 2772   4.163   6.586   8.852  1.1358  1.0701 -0.0678
   21SAPC  C219 2773   4.078   6.683   8.681 -0.4233  0.7649  0.5225
   21SAPC  H19R 2774   3.984   6.731   8.645 -1.0095  0.5933  1.8035
   21SAPC  H19S 2775   4.091   6.594   8.616  1.2071  0.1109  1.7116
   21SAPC  C220 2776   4.195   6.782   8.661 -0.4442 -0.1185  0.1770
   21SAPC  H20R 2777   4.295   6.735   8.650 -1.2963 -2.0290  0.3856
   21SAPC  H20S 2778   4.192   6.855   8.745  0.6283  1.5445 -1.1914
   21SAPC  H20T 2779   4.183   6.846   8.571  0.1191  0.7430  0.7078
   21SAPC   C33 2780   4.532   7.122   9.867 -0.5662 -0.0566 -0.8025
   21SAPC   H3X 2781   4.492   7.026   9.906 -0.2340  0.2860  0.4101
   21SAPC   H3Y 2782   4.639   7.112   9.838  0.2718 -4.1541  3.0364
   21SAPC   C34 2783   4.447   7.171   9.758  0.1889 -0.0913 -0.1408
   21SAPC   H4X 2784   4.455   7.281   9.748  0.8936 -0.3823 -3.2798
   21SAPC   H4Y 2785   4.342   7.142   9.778  0.5849 -0.8573  0.9521
   21SAPC   C35 2786   4.495   7.109   9.626  0.6539  0.4826  0.1648
   21SAPC   H5X 2787   4.521   7.004   9.651  1.8023  0.1688 -2.2566
   21SAPC   H5Y 2788   4.576   7.173   9.585  0.1160  0.8306 -0.3672
   21SAPC   C36 2789   4.381   7.093   9.513  0.1955  0.2208  0.3729
   21SAPC   H6X 2790   4.331   7.190   9.492  1.2863  0.9761  1.2163
   21SAPC   H6Y 2791   4.300   7.022   9.539 -0.8631  1.2155 -0.1406
   21SAPC   C37 2792   4.456   7.039   9.390  0.0357 -0.5486 -0.2683
   21SAPC   H7X 2793   4.396   6.963   9.337 -0.0149 -1.5618  1.2169
   21SAPC   H7Y 2794   4.552   6.988   9.414  0.6228  0.1742 -1.0165
   21SAPC   C38 2795   4.501   7.157   9.297  0.2351  0.3840 -0.1706
   21SAPC   H8X 2796   4.575   7.226   9.344 -0.5747 -1.0238  3.2862
   21SAPC   H8Y 2797   4.421   7.223   9.257  0.4086  0.1045 -0.9865
   21SAPC   C39 2798   4.563   7.106   9.159  0.6706 -0.0882 -0.2971
   21SAPC   H9X 2799   4.631   7.020   9.176 -1.6449 -1.6302  1.4928
   21SAPC   H9Y 2800   4.615   7.198   9.126 -2.2745  0.9352 -2.2784
   21SAPC  C310 2801   4.464   7.060   9.051 -0.6471  0.3377 -0.2066
   21SAPC  H10X 2802   4.371   7.121   9.043 -2.1348 -1.7473  0.5535
   21SAPC  H10Y 2803   4.425   6.958   9.072 -0.3999  0.4361  0.7419
   21SAPC  C311 2804   4.532   7.076   8.914 -0.4423 -0.5151  0.2381
   21SAPC  H11X 2805   4.556   7.184   8.915 -2.1988 -0.1082  1.6948
   21SAPC  H11Y 2806   4.450   7.065   8.840  0.6944  2.3181 -1.5157
   21SAPC  C312 2807   4.646   6.971   8.906  0.0661 -0.0301  0.4788
   21SAPC  H12X 2808   4.677   6.913   8.995 -1.8576 -0.1654  1.0770
   21SAPC  H12Y 2809   4.740   7.018   8.869 -0.2830 -0.4127 -0.9388
   21SAPC  C313 2810   4.613   6.867   8.799  0.4963  0.1038 -0.1514
   21SAPC  H13X 2811   4.505   6.843   8.798  0.2292  1.2773 -0.6795
   21SAPC  H13Y 2812   4.669   6.774   8.821  1.1204  0.5458  0.1706
   21SAPC  C314 2813   4.648   6.902   8.651  0.1760 -0.3219 -0.3820
   21SAPC  H14X 2814   4.614   7.003   8.622 -0.3175 -0.8543 -1.7111
   21SAPC  H14Y 2815   4.590   6.834   8.584 -3.9125  2.1109  0.5385
   21SAPC  C315 2816   4.803   6.900   8.623 -0.8271 -0.2209  0.4706
   21SAPC  H15X 2817   4.842   6.796   8.621 -0.4850 -0.0794 -0.4494
   21SAPC  H15Y 2818   4.848   6.945   8.714  0.1441 -0.5704  0.1654
   21SAPC  C316 2819   4.849   6.971   8.495 -0.0649 -0.0122 -0.2366
   21SAPC  H16X 2820   4.956   6.997   8.508  0.1885  0.0314 -2.2517
   21SAPC  H16Y 2821   4.795   7.068   8.492 -1.4563 -0.7702 -0.4334
   21SAPC  C317 2822   4.814   6.894   8.366 -0.4955 -0.0774  0.0526
   21SAPC  H17X 2823   4.704   6.880   8.366 -0.7347  1.6929  0.3718
   21SAPC  H17Y 2824   4.851   6.790   8.377  1.1135  0.3477 -1.0409
   21SAPC  C318 2825   4.871   6.949   8.236  0.4992  0.7174 -0.0604
   21SAPC  H18X 2826   4.842   6.880   8.154  0.8528  0.5983 -0.0836
   21SAPC  H18Y 2827   4.982   6.951   8.242  0.4446  0.3182  1.1104
   21SAPC  H18Z 2828   4.837   7.052   8.210 -1.6599  0.2401  0.8442
   22SAPC     N 2829   3.355   4.166  10.970 -0.2594  0.2259 -0.2105
   22SAPC   C12 2830   3.320   4.212  10.830 -0.2754  0.6400 -0.1671
   22SAPC  H12A 2831   3.217   4.245  10.816 -1.5815 -2.7229  1.0582
   22SAPC  H12B 2832   3.330   4.128  10.763  0.0330 -1.8947  2.9828
   22SAPC   C13 2833   3.260   4.057  11.021  0.6341 -0.0240 -0.2480
   22SAPC  H13A 2834   3.253   3.971  10.956  1.4523 -0.4517  0.2141
   22SAPC  H13B 2835   3.291   4.034  11.122 -1.5731 -0.8299  0.2703
   22SAPC  H13C 2836   3.158   4.083  11.044  0.2352 -1.2098 -0.6725
   22SAPC   C14 2837   3.491   4.106  10.972  0.1710 -0.1907  0.2308
   22SAPC  H14A 2838   3.492   4.063  11.071 -2.1440 -2.1596 -0.5632
   22SAPC  H14B 2839   3.501   4.035  10.892  1.5390  1.4456 -1.0940
   22SAPC  H14C 2840   3.573   4.176  10.966  1.2081 -1.4822 -1.1041
   22SAPC   C15 2841   3.350   4.284  11.063 -0.0040  0.5011 -0.5114
   22SAPC  H15A 2842   3.260   4.343  11.055  0.0052  0.3677 -1.6159
   22SAPC  H15B 2843   3.365   4.258  11.167  0.5886 -0.6069 -0.8563
   22SAPC  H15C 2844   3.428   4.356  11.045  1.2770 -1.4077 -2.9246
   22SAPC   C11 2845   3.407   4.319  10.768 -0.2589 -0.3089  0.1595
   22SAPC  H11A 2846   3.402   4.309  10.657 -0.3484 -1.9423  0.2976
   22SAPC  H11B 2847   3.510   4.286  10.792 -0.7707 -2.8478 -0.9703
   22SAPC     P 2848   3.240   4.516  10.754  0.1506  0.1568  0.7342
   22SAPC   O13 2849   3.118   4.425  10.756  0.5454  0.4836  0.7619
   22SAPC   O14 2850   3.220   4.652  10.810 -0.0363 -0.5081  0.5363
   22SAPC   O12 2851   3.377   4.455  10.808  0.2536  0.0491 -0.0406
   22SAPC   O11 2852   3.274   4.531  10.601  0.3345 -0.0752 -0.5292
   22SAPC    C1 2853   3.376   4.626  10.566 -0.1967 -0.2619 -0.3919
   22SAPC    HA 2854   3.339   4.729  10.588  1.7831  0.2153  0.8307
   22SAPC    HB 2855   3.463   4.623  10.635 -0.3342 -0.0234 -0.2090
   22SAPC    C2 2856   3.427   4.626  10.418 -0.0241  0.3765  0.2679
   22SAPC    HS 2857   3.494   4.712  10.397 -1.5406  1.4661 -0.1764
   22SAPC   O21 2858   3.306   4.633  10.337 -0.4630  0.1358  0.2266
   22SAPC   C21 2859   3.324   4.680  10.218  0.6121 -0.6259 -0.4789
   22SAPC   O22 2860   3.415   4.744  10.174 -0.5450  0.1966  0.1417
   22SAPC   C22 2861   3.202   4.641  10.135 -0.4237 -0.8261  0.0297
   22SAPC   H2R 2862   3.109   4.678  10.183  1.5861  1.2498  2.4296
   22SAPC   H2S 2863   3.198   4.684  10.032 -0.5131  0.6783  0.6510
   22SAPC    C3 2864   3.487   4.481  10.397 -0.1995 -0.2901  0.4123
   22SAPC    HX 2865   3.407   4.407  10.419  0.8850 -1.7751 -0.5194
   22SAPC    HY 2866   3.569   4.483  10.471 -1.2554  0.3941  1.5789
   22SAPC   O31 2867   3.536   4.468  10.262  0.2805 -0.0968  0.4001
   22SAPC   C31 2868   3.655   4.416  10.237 -0.1948  0.1090  0.0174
   22SAPC   O32 2869   3.731   4.366  10.322  0.2779 -0.2372  0.4132
   22SAPC   C32 2870   3.699   4.444  10.093  0.5124  0.8396  0.6707
   22SAPC   H2X 2871   3.661   4.544  10.063  0.0180  0.1044 -1.2036
   22SAPC   H2Y 2872   3.650   4.373  10.023  1.2544 -1.5213  2.5092
   22SAPC   C23 2873   3.187   4.484  10.105  0.5392 -0.6141  0.1709
   22SAPC   H3R 2874   3.084   4.465  10.068 -0.1000 -0.1887  1.6839
   22SAPC   H3S 2875   3.198   4.432  10.203 -0.6744  1.4488  1.4626
   22SAPC   C24 2876   3.285   4.424  10.003  0.2406 -0.2228  0.3052
   22SAPC   H4R 2877   3.280   4.313  10.011  0.9965 -0.4315 -1.6516
   22SAPC   H4S 2878   3.389   4.447  10.034  1.2249 -0.0008 -3.0008
   22SAPC   C25 2879   3.266   4.473   9.862  0.1050 -0.6645  0.0907
   22SAPC   H5R 2880   3.180   4.428   9.811 -0.6817 -0.7907  1.4944
   22SAPC   C26 2881   3.335   4.566   9.798 -0.1979  0.0703  0.1959
   22SAPC   H6R 2882   3.304   4.588   9.694  2.0043  2.2043 -0.0666
   22SAPC   C27 2883   3.462   4.645   9.827 -0.6469  0.4626 -0.4562
   22SAPC   H7R 2884   3.467   4.660   9.937 -0.1619 -0.6855 -0.3216
   22SAPC   H7S 2885   3.464   4.750   9.791  1.8986 -0.3168 -2.7949
   22SAPC   C28 2886   3.586   4.576   9.780  0.2087 -0.5020  0.6292
   22SAPC   H8R 2887   3.620   4.492   9.842  2.7926 -0.1232 -0.1878
   22SAPC   C29 2888   3.657   4.607   9.671  0.6690  0.9887  0.1171
   22SAPC   H9R 2889   3.742   4.548   9.635 -0.8124 -0.7934 -0.5345
   22SAPC  C210 2890   3.608   4.714   9.576  0.2883 -0.2465  0.4676
   22SAPC  H10R 2891   3.604   4.812   9.629  0.6117 -0.4661  0.8996
   22SAPC  H10S 2892   3.503   4.692   9.549  0.7553  0.8327 -2.4050
   22SAPC  C211 2893   3.711   4.726   9.463 -0.3715  0.2470  0.7800
   22SAPC  H11R 2894   3.810   4.751   9.503  0.6536 -0.8832 -0.9813
   22SAPC  C212 2895   3.703   4.697   9.333  0.0787 -0.0554  0.4157
   22SAPC  H12R 2896   3.783   4.726   9.264 -1.3021  3.0251 -0.0076
   22SAPC  C213 2897   3.579   4.649   9.257 -0.3780  0.7329 -0.3864
   22SAPC  H13R 2898   3.484   4.639   9.315 -0.5669 -0.8032 -0.9299
   22SAPC  H13S 2899   3.591   4.546   9.216  0.8501  1.0680 -0.8624
   22SAPC  C214 2900   3.561   4.738   9.142 -0.0328 -0.4667 -0.1585
   22SAPC  H14R 2901   3.613   4.835   9.151  3.3738 -2.0630 -1.8576
   22SAPC  C215 2902   3.509   4.706   9.026  0.1897 -0.3538  0.1752
   22SAPC  H15R 2903   3.505   4.785   8.950  0.2027  0.6518  1.2192
   22SAPC  C216 2904   3.446   4.579   8.983 -0.8761  0.1773 -0.3692
   22SAPC  H16R 2905   3.431   4.526   9.079  0.6417  0.1672 -0.1274
   22SAPC  H16S 2906   3.510   4.517   8.917 -0.1061 -0.3552  0.8678
   22SAPC  C217 2907   3.317   4.606   8.907 -0.1351  0.7898 -0.0655
   22SAPC  H17R 2908   3.247   4.668   8.966  0.8528  1.1068  0.7983
   22SAPC  H17S 2909   3.267   4.507   8.897  0.8294  0.2319  0.4914
   22SAPC  C218 2910   3.325   4.665   8.766  0.4466  0.4622 -0.0265
   22SAPC  H18R 2911   3.418   4.630   8.716 -0.6530 -1.0252 -1.0829
   22SAPC  H18S 2912   3.339   4.775   8.778  1.4770  0.3155  0.0840
   22SAPC  C219 2913   3.198   4.648   8.682 -0.2735 -0.3819 -0.7284
   22SAPC  H19R 2914   3.191   4.539   8.663  0.8925 -0.3547 -1.3608
   22SAPC  H19S 2915   3.218   4.705   8.588 -0.1495  1.4449  0.3790
   22SAPC  C220 2916   3.075   4.699   8.755 -0.0536 -0.9046 -0.0775
   22SAPC  H20R 2917   2.985   4.685   8.692  0.1453 -1.6642 -0.1927
   22SAPC  H20S 2918   3.076   4.806   8.785  1.2024 -1.1921  0.9385
   22SAPC  H20T 2919   3.052   4.645   8.849 -1.3739 -1.0442 -0.4694
   22SAPC   C33 2920   3.854   4.436  10.072  0.9611 -0.4004 -0.0323
   22SAPC   H3X 2921   3.882   4.334  10.104 -2.2731 -1.1244  0.7276
   22SAPC   H3Y 2922   3.904   4.516  10.131  0.4506  0.4095 -0.6762
   22SAPC   C34 2923   3.890   4.466   9.928 -0.3586  0.1617 -0.3142
   22SAPC   H4X 2924   3.859   4.573   9.922 -0.9083  0.0468  0.3964
   22SAPC   H4Y 2925   3.828   4.395   9.868 -0.4759 -0.3188  0.3763
   22SAPC   C35 2926   4.037   4.446   9.901  0.0061  0.1233  0.0763
   22SAPC   H5X 2927   4.058   4.337   9.893  2.6289  0.5963  0.0637
   22SAPC   H5Y 2928   4.111   4.487   9.973  2.2675  0.9699 -2.6246
   22SAPC   C36 2929   4.070   4.520   9.770  0.2517  0.8226 -0.6208
   22SAPC   H6X 2930   4.073   4.631   9.776 -0.6605  0.8883 -1.3066
   22SAPC   H6Y 2931   3.980   4.503   9.706 -0.7484  2.0371  0.4521
   22SAPC   C37 2932   4.203   4.471   9.709 -0.2847  0.4639  1.0120
   22SAPC   H7X 2933   4.204   4.362   9.735  1.6549  1.0422  3.5727
   22SAPC   H7Y 2934   4.295   4.513   9.754 -0.5540  0.9561  1.1002
   22SAPC   C38 2935   4.194   4.497   9.559  0.1664  0.2706 -0.6073
   22SAPC   H8X 2936   4.115   4.436   9.511 -0.3982  1.2841 -0.9675
   22SAPC   H8Y 2937   4.283   4.460   9.503 -1.7727 -3.2754 -1.4467
   22SAPC   C39 2938   4.172   4.640   9.514 -0.4362  0.7302 -0.8628
   22SAPC   H9X 2939   4.225   4.710   9.581  1.4076 -0.7009 -0.8025
   22SAPC   H9Y 2940   4.063   4.663   9.520 -0.3972  1.0947 -1.4947
   22SAPC  C310 2941   4.221   4.658   9.371  0.1182 -0.0766  0.4831
   22SAPC  H10X 2942   4.331   4.644   9.370  0.1119 -0.1796  0.9686
   22SAPC  H10Y 2943   4.201   4.762   9.339 -1.1908 -0.4681 -0.0082
   22SAPC  C311 2944   4.154   4.568   9.265  0.5294 -0.6263  0.0385
   22SAPC  H11X 2945   4.044   4.583   9.260  0.4348 -0.1505  2.6842
   22SAPC  H11Y 2946   4.161   4.462   9.297 -0.4788  0.1156  2.8705
   22SAPC  C312 2947   4.225   4.578   9.131  0.2923  0.5554 -0.2762
   22SAPC  H12X 2948   4.181   4.497   9.069 -0.5916 -1.0167  2.3553
   22SAPC  H12Y 2949   4.335   4.564   9.139 -0.1109 -1.6577  1.9475
   22SAPC  C313 2950   4.205   4.711   9.052  0.8838 -0.1662  0.3841
   22SAPC  H13X 2951   4.258   4.796   9.101  0.9028 -0.0300  0.1268
   22SAPC  H13Y 2952   4.097   4.736   9.042  0.8492 -0.5822 -0.3002
   22SAPC  C314 2953   4.268   4.709   8.913  0.2371  0.3582  0.0946
   22SAPC  H14X 2954   4.205   4.648   8.845  1.0020 -2.3024  1.6752
   22SAPC  H14Y 2955   4.366   4.656   8.912 -0.3752 -0.7842 -1.1883
   22SAPC  C315 2956   4.291   4.846   8.855 -0.0493 -0.8797 -0.7480
   22SAPC  H15X 2957   4.334   4.837   8.753 -0.4792 -1.2979 -0.8888
   22SAPC  H15Y 2958   4.357   4.903   8.925 -1.0887  1.3154 -1.5157
   22SAPC  C316 2959   4.168   4.937   8.833  0.4047  0.1755 -0.2643
   22SAPC  H16X 2960   4.135   4.982   8.928  1.4353  2.4093 -0.9143
   22SAPC  H16Y 2961   4.083   4.879   8.791  0.2656  0.0276  0.2287
   22SAPC  C317 2962   4.201   5.045   8.723 -0.1101  1.2620  0.1103
   22SAPC  H17X 2963   4.102   5.089   8.701 -0.8068  0.3894  1.4605
   22SAPC  H17Y 2964   4.223   4.985   8.633 -2.9445  0.3340  0.0011
   22SAPC  C318 2965   4.305   5.148   8.772  0.5314 -0.0460  0.2174
   22SAPC  H18X 2966   4.259   5.226   8.836 -1.0784 -0.7463 -0.0504
   22SAPC  H18Y 2967   4.346   5.208   8.688  0.5669 -0.5530 -0.1243
   22SAPC  H18Z 2968   4.387   5.097   8.825 -0.8838 -2.8429 -0.2201
   23SAPC     N 2969   5.558   6.024  11.146 -0.7726 -1.3051 -0.3623
   23SAPC   C12 2970   5.536   6.126  11.040 -0.3954  0.1778  0.2962
   23SAPC  H12A 2971   5.572   6.087  10.946  0.7281  1.2022  0.2849
   23SAPC  H12B 2972   5.598   6.214  11.052 -3.0782  2.1470  0.2891
   23SAPC   C13 2973   5.536   6.087  11.284  0.0477  0.2868  0.0637
   23SAPC  H13A 2974   5.450   6.152  11.280  0.1067  0.4105  0.6630
   23SAPC  H13B 2975   5.512   6.014  11.360 -0.0353 -1.8372 -1.9369
   23SAPC  H13C 2976   5.625   6.140  11.314 -0.2437  0.5686  0.4405
   23SAPC   C14 2977   5.467   5.907  11.140  0.8078 -0.1294  0.7909
   23SAPC  H14A 2978   5.492   5.845  11.056 -2.9103  0.0238 -0.5087
   23SAPC  H14B 2979   5.499   5.847  11.224  1.1252 -1.2056 -0.0812
   23SAPC  H14C 2980   5.362   5.932  11.136  0.7980 -0.5777 -3.9703
   23SAPC   C15 2981   5.700   5.964  11.149 -0.1375  0.2887 -0.4689
   23SAPC  H15A 2982   5.726   5.914  11.057  0.7219 -0.8204  0.3493
   23SAPC  H15B 2983   5.770   6.043  11.172 -0.2463  0.2251  0.0836
   23SAPC  H15C 2984   5.721   5.892  11.227  0.1063  0.9656  0.0985
   23SAPC   C11 2985   5.391   6.174  11.018  0.2145  0.6574  0.1060
   23SAPC  H11A 2986   5.330   6.208  11.104  0.6205 -1.5498  1.3118
   23SAPC  H11B 2987   5.337   6.086  10.976  0.7355  0.6997 -0.6645
   23SAPC     P 2988   5.271   6.297  10.826 -0.6634  0.3799 -0.0756
   23SAPC   O13 2989   5.165   6.345  10.914 -0.0931 -0.8814 -0.1981
   23SAPC   O14 2990   5.304   6.395  10.718 -0.1556 -0.6108 -0.3603
   23SAPC   O12 2991   5.402   6.276  10.918 -0.0116  0.1156  0.3354
   23SAPC   O11 2992   5.242   6.154  10.766  0.2124 -0.1239  0.2451
   23SAPC    C1 2993   5.336   6.071  10.701 -0.3592  0.3192  0.5106
   23SAPC    HA 2994   5.439   6.078  10.741 -0.7616  2.1802  1.2898
   23SAPC    HB 2995   5.288   5.971  10.702  0.3403 -0.0264 -0.1515
   23SAPC    C2 2996   5.352   6.097  10.544  0.5208  0.1957 -0.4778
   23SAPC    HS 2997   5.358   6.206  10.526 -0.6506  0.6670  1.8647
   23SAPC   O21 2998   5.227   6.058  10.488  0.2906  0.2050 -0.2201
   23SAPC   C21 2999   5.192   6.109  10.366  0.5919  0.0028  0.3363
   23SAPC   O22 3000   5.254   6.202  10.315 -0.2013 -0.2940 -0.0652
   23SAPC   C22 3001   5.074   6.044  10.298 -0.1250 -0.4989 -0.3949
   23SAPC   H2R 3002   4.988   6.023  10.366  0.1313  0.8676  0.3746
   23SAPC   H2S 3003   5.030   6.114  10.223  0.4166 -0.6111 -0.8203
   23SAPC    C3 3004   5.467   6.012  10.482  0.8169 -0.0519  0.3895
   23SAPC    HX 3005   5.438   5.905  10.495 -1.7965  0.6549  0.6367
   23SAPC    HY 3006   5.558   6.031  10.543  0.3980  1.8267  0.4661
   23SAPC   O31 3007   5.488   6.020  10.338  0.1460  0.3250 -0.3825
   23SAPC   C31 3008   5.544   6.141  10.300  0.2189 -0.7528 -0.1496
   23SAPC   O32 3009   5.563   6.229  10.382 -0.4126 -0.2669 -0.0854
   23SAPC   C32 3010   5.567   6.141  10.151  0.0333  0.0692 -1.3736
   23SAPC   H2X 3011   5.465   6.169  10.116 -0.5495 -0.9603 -0.5364
   23SAPC   H2Y 3012   5.589   6.039  10.112 -0.3502 -2.4840  4.6085
   23SAPC   C23 3013   5.099   5.900  10.244 -0.0020 -0.2358 -0.6515
   23SAPC   H3R 3014   5.125   5.838  10.332 -1.4474  1.5996  1.1232
   23SAPC   H3S 3015   5.188   5.903  10.177 -0.2248  0.6365 -0.9215
   23SAPC   C24 3016   4.966   5.847  10.174  0.1216  0.5261  0.2049
   23SAPC   H4R 3017   4.892   5.822  10.252  0.9345  0.8612  1.0946
   23SAPC   H4S 3018   4.993   5.752  10.123  3.3813  0.7623  1.3908
   23SAPC   C25 3019   4.906   5.944  10.078 -0.6436 -0.0222  1.0065
   23SAPC   H5R 3020   4.813   5.993  10.111  0.5332  3.3088 -0.3343
   23SAPC   C26 3021   4.948   5.963   9.950 -1.0967  0.0830  0.1791
   23SAPC   H6R 3022   4.910   6.042   9.884  2.1685  1.3830 -0.2355
   23SAPC   C27 3023   5.066   5.882   9.904 -0.1995 -0.5609  0.4502
   23SAPC   H7R 3024   5.115   5.827   9.987  3.9439 -0.8122 -2.0106
   23SAPC   H7S 3025   5.142   5.952   9.862 -0.7719  0.8053  1.6716
   23SAPC   C28 3026   5.036   5.772   9.803 -0.1934  0.6382 -0.5392
   23SAPC   H8R 3027   5.022   5.672   9.847  2.3045  0.1934 -0.6640
   23SAPC   C29 3028   5.016   5.789   9.670 -0.6976 -0.2102  0.1741
   23SAPC   H9R 3029   4.995   5.699   9.609  1.0231 -0.5443  0.0547
   23SAPC  C210 3030   5.027   5.917   9.590 -0.1695  0.7636  0.2560
   23SAPC  H10R 3031   5.133   5.911   9.555  0.2448 -1.3361  1.7696
   23SAPC  H10S 3032   5.021   5.999   9.665  3.7892  0.0549  1.4779
   23SAPC  C211 3033   4.912   5.912   9.489 -0.4266  0.1889 -1.0070
   23SAPC  H11R 3034   4.812   5.886   9.525  0.1368 -1.9816 -0.9112
   23SAPC  C212 3035   4.915   5.921   9.355  0.6886  0.7115  0.7837
   23SAPC  H12R 3036   4.819   5.923   9.301 -0.6915 -0.3308  3.1323
   23SAPC  C213 3037   5.040   5.939   9.264 -0.9896  0.8051 -0.3855
   23SAPC  H13R 3038   5.119   5.964   9.338 -0.9193 -0.0988 -0.1467
   23SAPC  H13S 3039   5.022   6.031   9.204 -0.2926  0.1698 -1.5904
   23SAPC  C214 3040   5.080   5.825   9.170  0.4428 -0.2592  0.0542
   23SAPC  H14R 3041   5.155   5.749   9.197 -1.0408 -2.0462 -0.7178
   23SAPC  C215 3042   5.031   5.816   9.042 -0.2079  0.1950 -0.8960
   23SAPC  H15R 3043   5.058   5.739   8.968 -1.8410 -1.6473  0.3723
   23SAPC  C216 3044   4.943   5.922   8.983  0.3089 -0.4514  0.1189
   23SAPC  H16R 3045   4.877   5.976   9.054 -1.3211 -1.4771 -0.5813
   23SAPC  H16S 3046   4.864   5.873   8.923 -0.1455 -1.7952  1.7917
   23SAPC  C217 3047   5.026   6.018   8.901 -0.1142 -0.5631  0.2228
   23SAPC  H17R 3048   5.052   5.972   8.803 -0.5033 -2.8171  1.1489
   23SAPC  H17S 3049   5.125   6.048   8.942 -1.2871  0.2809  2.4635
   23SAPC  C218 3050   4.941   6.148   8.866 -0.0182 -0.2007  1.4701
   23SAPC  H18R 3051   4.900   6.197   8.957 -2.7045 -1.1106  0.8088
   23SAPC  H18S 3052   4.857   6.103   8.809  0.0312  0.2441  1.0423
   23SAPC  C219 3053   5.018   6.262   8.789 -0.1103 -0.0224  0.1342
   23SAPC  H19R 3054   5.042   6.229   8.686 -3.9026  3.6820 -2.1146
   23SAPC  H19S 3055   5.117   6.285   8.833  0.7708  0.5836 -2.1121
   23SAPC  C220 3056   4.944   6.397   8.788 -0.4116  0.5894 -0.3985
   23SAPC  H20R 3057   4.991   6.488   8.746  0.9086 -0.5142 -1.3356
   23SAPC  H20S 3058   4.933   6.433   8.893  0.1502  0.3040 -0.2417
   23SAPC  H20T 3059   4.846   6.373   8.741 -0.7829  0.4769  0.4198
   23SAPC   C33 3060   5.678   6.222  10.091  0.2730 -0.0498 -0.4386
   23SAPC   H3X 3061   5.781   6.186  10.110  0.5622  1.0140  0.0635
   23SAPC   H3Y 3062   5.677   6.318  10.147  2.7486  1.3783 -2.7046
   23SAPC   C34 3063   5.657   6.245   9.943  0.0304 -0.1205 -0.0418
   23SAPC   H4X 3064   5.572   6.315   9.928 -0.7392 -0.9038  0.5555
   23SAPC   H4Y 3065   5.617   6.147   9.908  0.2320 -0.6579  1.1875
   23SAPC   C35 3066   5.781   6.291   9.871 -0.8784  0.3365  0.1739
   23SAPC   H5X 3067   5.854   6.208   9.861  0.9199  1.7880  0.7853
   23SAPC   H5Y 3068   5.838   6.372   9.923  1.4058 -0.3701 -1.1338
   23SAPC   C36 3069   5.749   6.335   9.734 -0.5254  0.5484  0.6335
   23SAPC   H6X 3070   5.685   6.425   9.727 -1.5492 -0.1193  1.3373
   23SAPC   H6Y 3071   5.683   6.254   9.696 -0.8736 -0.3525  3.0695
   23SAPC   C37 3072   5.867   6.373   9.654 -0.3439  0.3711  0.0487
   23SAPC   H7X 3073   5.946   6.295   9.666  1.9285  2.3275 -1.5763
   23SAPC   H7Y 3074   5.913   6.469   9.683 -1.6754  1.5449 -1.6227
   23SAPC   C38 3075   5.846   6.393   9.506 -0.0571 -0.3245 -0.2266
   23SAPC   H8X 3076   5.766   6.467   9.489  0.3867 -0.0151 -0.9953
   23SAPC   H8Y 3077   5.816   6.295   9.462  2.4346 -1.2717  0.0871
   23SAPC   C39 3078   5.974   6.441   9.431 -0.3439 -0.5593  0.0690
   23SAPC   H9X 3079   6.063   6.400   9.483 -0.3794  1.5108  1.8161
   23SAPC   H9Y 3080   5.985   6.551   9.436  0.1146 -0.6291  0.6266
   23SAPC  C310 3081   5.981   6.386   9.283 -0.3118 -0.6684 -0.2353
   23SAPC  H10X 3082   5.969   6.276   9.283 -0.1798 -0.7058  2.0591
   23SAPC  H10Y 3083   6.076   6.404   9.228 -1.2399  2.3857 -0.9809
   23SAPC  C311 3084   5.870   6.448   9.190 -0.4610 -0.1479  0.1075
   23SAPC  H11X 3085   5.889   6.557   9.193  1.6638 -0.4730 -0.8247
   23SAPC  H11Y 3086   5.770   6.430   9.236 -1.0199  0.7784 -0.7223
   23SAPC  C312 3087   5.882   6.408   9.043 -1.0970  0.1758 -0.0907
   23SAPC  H12X 3088   5.785   6.430   8.993  0.0674  1.9797 -1.6305
   23SAPC  H12Y 3089   5.884   6.297   9.031  1.4489  0.1783  0.0086
   23SAPC  C313 3090   5.986   6.487   8.968  0.4253 -0.4718 -0.1514
   23SAPC  H13X 3091   6.091   6.464   8.999  0.5324 -1.6086 -1.2964
   23SAPC  H13Y 3092   5.974   6.597   8.980  1.4191 -0.4807  1.0109
   23SAPC  C314 3093   5.968   6.464   8.814  0.5418  0.0600 -0.4593
   23SAPC  H14X 3094   5.865   6.494   8.786  0.2950 -2.2065 -2.1077
   23SAPC  H14Y 3095   5.960   6.355   8.799 -3.6873  0.1225  0.7110
   23SAPC  C315 3096   6.071   6.533   8.729 -0.3974 -0.1032 -0.2333
   23SAPC  H15X 3097   6.069   6.525   8.618  0.3583  2.0704 -0.4246
   23SAPC  H15Y 3098   6.172   6.506   8.767 -0.0970 -0.8808 -1.5414
   23SAPC  C316 3099   6.060   6.687   8.748 -0.0657 -0.7727  0.2846
   23SAPC  H16X 3100   6.079   6.735   8.846 -3.8653 -1.9521  1.6852
   23SAPC  H16Y 3101   5.952   6.706   8.735 -0.4035 -2.3020  0.7101
   23SAPC  C317 3102   6.140   6.763   8.644 -0.4809  0.0590 -0.3963
   23SAPC  H17X 3103   6.117   6.871   8.632  1.9971  0.7232  0.5261
   23SAPC  H17Y 3104   6.109   6.721   8.546 -0.5220 -2.2778  0.5852
   23SAPC  C318 3105   6.291   6.736   8.666  0.5516  0.3919  0.3528
   23SAPC  H18X 3106   6.325   6.631   8.653 -0.5556 -0.2409  2.2550
   23SAPC  H18Y 3107   6.329   6.763   8.767  0.3727  0.0074  0.5243
   23SAPC  H18Z 3108   6.356   6.793   8.597  1.3333  1.1046  1.6481
   24SAPC     N 3109   0.277   6.543  11.301  0.3727  0.2030 -0.3185
   24SAPC   C12 3110   0.400   6.585  11.221 -0.0006 -0.2946 -0.1540
   24SAPC  H12A 3111   0.486   6.527  11.251  3.2014  3.0970 -2.3719
   24SAPC  H12B 3112   0.426   6.684  11.256 -1.8545 -0.3394  1.4203
   24SAPC   C13 3113   0.184   6.664  11.303  0.1450 -0.0754  0.0403
   24SAPC  H13A 3114   0.091   6.651  11.357  0.9146  0.8835  1.6080
   24SAPC  H13B 3115   0.235   6.749  11.343  1.0910 -0.8524  0.4947
   24SAPC  H13C 3116   0.160   6.690  11.201  0.1196  0.0189  0.0705
   24SAPC   C14 3117   0.206   6.428  11.236  0.5758  0.3566 -0.9498
   24SAPC  H14A 3118   0.152   6.453  11.145  0.6158  1.9159 -0.5529
   24SAPC  H14B 3119   0.278   6.348  11.222  0.1854 -0.2366  0.4045
   24SAPC  H14C 3120   0.127   6.381  11.292 -0.0772  2.5305 -0.0241
   24SAPC   C15 3121   0.322   6.498  11.439 -0.3904  0.2698 -0.2130
   24SAPC  H15A 3122   0.246   6.434  11.480 -0.1921 -0.2985 -0.7364
   24SAPC  H15B 3123   0.427   6.476  11.455 -0.6244 -0.3222  0.5377
   24SAPC  H15C 3124   0.295   6.578  11.507  0.4645 -0.3071  0.8215
   24SAPC   C11 3125   0.389   6.593  11.071  0.4684 -1.0455  0.0290
   24SAPC  H11A 3126   0.356   6.500  11.020  0.1205  0.9182 -3.5297
   24SAPC  H11B 3127   0.493   6.604  11.032 -0.0784 -0.0509 -1.1987
   24SAPC     P 3128   0.351   6.844  10.991  0.0928 -0.5512 -0.0032
   24SAPC   O13 3129   0.262   6.938  11.071 -0.3481  0.1375 -0.0241
   24SAPC   O14 3130   0.498   6.852  11.003  0.4104 -0.5053 -0.3445
   24SAPC   O12 3131   0.297   6.696  11.031 -0.0352 -0.2794  0.4346
   24SAPC   O11 3132   0.304   6.851  10.840 -0.1178  0.1500  0.4554
   24SAPC    C1 3133   0.256   6.750  10.758  0.6006  0.0249 -0.6274
   24SAPC    HA 3134   0.316   6.658  10.774 -0.1951 -0.1297  1.6921
   24SAPC    HB 3135   0.153   6.728  10.795  0.7956 -1.0028 -0.6808
   24SAPC    C2 3136   0.274   6.792  10.607 -0.0706  0.3301 -0.2238
   24SAPC    HS 3137   0.232   6.715  10.539  1.3672 -1.5650  0.9774
   24SAPC   O21 3138   0.412   6.814  10.564  0.1988  0.0229  0.2898
   24SAPC   C21 3139   0.506   6.731  10.572 -0.3096  0.5096 -0.0262
   24SAPC   O22 3140   0.492   6.611  10.598  0.0770  0.4655  0.0477
   24SAPC   C22 3141   0.638   6.792  10.528  0.3168 -0.6257 -0.1591
   24SAPC   H2R 3142   0.699   6.808  10.619 -0.1664 -0.7082  0.1815
   24SAPC   H2S 3143   0.700   6.723  10.467  1.0714  0.5236 -0.7055
   24SAPC    C3 3144   0.189   6.922  10.589  0.3051  0.4547  0.5222
   24SAPC    HX 3145   0.205   7.002  10.664  2.5365 -0.4124  0.9923
   24SAPC    HY 3146   0.083   6.887  10.591  0.8184 -1.0428  2.4346
   24SAPC   O31 3147   0.229   6.984  10.470  0.4458 -0.7124  0.2191
   24SAPC   C31 3148   0.135   7.062  10.417 -0.6243 -0.6217 -0.6196
   24SAPC   O32 3149   0.026   7.076  10.475 -0.6142 -0.6413 -0.4407
   24SAPC   C32 3150   0.172   7.123  10.281  0.7619 -0.4936  0.4725
   24SAPC   H2X 3151   0.282   7.140  10.284  0.8517 -0.9233 -0.2269
   24SAPC   H2Y 3152   0.130   7.221  10.251 -3.0652 -2.0113  0.5378
   24SAPC   C23 3153   0.634   6.916  10.443 -0.1059 -0.0198 -0.1160
   24SAPC   H3R 3154   0.740   6.946  10.462  0.3694 -1.1553 -0.9430
   24SAPC   H3S 3155   0.572   6.995  10.490 -0.4927 -0.2722 -0.1988
   24SAPC   C24 3156   0.602   6.897  10.289 -0.5426  0.1380 -0.5802
   24SAPC   H4R 3157   0.493   6.914  10.277 -0.5802 -0.8094 -1.6767
   24SAPC   H4S 3158   0.614   6.789  10.266  0.6954  0.1508 -0.0005
   24SAPC   C25 3159   0.671   6.998  10.201  0.1899 -0.0381  0.1483
   24SAPC   H5R 3160   0.719   7.082  10.254 -0.5033  0.1621  0.4686
   24SAPC   C26 3161   0.701   6.993  10.071  0.0272 -0.3579  0.4623
   24SAPC   H6R 3162   0.754   7.077  10.024  0.6258 -0.1215  1.5610
   24SAPC   C27 3163   0.665   6.874   9.983 -0.2796  0.3292  0.1814
   24SAPC   H7R 3164   0.617   6.921   9.895 -0.4246 -0.3093 -0.0879
   24SAPC   H7S 3165   0.580   6.819  10.030 -0.7180  0.9014  0.0722
   24SAPC   C28 3166   0.793   6.793   9.954 -0.0110 -0.2351  0.4192
   24SAPC   H8R 3167   0.867   6.791  10.036  0.1448 -0.2501  0.2804
   24SAPC   C29 3168   0.828   6.748   9.835 -0.3084 -0.9054  0.1471
   24SAPC   H9R 3169   0.919   6.689   9.820 -1.5038 -2.5858 -0.6058
   24SAPC  C210 3170   0.754   6.765   9.702 -0.5775 -0.0297 -0.6856
   24SAPC  H10R 3171   0.795   6.849   9.641  1.2203  0.2693  0.8979
   24SAPC  H10S 3172   0.648   6.794   9.722 -0.5359 -0.6031  0.4076
   24SAPC  C211 3173   0.765   6.639   9.617 -0.1973 -0.9273 -0.6704
   24SAPC  H11R 3174   0.846   6.572   9.646  0.6456 -0.1280 -1.1360
   24SAPC  C212 3175   0.681   6.598   9.520  0.0375 -0.1382 -0.9057
   24SAPC  H12R 3176   0.700   6.503   9.467 -0.6138 -0.4219 -0.6427
   24SAPC  C213 3177   0.554   6.671   9.483 -0.7713  1.0237  0.7944
   24SAPC  H13R 3178   0.577   6.778   9.461  4.2611 -0.1411 -0.2219
   24SAPC  H13S 3179   0.497   6.681   9.578 -0.2359 -1.3332  1.3952
   24SAPC  C214 3180   0.459   6.617   9.376 -0.0536  0.0826  0.2098
   24SAPC  H14R 3181   0.398   6.529   9.397 -0.5380 -0.2244 -2.3052
   24SAPC  C215 3182   0.463   6.665   9.253  0.3911  0.0843  0.3744
   24SAPC  H15R 3183   0.383   6.629   9.186  0.6024  1.1744 -0.4833
   24SAPC  C216 3184   0.555   6.768   9.193 -0.5517 -0.0766 -0.2241
   24SAPC  H16R 3185   0.649   6.786   9.250 -0.9187  0.4063  0.2392
   24SAPC  H16S 3186   0.506   6.867   9.184 -0.9662 -0.3043 -0.4953
   24SAPC  C217 3187   0.602   6.716   9.058  0.0953  0.0179  0.5449
   24SAPC  H17R 3188   0.664   6.799   9.017  0.0166 -0.9245 -1.5701
   24SAPC  H17S 3189   0.514   6.701   8.992  0.0002  1.0329  0.4345
   24SAPC  C218 3190   0.681   6.583   9.048 -0.3990  0.3293 -0.0040
   24SAPC  H18R 3191   0.697   6.559   8.941  2.3659 -2.5182  0.9512
   24SAPC  H18S 3192   0.622   6.497   9.086  0.2003 -0.1993 -0.2495
   24SAPC  C219 3193   0.814   6.588   9.123  0.1117  0.4615  0.2810
   24SAPC  H19R 3194   0.791   6.615   9.228  0.6488 -0.2277  0.5876
   24SAPC  H19S 3195   0.873   6.671   9.078 -1.2947 -0.2948 -3.0312
   24SAPC  C220 3196   0.880   6.448   9.117  0.8023 -0.0638  0.4920
   24SAPC  H20R 3197   0.845   6.400   9.023  0.2929 -0.0979  0.6956
   24SAPC  H20S 3198   0.869   6.392   9.212  1.3596  0.0027  0.5976
   24SAPC  H20T 3199   0.986   6.467   9.089  0.3839  0.2671 -0.9089
   24SAPC   C33 3200   0.135   7.038  10.151  0.4594 -0.0307 -0.1235
   24SAPC   H3X 3201   0.024   7.036  10.142  0.2960  2.2870  0.9361
   24SAPC   H3Y 3202   0.184   6.939  10.161  1.1960  0.4346  0.9621
   24SAPC   C34 3203   0.191   7.101  10.013 -0.2629 -0.3494  0.2600
   24SAPC   H4X 3204   0.300   7.122  10.025 -0.3220  1.5502 -2.2456
   24SAPC   H4Y 3205   0.149   7.202   9.996  2.9776  0.8844 -0.7120
   24SAPC   C35 3206   0.173   7.004   9.894 -0.2823  0.1423 -0.4150
   24SAPC   H5X 3207   0.074   6.958   9.912  1.0415 -2.2703  1.0697
   24SAPC   H5Y 3208   0.256   6.930   9.902 -0.2538  0.1811 -0.3623
   24SAPC   C36 3209   0.194   7.074   9.761 -0.6551  0.0132  0.3315
   24SAPC   H6X 3210   0.289   7.129   9.746 -1.1749  0.9518  0.4256
   24SAPC   H6Y 3211   0.117   7.153   9.744 -1.3401 -0.4663  1.1635
   24SAPC   C37 3212   0.174   6.974   9.646  0.1637  0.1475  0.1768
   24SAPC   H7X 3213   0.086   6.909   9.666  1.1662 -1.2238  0.2331
   24SAPC   H7Y 3214   0.266   6.911   9.640  0.1759 -0.1491  3.0376
   24SAPC   C38 3215   0.161   7.038   9.509 -0.2297 -0.2853 -0.4607
   24SAPC   H8X 3216   0.247   7.108   9.504 -0.4866 -0.0566 -1.9141
   24SAPC   H8Y 3217   0.069   7.098   9.494 -0.3092  0.6001  3.1625
   24SAPC   C39 3218   0.184   6.937   9.394  0.0748 -0.1879  0.1562
   24SAPC   H9X 3219   0.102   6.862   9.386 -1.5610  1.6677 -1.1272
   24SAPC   H9Y 3220   0.273   6.873   9.413  0.5601  0.1101 -1.0635
   24SAPC  C310 3221   0.186   6.991   9.235 -0.0178  0.2317  0.1925
   24SAPC  H10X 3222   0.285   7.039   9.221  0.2917 -0.3535  0.3858
   24SAPC  H10Y 3223   0.104   7.066   9.226 -0.6948 -0.3860  1.1599
   24SAPC  C311 3224   0.167   6.873   9.146  0.5330  0.4651  0.6607
   24SAPC  H11X 3225   0.059   6.847   9.155  0.6212  0.3537  1.4216
   24SAPC  H11Y 3226   0.228   6.786   9.180  0.4435  0.2839  0.3595
   24SAPC  C312 3227   0.219   6.907   9.001  0.1193 -0.0931 -0.5761
   24SAPC  H12X 3228   0.328   6.926   9.012 -0.2984  1.4210  1.1977
   24SAPC  H12Y 3229   0.176   7.002   8.963  0.9012 -0.1708 -1.6851
   24SAPC  C313 3230   0.208   6.816   8.880 -0.1153  0.2192  0.0321
   24SAPC  H13X 3231   0.104   6.777   8.878 -0.7103  1.5927  2.2821
   24SAPC  H13Y 3232   0.265   6.722   8.900 -1.0528  0.1092  2.3356
   24SAPC  C314 3233   0.256   6.880   8.747 -0.3214 -0.4057 -0.1139
   24SAPC  H14X 3234   0.365   6.896   8.741 -0.1657 -0.2283  2.6114
   24SAPC  H14Y 3235   0.221   6.985   8.745 -2.0399 -0.9553 -0.1454
   24SAPC  C315 3236   0.201   6.808   8.615 -0.4037  0.1018 -0.4154
   24SAPC  H15X 3237   0.226   6.878   8.533  0.9583  0.8809  0.6415
   24SAPC  H15Y 3238   0.094   6.776   8.618 -0.2546 -0.5745 -1.9251
   24SAPC  C316 3239   0.288   6.677   8.585 -0.1189  0.0184 -0.2902
   24SAPC  H16X 3240   0.240   6.585   8.625 -2.1074 -0.2618 -3.1764
   24SAPC  H16Y 3241   0.391   6.680   8.627  0.2524 -1.0769 -1.0695
   24SAPC  C317 3242   0.315   6.652   8.432 -0.1444 -0.8114  0.6620
   24SAPC  H17X 3243   0.362   6.734   8.375  0.5035 -0.8172  1.1847
   24SAPC  H17Y 3244   0.213   6.634   8.390  0.6868 -2.3512 -0.7475
   24SAPC  C318 3245   0.406   6.530   8.404 -0.5211  0.4438  0.3942
   24SAPC  H18X 3246   0.508   6.543   8.445  0.2085 -1.7567 -0.6132
   24SAPC  H18Y 3247   0.422   6.497   8.299 -1.7226 -0.6358  0.5286
   24SAPC  H18Z 3248   0.362   6.441   8.455  0.7582  0.6968  1.9726
   25SAPC     N 3249   4.120   4.536   6.235 -0.3540  0.4085  0.1714
   25SAPC   C12 3250   4.068   4.398   6.280 -0.3716  0.3073 -0.5253
   25SAPC  H12A 3251   3.978   4.411   6.338  0.9522 -0.2276  1.7294
   25SAPC  H12B 3252   4.146   4.355   6.342 -0.9824  0.3502  0.2852
   25SAPC   C13 3253   4.014   4.592   6.151  0.1453  0.0561  0.1635
   25SAPC  H13A 3254   3.924   4.599   6.210  1.0006  1.1865  1.3662
   25SAPC  H13B 3255   4.045   4.692   6.127 -2.4957  0.9462  0.2246
   25SAPC  H13C 3256   4.003   4.531   6.062  1.1992  1.2576 -0.7996
   25SAPC   C14 3257   4.137   4.621   6.359 -0.3723  0.3654  0.3574
   25SAPC  H14A 3258   4.183   4.572   6.443  1.1263 -0.5163 -0.9474
   25SAPC  H14B 3259   4.211   4.698   6.340 -1.5700  1.3826 -0.2730
   25SAPC  H14C 3260   4.046   4.667   6.394 -0.9238 -0.2564 -0.2355
   25SAPC   C15 3261   4.246   4.518   6.175  0.3436 -0.2346  0.1175
   25SAPC  H15A 3262   4.287   4.611   6.137  0.8874 -0.9293 -1.0380
   25SAPC  H15B 3263   4.319   4.473   6.241  0.9760  2.7076  1.4927
   25SAPC  H15C 3264   4.241   4.439   6.101  0.4156  0.1497 -0.3010
   25SAPC   C11 3265   4.053   4.284   6.170 -0.3195 -0.5890 -0.1685
   25SAPC  H11A 3266   4.030   4.190   6.223  1.1629 -1.5689 -1.2242
   25SAPC  H11B 3267   4.151   4.280   6.118  1.3594 -0.9292  2.9031
   25SAPC     P 3268   3.786   4.287   6.129 -0.2582 -0.0974  0.0616
   25SAPC   O13 3269   3.717   4.415   6.117  0.1712 -0.3563  0.5647
   25SAPC   O14 3270   3.734   4.176   6.046 -0.0604  0.9604 -0.5081
   25SAPC   O12 3271   3.939   4.311   6.079 -0.6348  0.6440  0.4014
   25SAPC   O11 3272   3.787   4.243   6.282  0.2925  0.2690  0.2522
   25SAPC    C1 3273   3.658   4.222   6.342 -0.0734  0.4652 -1.3777
   25SAPC    HA 3274   3.609   4.322   6.340 -1.9745 -0.4358 -1.4116
   25SAPC    HB 3275   3.596   4.143   6.295  0.1639 -2.2494  2.5940
   25SAPC    C2 3276   3.679   4.172   6.491 -0.2017 -0.0858 -0.0325
   25SAPC    HS 3277   3.741   4.253   6.536  0.8280 -0.0730 -1.4532
   25SAPC   O21 3278   3.745   4.043   6.477 -0.3811 -0.8608  0.3731
   25SAPC   C21 3279   3.876   4.036   6.474  0.7277  0.7511 -0.0855
   25SAPC   O22 3280   3.954   4.126   6.480 -0.3928  0.2114  0.0735
   25SAPC   C22 3281   3.913   3.897   6.460  0.3365  0.2068  0.4766
   25SAPC   H2R 3282   3.851   3.853   6.378 -0.6338  1.0073  0.7606
   25SAPC   H2S 3283   4.016   3.897   6.419 -0.9242 -0.8762 -2.8716
   25SAPC    C3 3284   3.542   4.156   6.580  0.9440  0.7356 -0.2964
   25SAPC    HX 3285   3.475   4.099   6.512  2.1351 -0.4260 -0.5149
   25SAPC    HY 3286   3.493   4.250   6.615 -0.9539 -0.8038  1.3483
   25SAPC   O31 3287   3.548   4.066   6.695  0.4339 -0.2412  0.8938
   25SAPC   C31 3288   3.609   4.117   6.796 -0.2146 -0.5742 -0.6743
   25SAPC   O32 3289   3.681   4.218   6.793 -0.2296 -0.0393  0.2132
   25SAPC   C32 3290   3.582   4.035   6.920  0.1998  0.1237  0.5274
   25SAPC   H2X 3291   3.624   3.934   6.905 -1.3107 -0.5391  0.6109
   25SAPC   H2Y 3292   3.471   4.033   6.934  0.3392  2.8591  2.5998
   25SAPC   C23 3293   3.898   3.813   6.586 -0.1476  0.0709  0.0039
   25SAPC   H3R 3294   3.923   3.710   6.554  1.0236  0.6803 -1.1017
   25SAPC   H3S 3295   3.799   3.805   6.636  1.0661  1.5093  2.7402
   25SAPC   C24 3296   4.000   3.844   6.700  0.4147 -0.4429  0.1861
   25SAPC   H4R 3297   3.978   3.942   6.747  0.3705 -0.3444 -0.0431
   25SAPC   H4S 3298   4.100   3.854   6.653 -0.5667  1.2376 -1.5992
   25SAPC   C25 3299   4.011   3.738   6.808  0.6851 -0.4713  0.1724
   25SAPC   H5R 3300   3.997   3.637   6.769 -0.6605 -0.6556  1.0986
   25SAPC   C26 3301   4.038   3.753   6.941 -0.1268  0.6994  0.0294
   25SAPC   H6R 3302   4.050   3.665   7.007  0.2463  0.5769 -0.2032
   25SAPC   C27 3303   4.082   3.883   6.997  0.3195 -0.2860 -0.6773
   25SAPC   H7R 3304   4.083   3.966   6.923 -1.7395  2.1140  1.8723
   25SAPC   H7S 3305   4.183   3.876   7.044 -0.8507 -0.7082  1.8298
   25SAPC   C28 3306   3.985   3.923   7.105 -0.1246 -0.0225 -0.5110
   25SAPC   H8R 3307   3.881   3.924   7.071 -0.4219 -0.6171  0.3468
   25SAPC   C29 3308   4.008   3.946   7.235 -0.2178 -0.2007 -0.1694
   25SAPC   H9R 3309   3.925   3.977   7.301 -0.9884 -0.7134 -0.8856
   25SAPC  C210 3310   4.142   3.954   7.305 -0.1349  0.0273 -0.0336
   25SAPC  H10R 3311   4.142   4.045   7.368  0.1643  0.5529 -0.7907
   25SAPC  H10S 3312   4.220   3.979   7.230 -0.6367 -0.2686 -0.6631
   25SAPC  C211 3313   4.178   3.829   7.387  0.0514 -0.0396  0.3068
   25SAPC  H11R 3314   4.213   3.740   7.333  2.3158 -0.1085  1.8036
   25SAPC  C212 3315   4.177   3.811   7.516 -0.3147 -0.0570  0.3392
   25SAPC  H12R 3316   4.216   3.721   7.566  1.0060  0.3487  0.0584
   25SAPC  C213 3317   4.137   3.914   7.618 -0.4466  0.0403  0.4719
   25SAPC  H13R 3318   4.065   3.987   7.577 -0.1589  0.0177 -0.0842
   25SAPC  H13S 3319   4.226   3.973   7.651 -1.9364  0.9440  2.9630
   25SAPC  C214 3320   4.067   3.858   7.733 -0.0072 -0.7812 -0.2343
   25SAPC  H14R 3321   3.961   3.835   7.717 -0.6788  1.1244  1.3002
   25SAPC  C215 3322   4.111   3.828   7.859 -0.2678  0.1054  0.2413
   25SAPC  H15R 3323   4.046   3.772   7.927  2.6773 -2.2667  1.1915
   25SAPC  C216 3324   4.251   3.852   7.907  0.1389 -0.1063 -0.0057
   25SAPC  H16R 3325   4.286   3.957   7.915  0.8566 -0.3939  0.7306
   25SAPC  H16S 3326   4.329   3.811   7.839  0.7466  0.5030  0.3235
   25SAPC  C217 3327   4.291   3.784   8.039 -0.9788 -0.0940  0.4041
   25SAPC  H17R 3328   4.396   3.813   8.060 -1.0624  0.0482  0.6223
   25SAPC  H17S 3329   4.282   3.673   8.043 -0.9135 -0.1941 -1.6665
   25SAPC  C218 3330   4.226   3.858   8.159  0.2592 -0.1295  0.1552
   25SAPC  H18R 3331   4.120   3.826   8.169 -0.0509  0.4237 -1.2838
   25SAPC  H18S 3332   4.243   3.964   8.130  0.0416 -0.5027 -1.3652
   25SAPC  C219 3333   4.302   3.836   8.292  0.7116  0.0398 -0.4136
   25SAPC  H19R 3334   4.397   3.892   8.291  1.4714 -0.9741  3.7413
   25SAPC  H19S 3335   4.323   3.727   8.304 -2.5195 -0.5395  0.7872
   25SAPC  C220 3336   4.220   3.901   8.404  0.2807  0.4395 -0.1128
   25SAPC  H20R 3337   4.198   4.008   8.386 -0.5529  0.3132  0.1342
   25SAPC  H20S 3338   4.265   3.885   8.504  2.7594 -1.9019 -1.5369
   25SAPC  H20T 3339   4.122   3.850   8.418  1.2301 -1.4158 -0.1210
   25SAPC   C33 3340   3.636   4.101   7.048  0.7387  1.2340 -0.7493
   25SAPC   H3X 3341   3.582   4.195   7.073 -0.5228  0.9321 -2.2738
   25SAPC   H3Y 3342   3.743   4.129   7.049  1.5691 -1.6866 -1.6455
   25SAPC   C34 3343   3.629   4.011   7.170 -0.3093  0.2882  0.4060
   25SAPC   H4X 3344   3.720   3.948   7.167 -0.3847  0.2415 -0.8257
   25SAPC   H4Y 3345   3.536   3.952   7.156  0.2234 -0.4231 -0.1779
   25SAPC   C35 3346   3.630   4.087   7.297 -0.0190 -0.3007 -0.9740
   25SAPC   H5X 3347   3.541   4.153   7.298 -0.5243 -0.8916 -3.5900
   25SAPC   H5Y 3348   3.714   4.160   7.299 -1.2092  1.0588 -0.1147
   25SAPC   C36 3349   3.643   3.998   7.421 -0.0072  0.7375 -0.3668
   25SAPC   H6X 3350   3.719   3.919   7.404 -2.3481 -0.7492 -4.5161
   25SAPC   H6Y 3351   3.552   3.935   7.433  1.7533 -1.5581  1.5962
   25SAPC   C37 3352   3.672   4.070   7.555 -0.1693  0.4622  0.1727
   25SAPC   H7X 3353   3.585   4.135   7.578  1.1791  2.7145 -0.9233
   25SAPC   H7Y 3354   3.771   4.121   7.551  0.7234 -1.1242  1.2025
   25SAPC   C38 3355   3.683   3.973   7.677  1.0908  0.1762  0.3883
   25SAPC   H8X 3356   3.740   3.881   7.655  0.6210 -0.1727  0.6075
   25SAPC   H8Y 3357   3.584   3.928   7.702  0.4933  1.2306 -0.0143
   25SAPC   C39 3358   3.737   4.040   7.800 -0.5928  0.1246  0.2233
   25SAPC   H9X 3359   3.700   4.144   7.796  1.6051  0.9304  0.1653
   25SAPC   H9Y 3360   3.846   4.054   7.785 -0.4339  0.4579  1.6013
   25SAPC  C310 3361   3.700   3.958   7.927 -0.3273  0.9515  0.2883
   25SAPC  H10X 3362   3.754   3.861   7.930  1.9832  2.2054  0.2954
   25SAPC  H10Y 3363   3.593   3.929   7.931  0.3415 -1.6896 -0.0968
   25SAPC  C311 3364   3.730   4.029   8.059 -0.7821 -0.5389  0.5225
   25SAPC  H11X 3365   3.657   3.991   8.135  0.6881  1.2946  2.9388
   25SAPC  H11Y 3366   3.725   4.139   8.054  2.8945 -0.3885 -0.9802
   25SAPC  C312 3367   3.875   4.000   8.101  0.6070 -0.3118 -0.7830
   25SAPC  H12X 3368   3.956   4.023   8.028 -0.7683  0.0633 -2.2055
   25SAPC  H12Y 3369   3.887   3.889   8.104  0.8715 -0.2413  1.3175
   25SAPC  C313 3370   3.901   4.056   8.239  0.4452 -0.3687 -0.1361
   25SAPC  H13X 3371   3.890   4.166   8.239  1.3076 -0.2690  1.5510
   25SAPC  H13Y 3372   4.003   4.029   8.275  0.7774  5.3082  3.7414
   25SAPC  C314 3373   3.808   4.010   8.353  0.4267 -0.3698  0.7700
   25SAPC  H14X 3374   3.810   3.899   8.359  0.8702 -0.3537  0.9472
   25SAPC  H14Y 3375   3.702   4.039   8.335  1.4436  3.3666  0.3311
   25SAPC  C315 3376   3.844   4.072   8.493 -0.5438 -0.0241  0.5639
   25SAPC  H15X 3377   3.867   4.180   8.481  0.2745  0.0407  2.6440
   25SAPC  H15Y 3378   3.921   4.023   8.555  1.3800  1.9475 -0.2038
   25SAPC  C316 3379   3.730   4.079   8.595 -1.0015 -0.1998  0.0282
   25SAPC  H16X 3380   3.700   3.976   8.627 -0.4798 -0.1483  0.6776
   25SAPC  H16Y 3381   3.643   4.124   8.542 -2.4281 -1.9424  0.8271
   25SAPC  C317 3382   3.760   4.170   8.720 -0.9767  0.3362  0.7766
   25SAPC  H17X 3383   3.746   4.276   8.689 -0.1559  0.7898  1.9079
   25SAPC  H17Y 3384   3.865   4.148   8.750 -0.8483 -0.5487 -0.3065
   25SAPC  C318 3385   3.673   4.134   8.834  0.0102 -0.2437  0.0747
   25SAPC  H18X 3386   3.673   4.027   8.865 -1.6820 -0.3201 -0.1541
   25SAPC  H18Y 3387   3.570   4.168   8.812  0.5685  0.6693 -1.1174
   25SAPC  H18Z 3388   3.702   4.194   8.923 -0.3013  2.4453 -1.6023
   26SAPC     N 3389   2.996   5.835   6.324  0.5459  0.3334 -0.0962
   26SAPC   C12 3390   3.148   5.844   6.310 -0.5319  0.0530 -0.3867
   26SAPC  H12A 3391   3.166   5.948   6.336  1.2451 -0.2896 -0.1523
   26SAPC  H12B 3392   3.195   5.831   6.214 -1.5256  0.8446 -0.9874
   26SAPC   C13 3393   2.950   5.884   6.456 -0.2068  0.1223 -0.4174
   26SAPC  H13A 3394   2.851   5.840   6.463  0.0570 -0.5108 -0.6313
   26SAPC  H13B 3395   3.000   5.846   6.543  1.4885  0.1030 -1.3878
   26SAPC  H13C 3396   2.959   5.991   6.464  1.5201 -0.0365 -0.1079
   26SAPC   C14 3397   2.930   5.913   6.215 -0.1367  0.4939  0.2858
   26SAPC  H14A 3398   2.958   5.882   6.116  1.5372  0.8118  0.6427
   26SAPC  H14B 3399   2.823   5.899   6.221 -0.5880  1.5251 -3.9741
   26SAPC  H14C 3400   2.954   6.018   6.229  0.9750  0.1330  1.0921
   26SAPC   C15 3401   2.959   5.696   6.310  0.1697 -0.0370 -0.7310
   26SAPC  H15A 3402   2.852   5.681   6.311 -0.0302  1.2534 -1.9786
   26SAPC  H15B 3403   2.997   5.648   6.222  3.2137 -1.1104  1.0715
   26SAPC  H15C 3404   2.995   5.630   6.387  0.2343 -0.1035 -0.8190
   26SAPC   C11 3405   3.226   5.765   6.418  0.7094 -1.1506  0.5439
   26SAPC  H11A 3406   3.232   5.660   6.382  3.3678 -0.7435 -0.2824
   26SAPC  H11B 3407   3.174   5.761   6.516 -0.1923 -0.8073  0.0807
   26SAPC     P 3408   3.399   5.929   6.525 -0.2579 -0.2443 -0.6426
   26SAPC   O13 3409   3.535   5.977   6.491 -0.8670 -0.2868  0.0896
   26SAPC   O14 3410   3.287   6.027   6.513 -0.0567 -0.6018 -0.2960
   26SAPC   O12 3411   3.364   5.802   6.436  0.1239 -0.4696 -0.2309
   26SAPC   O11 3412   3.402   5.865   6.668 -0.4352 -0.0986 -0.4875
   26SAPC    C1 3413   3.462   5.737   6.688  0.6405 -0.4905 -0.3994
   26SAPC    HA 3414   3.386   5.660   6.665 -0.2352 -0.1213  1.1555
   26SAPC    HB 3415   3.558   5.726   6.633 -0.7715  1.5062 -3.4593
   26SAPC    C2 3416   3.497   5.729   6.842  0.3717  0.4736  0.4056
   26SAPC    HS 3417   3.545   5.630   6.854 -0.5705 -0.0208  0.1154
   26SAPC   O21 3418   3.374   5.737   6.920 -0.1423 -0.4340 -0.0605
   26SAPC   C21 3419   3.314   5.615   6.924 -0.0358  0.2007  0.1148
   26SAPC   O22 3420   3.356   5.517   6.866 -0.3892  0.5303 -0.2398
   26SAPC   C22 3421   3.192   5.630   7.016  0.1653 -0.0079  0.0033
   26SAPC   H2R 3422   3.225   5.692   7.102  0.0481 -0.1901  0.1780
   26SAPC   H2S 3423   3.106   5.674   6.961 -0.2028  0.6741  1.1061
   26SAPC    C3 3424   3.608   5.824   6.887 -0.1945  0.1517 -0.0327
   26SAPC    HX 3425   3.569   5.925   6.912  0.0654 -0.1477  1.6518
   26SAPC    HY 3426   3.688   5.837   6.811 -1.6057  0.5378 -1.4863
   26SAPC   O31 3427   3.666   5.777   7.014 -0.6304  0.6882 -0.2741
   26SAPC   C31 3428   3.769   5.686   6.997  0.1900  0.4404 -0.4444
   26SAPC   O32 3429   3.811   5.654   6.888 -0.3653  0.2601  0.1610
   26SAPC   C32 3430   3.819   5.637   7.135  0.3421 -0.0294 -0.3491
   26SAPC   H2X 3431   3.798   5.709   7.217 -2.6535 -2.6290  1.3199
   26SAPC   H2Y 3432   3.929   5.625   7.129  0.5591  1.3372  0.8387
   26SAPC   C23 3433   3.145   5.495   7.071  0.2229 -0.4095 -0.2534
   26SAPC   H3R 3434   3.235   5.451   7.119  0.1787  0.8803  1.0567
   26SAPC   H3S 3435   3.127   5.426   6.986 -3.5818 -1.0362  0.9716
   26SAPC   C24 3436   3.022   5.513   7.165  0.0067  0.8879 -0.4887
   26SAPC   H4R 3437   3.001   5.411   7.206  0.2507  1.1741  0.3515
   26SAPC   H4S 3438   2.942   5.534   7.091 -0.1548  1.8525 -0.0460
   26SAPC   C25 3439   3.024   5.626   7.267 -0.0544  0.1066  0.4632
   26SAPC   H5R 3440   3.041   5.726   7.224 -2.5852  0.4288  0.1454
   26SAPC   C26 3441   3.018   5.619   7.399 -0.3145 -0.1945  0.1964
   26SAPC   H6R 3442   3.023   5.712   7.458 -1.6484  0.7293 -1.1038
   26SAPC   C27 3443   3.017   5.499   7.492  0.2548  0.0953  0.5291
   26SAPC   H7R 3444   2.995   5.404   7.438  0.0074 -0.0423  0.8706
   26SAPC   H7S 3445   2.935   5.508   7.567  0.0119 -2.5150  0.6198
   26SAPC   C28 3446   3.150   5.484   7.562  0.2480 -0.8021 -0.1391
   26SAPC   H8R 3447   3.239   5.499   7.500  1.3338  0.2745  1.6358
   26SAPC   C29 3448   3.179   5.476   7.693 -0.2923  0.0665  0.0883
   26SAPC   H9R 3449   3.286   5.484   7.714 -0.2434 -1.7789  0.6873
   26SAPC  C210 3450   3.082   5.458   7.806 -0.1770 -0.1760  0.0589
   26SAPC  H10R 3451   3.116   5.367   7.860 -1.0122 -0.8702 -0.5672
   26SAPC  H10S 3452   2.981   5.441   7.763  1.0075 -0.6969 -2.6076
   26SAPC  C211 3453   3.070   5.575   7.897  0.3566  0.2958  1.1197
   26SAPC  H11R 3454   3.006   5.649   7.847 -0.3102 -2.0677 -1.6853
   26SAPC  C212 3455   3.114   5.596   8.016 -0.2548 -0.5164 -0.0778
   26SAPC  H12R 3456   3.086   5.693   8.061 -0.4849 -0.2313 -0.8342
   26SAPC  C213 3457   3.197   5.503   8.104 -1.1391 -0.1434  0.4665
   26SAPC  H13R 3458   3.305   5.529   8.105 -1.5064  1.5498  3.2863
   26SAPC  H13S 3459   3.184   5.401   8.061 -2.1873  0.0470  0.3299
   26SAPC  C214 3460   3.150   5.505   8.249 -0.5858  0.9651  0.2580
   26SAPC  H14R 3461   3.055   5.550   8.279 -1.2042  0.7643 -1.3231
   26SAPC  C215 3462   3.232   5.465   8.347 -0.2521  0.9635  0.0503
   26SAPC  H15R 3463   3.190   5.448   8.448  1.1370 -1.3825  0.2800
   26SAPC  C216 3464   3.374   5.408   8.345  0.0894  0.4758  0.4488
   26SAPC  H16R 3465   3.394   5.347   8.254  1.1989  0.5937  0.6074
   26SAPC  H16S 3466   3.393   5.346   8.434 -1.1506  0.6603  0.8494
   26SAPC  C217 3467   3.483   5.514   8.344 -1.3915  0.5833 -0.5846
   26SAPC  H17R 3468   3.485   5.590   8.263 -1.1798  2.0925  0.8079
   26SAPC  H17S 3469   3.577   5.457   8.347 -1.7369  0.0330 -0.0525
   26SAPC  C218 3470   3.481   5.595   8.479 -0.2574 -0.6309  0.4475
   26SAPC  H18R 3471   3.439   5.532   8.560 -1.5018 -1.2371 -0.6695
   26SAPC  H18S 3472   3.404   5.673   8.461  1.0148  0.9611  1.6380
   26SAPC  C219 3473   3.617   5.649   8.506  0.1439  0.2525 -0.0870
   26SAPC  H19R 3474   3.639   5.714   8.418  1.5561  3.4353  2.5432
   26SAPC  H19S 3475   3.706   5.584   8.508 -0.4226 -0.6112 -1.8668
   26SAPC  C220 3476   3.607   5.741   8.626  0.4140  0.0423  0.6664
   26SAPC  H20R 3477   3.575   5.689   8.719  1.7485 -1.6016  0.2205
   26SAPC  H20S 3478   3.523   5.809   8.602  0.0650 -1.7382 -3.4890
   26SAPC  H20T 3479   3.697   5.801   8.652  2.0819 -0.9641 -2.4960
   26SAPC   C33 3480   3.766   5.501   7.180 -0.4538 -0.0911  0.0363
   26SAPC   H3X 3481   3.831   5.475   7.266  1.8505 -1.6672 -2.1021
   26SAPC   H3Y 3482   3.792   5.427   7.101  2.4287  0.6249  0.2761
   26SAPC   C34 3483   3.612   5.482   7.200  0.6553  0.4280 -0.0270
   26SAPC   H4X 3484   3.589   5.374   7.192 -0.4350  0.6468  0.0566
   26SAPC   H4Y 3485   3.566   5.528   7.109 -1.0352 -2.8234 -0.8937
   26SAPC   C35 3486   3.558   5.543   7.333 -0.3894 -0.1949 -0.9536
   26SAPC   H5X 3487   3.448   5.536   7.334 -0.3465 -1.2023 -1.7560
   26SAPC   H5Y 3488   3.570   5.653   7.343 -0.4415 -0.5245  3.4792
   26SAPC   C36 3489   3.630   5.482   7.454 -0.1740 -0.1945 -0.0046
   26SAPC   H6X 3490   3.734   5.522   7.452  0.2727 -1.2907  0.8646
   26SAPC   H6Y 3491   3.634   5.373   7.434 -2.0059 -0.5365  1.3719
   26SAPC   C37 3492   3.560   5.532   7.578 -0.0280  0.4521  0.3781
   26SAPC   H7X 3493   3.461   5.486   7.601 -0.6158 -0.3499 -3.3950
   26SAPC   H7Y 3494   3.541   5.639   7.557 -0.0607 -0.1045 -2.7796
   26SAPC   C38 3495   3.631   5.526   7.716  0.9758  0.3817  0.6222
   26SAPC   H8X 3496   3.735   5.560   7.697  0.5394  1.9798  1.0771
   26SAPC   H8Y 3497   3.628   5.423   7.757 -1.9949  1.8625  4.2915
   26SAPC   C39 3498   3.555   5.617   7.818  0.0409  0.7522  0.8129
   26SAPC   H9X 3499   3.450   5.586   7.837 -0.0936 -0.4243 -1.7683
   26SAPC   H9Y 3500   3.544   5.717   7.772  0.3853  0.8801  1.0033
   26SAPC  C310 3501   3.631   5.627   7.953  0.6597 -0.1902  0.0072
   26SAPC  H10X 3502   3.713   5.554   7.969  1.4606 -0.2372 -3.8392
   26SAPC  H10Y 3503   3.557   5.629   8.036 -1.4690  1.5514 -1.8613
   26SAPC  C311 3504   3.683   5.768   7.966 -0.0080  0.0296  0.1745
   26SAPC  H11X 3505   3.594   5.835   7.967 -0.8026 -0.9653 -1.2012
   26SAPC  H11Y 3506   3.735   5.804   7.875 -1.7494  1.4443 -0.2862
   26SAPC  C312 3507   3.768   5.786   8.090  0.0452  1.0398 -0.5881
   26SAPC  H12X 3508   3.875   5.779   8.061  0.0241  0.3260 -0.4903
   26SAPC  H12Y 3509   3.771   5.709   8.169  1.4346 -0.8264 -2.4010
   26SAPC  C313 3510   3.762   5.923   8.157  0.2112 -0.3967 -0.1285
   26SAPC  H13X 3511   3.666   5.937   8.210  0.0676 -4.9036  1.0425
   26SAPC  H13Y 3512   3.768   5.997   8.075  0.4138  0.7963  0.9327
   26SAPC  C314 3513   3.867   5.949   8.266 -0.1964  0.0301 -0.1680
   26SAPC  H14X 3514   3.971   5.946   8.228 -0.2798  0.4324 -0.4232
   26SAPC  H14Y 3515   3.864   5.867   8.342 -1.0557  1.3288  1.2334
   26SAPC  C315 3516   3.830   6.074   8.352  0.1903  0.3988 -0.2808
   26SAPC  H15X 3517   3.728   6.058   8.393 -1.5051  2.8079 -3.3608
   26SAPC  H15Y 3518   3.821   6.161   8.285 -1.7006 -0.5276 -1.2758
   26SAPC  C316 3519   3.939   6.113   8.454  0.1908 -0.7059 -0.8020
   26SAPC  H16X 3520   4.029   6.133   8.392  0.4949 -0.5709 -0.3153
   26SAPC  H16Y 3521   3.958   6.033   8.529  0.8554 -0.4295 -0.6726
   26SAPC  C317 3522   3.913   6.244   8.535 -0.4395  0.0145 -0.4102
   26SAPC  H17X 3523   3.820   6.224   8.593  1.3076 -1.8928  1.8394
   26SAPC  H17Y 3524   3.897   6.327   8.464  0.8415  0.2784 -0.3981
   26SAPC  C318 3525   4.036   6.269   8.626 -0.2687 -0.8513 -0.2135
   26SAPC  H18X 3526   4.109   6.329   8.567 -0.2709 -1.8805 -1.2831
   26SAPC  H18Y 3527   4.087   6.178   8.665  0.3677 -0.7097 -0.7074
   26SAPC  H18Z 3528   3.997   6.337   8.706 -2.3690 -0.4088 -1.5737
   27SAPC     N 3529   1.882   6.344   6.386  0.0139  0.2690 -1.2767
   27SAPC   C12 3530   1.912   6.363   6.530 -0.4304  0.5063  0.1222
   27SAPC  H12A 3531   1.862   6.451   6.567  0.9059  1.3286 -0.0258
   27SAPC  H12B 3532   2.017   6.375   6.553 -0.1506  0.0876 -0.9242
   27SAPC   C13 3533   1.956   6.222   6.337  0.4286  0.0129 -0.3817
   27SAPC  H13A 3534   1.917   6.131   6.382  0.9739 -0.1328 -0.1858
   27SAPC  H13B 3535   1.953   6.221   6.229  0.7849 -1.4389 -0.3898
   27SAPC  H13C 3536   2.060   6.229   6.368 -0.0728 -2.0334  1.9164
   27SAPC   C14 3537   1.735   6.323   6.353 -0.0245  0.1972 -0.0021
   27SAPC  H14A 3538   1.691   6.232   6.391 -1.8400  1.1015  0.1085
   27SAPC  H14B 3539   1.677   6.400   6.401  0.4731  0.5627  0.0138
   27SAPC  H14C 3540   1.718   6.319   6.246  2.1809  2.6708 -0.4874
   27SAPC   C15 3541   1.922   6.461   6.307  0.1875  0.3356 -0.1019
   27SAPC  H15A 3542   2.026   6.480   6.326 -0.5194  1.9692  2.4289
   27SAPC  H15B 3543   1.917   6.432   6.203 -0.5889 -1.3354  0.3926
   27SAPC  H15C 3544   1.870   6.553   6.331 -3.6573 -1.6123 -0.5155
   27SAPC   C11 3545   1.854   6.250   6.622 -0.6900 -0.6170 -0.2930
   27SAPC  H11A 3546   1.902   6.275   6.719 -0.8433 -0.8453 -0.1595
   27SAPC  H11B 3547   1.894   6.151   6.590 -1.6649 -0.9211 -0.5886
   27SAPC     P 3548   1.628   6.344   6.727 -0.1421  0.1389  0.1320
   27SAPC   O13 3549   1.694   6.339   6.863  0.0362 -0.3452  0.3952
   27SAPC   O14 3550   1.603   6.474   6.665 -0.0116  0.1567  0.5706
   27SAPC   O12 3551   1.711   6.252   6.627  0.0066  0.3910  0.0352
   27SAPC   O11 3552   1.495   6.261   6.729 -0.7008  0.1649 -0.5446
   27SAPC    C1 3553   1.503   6.133   6.798 -0.6042 -0.9593  0.4217
   27SAPC    HA 3554   1.580   6.072   6.747 -1.2936 -0.3281 -1.3926
   27SAPC    HB 3555   1.528   6.143   6.906  0.2508  0.8523  0.0776
   27SAPC    C2 3556   1.373   6.055   6.785 -0.3104 -0.1718 -0.1322
   27SAPC    HS 3557   1.343   6.054   6.678  0.2494 -0.2394 -0.2898
   27SAPC   O21 3558   1.270   6.123   6.865 -0.1297 -0.4340 -0.0258
   27SAPC   C21 3559   1.154   6.082   6.838  0.4973  0.1784 -0.1243
   27SAPC   O22 3560   1.128   5.983   6.765  0.5344 -0.8483  0.4764
   27SAPC   C22 3561   1.042   6.170   6.894  0.1320 -1.0913 -0.9731
   27SAPC   H2R 3562   1.077   6.220   6.987 -0.2745  0.1631 -1.4799
   27SAPC   H2S 3563   1.030   6.249   6.817 -0.3580 -0.9604 -0.7626
   27SAPC    C3 3564   1.394   5.905   6.821  0.5180  0.0519 -0.3647
   27SAPC    HX 3565   1.460   5.854   6.748 -0.1617  0.0563 -0.9919
   27SAPC    HY 3566   1.300   5.846   6.811 -0.5690  1.7973 -0.6243
   27SAPC   O31 3567   1.437   5.880   6.957  0.2605 -0.4326 -0.6263
   27SAPC   C31 3568   1.568   5.842   6.964 -0.0631 -0.2794 -0.0745
   27SAPC   O32 3569   1.638   5.828   6.863  0.0075  1.0794 -0.7681
   27SAPC   C32 3570   1.612   5.804   7.104 -0.5671 -0.2951 -0.8155
   27SAPC   H2X 3571   1.691   5.725   7.100  0.2726  0.4051  1.0888
   27SAPC   H2Y 3572   1.525   5.765   7.160  1.8467 -2.3157  1.7218
   27SAPC   C23 3573   0.900   6.109   6.900 -0.3547 -0.8047 -0.6653
   27SAPC   H3R 3574   0.890   6.076   6.795  1.0026  2.4805 -1.8907
   27SAPC   H3S 3575   0.828   6.191   6.920 -1.5749 -1.9048 -0.5125
   27SAPC   C24 3576   0.894   5.991   7.003  0.2044 -0.4214  0.1238
   27SAPC   H4R 3577   0.988   5.933   6.986  0.4860  0.1827 -0.3909
   27SAPC   H4S 3578   0.805   5.936   6.967  1.1742 -0.5596 -2.0905
   27SAPC   C25 3579   0.877   6.036   7.146 -0.0970  0.1909  1.1666
   27SAPC   H5R 3580   0.967   6.088   7.179  0.4693  0.3193 -0.5058
   27SAPC   C26 3581   0.774   6.012   7.234 -0.9194  0.5510 -0.1491
   27SAPC   H6R 3582   0.774   6.051   7.337 -0.0765  0.8314 -0.2551
   27SAPC   C27 3583   0.640   5.948   7.204  0.3997 -0.2690 -0.3120
   27SAPC   H7R 3584   0.621   5.872   7.282 -2.2976  0.6657  0.0028
   27SAPC   H7S 3585   0.662   5.881   7.119  0.6330 -0.9793  0.3036
   27SAPC   C28 3586   0.526   6.050   7.180 -0.3744  0.2284  0.0490
   27SAPC   H8R 3587   0.529   6.116   7.091 -2.2016 -0.4195 -0.5005
   27SAPC   C29 3588   0.427   6.069   7.269 -0.7546  0.0032  0.4474
   27SAPC   H9R 3589   0.349   6.144   7.249 -0.4515  0.3536  0.5786
   27SAPC  C210 3590   0.402   5.996   7.399 -0.0059  0.0395 -0.4293
   27SAPC  H10R 3591   0.414   6.072   7.479  0.0881 -0.3676 -0.0544
   27SAPC  H10S 3592   0.477   5.917   7.421 -0.6376 -0.9547 -1.7858
   27SAPC  C211 3593   0.263   5.943   7.415 -0.4106 -0.8993 -0.0835
   27SAPC  H11R 3594   0.199   5.952   7.326  1.7759 -0.8374 -1.6949
   27SAPC  C212 3595   0.198   5.911   7.527 -0.7335  0.3732  0.4327
   27SAPC  H12R 3596   0.095   5.877   7.504 -0.3308 -2.0494  2.0135
   27SAPC  C213 3597   0.246   5.910   7.673 -0.1654 -0.3160  0.2193
   27SAPC  H13R 3598   0.352   5.877   7.680 -0.4305 -1.5687 -1.3046
   27SAPC  H13S 3599   0.178   5.849   7.737 -0.4340 -1.0960 -0.7917
   27SAPC  C214 3600   0.214   6.047   7.720 -0.8562 -0.8267  0.1785
   27SAPC  H14R 3601   0.245   6.127   7.651 -2.9906  1.3293  1.6261
   27SAPC  C215 3602   0.158   6.078   7.838 -0.1579  0.0384  0.4858
   27SAPC  H15R 3603   0.145   6.181   7.874  0.3961  0.8864 -1.6574
   27SAPC  C216 3604   0.110   5.984   7.941  0.1767  0.0329 -0.8229
   27SAPC  H16R 3605   0.088   5.880   7.906 -1.3723 -0.1232  0.5798
   27SAPC  H16S 3606   0.014   6.019   7.983  0.9404  1.0812  0.0452
   27SAPC  C217 3607   0.208   5.985   8.062 -0.4133  0.0804  0.3223
   27SAPC  H17R 3608   0.231   6.091   8.087 -0.2504 -0.1740  1.2670
   27SAPC  H17S 3609   0.309   5.949   8.032 -0.8665 -0.2246 -0.8554
   27SAPC  C218 3610   0.154   5.915   8.191  0.5714  0.3226  0.0169
   27SAPC  H18R 3611   0.133   5.808   8.172 -0.4253  0.5913 -0.4240
   27SAPC  H18S 3612   0.064   5.965   8.231  0.7763 -0.1884  1.1456
   27SAPC  C219 3613   0.258   5.933   8.311  0.2756 -0.4427 -1.0101
   27SAPC  H19R 3614   0.277   6.041   8.329 -0.1107 -0.5231 -0.0675
   27SAPC  H19S 3615   0.360   5.900   8.284  0.5104 -1.1247  0.6621
   27SAPC  C220 3616   0.231   5.858   8.446 -0.0955 -0.2688  0.0834
   27SAPC  H20R 3617   0.315   5.885   8.514  0.9840 -1.3160 -0.8167
   27SAPC  H20S 3618   0.225   5.750   8.424 -0.3628  0.2604 -2.6527
   27SAPC  H20T 3619   0.128   5.881   8.481  0.0478  0.1043  0.2638
   27SAPC   C33 3620   1.665   5.921   7.186  0.1264 -0.1285  0.1596
   27SAPC   H3X 3621   1.594   6.006   7.182  1.1338  0.6824 -1.2545
   27SAPC   H3Y 3622   1.761   5.952   7.139 -0.7826  1.2363 -0.8439
   27SAPC   C34 3623   1.680   5.890   7.337 -0.1575  0.1881  0.2118
   27SAPC   H4X 3624   1.735   5.978   7.377 -0.7099  0.8607 -0.4848
   27SAPC   H4Y 3625   1.727   5.790   7.351  1.7922  1.1660  0.8079
   27SAPC   C35 3626   1.537   5.892   7.400 -0.0851 -0.0923 -0.1842
   27SAPC   H5X 3627   1.466   5.813   7.369 -1.9393  1.4841  0.0028
   27SAPC   H5Y 3628   1.484   5.982   7.362 -1.0163 -1.0401 -1.1440
   27SAPC   C36 3629   1.550   5.889   7.549 -0.1316 -0.5703  0.9580
   27SAPC   H6X 3630   1.594   5.984   7.585 -3.0819  0.7201  1.3014
   27SAPC   H6Y 3631   1.615   5.802   7.571  1.6233 -0.0969 -2.0543
   27SAPC   C37 3632   1.413   5.873   7.604 -0.2645 -0.0460  1.0605
   27SAPC   H7X 3633   1.380   5.767   7.595 -1.0625  0.3137 -0.5245
   27SAPC   H7Y 3634   1.348   5.949   7.556  0.0664 -1.1968 -1.2974
   27SAPC   C38 3635   1.405   5.899   7.756  0.4859  0.6776  0.5618
   27SAPC   H8X 3636   1.457   5.993   7.784 -0.0960  0.0657  3.8863
   27SAPC   H8Y 3637   1.470   5.815   7.789 -0.6469 -0.5423 -0.2571
   27SAPC   C39 3638   1.264   5.886   7.814 -0.4549  0.4871 -0.4216
   27SAPC   H9X 3639   1.226   5.782   7.804  1.0831  0.0777 -2.3714
   27SAPC   H9Y 3640   1.195   5.951   7.755 -0.8705  0.5344  0.1140
   27SAPC  C310 3641   1.254   5.930   7.968  0.4512 -0.0171  0.5108
   27SAPC  H10X 3642   1.147   5.921   7.999  0.6144 -1.0808  0.7859
   27SAPC  H10Y 3643   1.273   6.039   7.976  1.5776  0.0298 -2.2839
   27SAPC  C311 3644   1.338   5.844   8.061  0.1967 -1.2013  0.6722
   27SAPC  H11X 3645   1.447   5.852   8.042 -0.0690  0.6737 -0.1937
   27SAPC  H11Y 3646   1.307   5.740   8.036  0.8865 -1.3172  0.2980
   27SAPC  C312 3647   1.321   5.874   8.210 -0.3652 -0.1421  0.6528
   27SAPC  H12X 3648   1.212   5.887   8.230 -0.8812 -0.0315 -2.0084
   27SAPC  H12Y 3649   1.369   5.969   8.240 -0.7193  0.8214 -1.6680
   27SAPC  C313 3650   1.378   5.764   8.300  0.6577  0.3286  0.6688
   27SAPC  H13X 3651   1.489   5.771   8.303  0.5960  0.9096  2.2885
   27SAPC  H13Y 3652   1.360   5.664   8.254 -1.3718  1.4732 -1.1075
   27SAPC  C314 3653   1.317   5.779   8.441  0.2233  0.0431  0.2888
   27SAPC  H14X 3654   1.316   5.884   8.479 -0.6834  0.4804 -0.9449
   27SAPC  H14Y 3655   1.386   5.725   8.510 -0.8511 -0.6417  0.8427
   27SAPC  C315 3656   1.177   5.711   8.451 -0.9646 -0.0523  0.1049
   27SAPC  H15X 3657   1.203   5.603   8.450 -0.3475  0.0567  2.1386
   27SAPC  H15Y 3658   1.111   5.738   8.366 -0.3308 -1.6548 -0.9140
   27SAPC  C316 3659   1.094   5.755   8.571  0.0797 -0.2819  0.7874
   27SAPC  H16X 3660   1.092   5.866   8.563 -1.4374 -0.2195  1.8164
   27SAPC  H16Y 3661   1.140   5.713   8.663 -0.5714 -2.4338  0.1611
   27SAPC  C317 3662   0.950   5.696   8.565  0.2295 -0.1775  0.3311
   27SAPC  H17X 3663   0.907   5.724   8.664 -2.4266 -0.2096 -0.7590
   27SAPC  H17Y 3664   0.944   5.589   8.538 -1.0884 -0.3139  1.1038
   27SAPC  C318 3665   0.869   5.769   8.465 -1.0940  0.1271 -0.2042
   27SAPC  H18X 3666   0.873   5.877   8.489  0.5922  0.3122 -1.2579
   27SAPC  H18Y 3667   0.765   5.732   8.481 -1.3284 -0.7859 -3.5170
   27SAPC  H18Z 3668   0.899   5.747   8.360  1.3459 -0.3466  0.5620
   28SAPC     N 3669   0.561   3.147   6.189 -0.1400  0.1771  0.4755
   28SAPC   C12 3670   0.687   3.065   6.181 -0.4592  0.2131  0.2253
   28SAPC  H12A 3671   0.771   3.122   6.215 -0.0724  0.5309 -1.2299
   28SAPC  H12B 3672   0.725   3.049   6.081 -0.6034 -2.5939  0.5884
   28SAPC   C13 3673   0.576   3.247   6.082 -0.8430 -0.1388 -0.0893
   28SAPC  H13A 3674   0.482   3.299   6.072 -1.0230 -0.3780  0.3450
   28SAPC  H13B 3675   0.664   3.308   6.099 -0.1233 -0.9125 -0.9546
   28SAPC  H13C 3676   0.587   3.202   5.984 -0.3763 -3.3188  1.3816
   28SAPC   C14 3677   0.441   3.058   6.146  0.2893 -0.3026 -0.4000
   28SAPC  H14A 3678   0.433   2.985   6.225  0.4394  1.3325  1.1567
   28SAPC  H14B 3679   0.349   3.115   6.141  0.3827 -0.1530 -0.4338
   28SAPC  H14C 3680   0.452   3.027   6.043 -2.6207  0.8622 -1.0878
   28SAPC   C15 3681   0.544   3.190   6.328  0.0212  0.2017  0.5183
   28SAPC  H15A 3682   0.560   3.101   6.388 -0.1264  0.3708  0.8086
   28SAPC  H15B 3683   0.619   3.260   6.363 -0.1200 -0.0252  1.2959
   28SAPC  H15C 3684   0.442   3.221   6.345 -0.9334 -1.8085 -1.3664
   28SAPC   C11 3685   0.695   2.935   6.262  0.2024 -0.4268  0.7552
   28SAPC  H11A 3686   0.787   2.888   6.223 -0.1064  0.6376 -1.3912
   28SAPC  H11B 3687   0.615   2.864   6.232 -0.4347  0.5464  0.0921
   28SAPC     P 3688   0.826   2.994   6.479 -0.4012  0.0598  0.5753
   28SAPC   O13 3689   0.924   3.030   6.375  0.4376  0.0410 -0.3615
   28SAPC   O14 3690   0.811   3.083   6.598 -0.2781 -0.4688  0.6286
   28SAPC   O12 3691   0.696   2.960   6.402 -0.1444  0.0106 -0.7187
   28SAPC   O11 3692   0.875   2.856   6.541  0.5241  0.5404  0.5449
   28SAPC    C1 3693   0.802   2.739   6.554  0.1441  0.8049  0.5379
   28SAPC    HA 3694   0.705   2.743   6.499 -0.9075 -2.2344  2.0218
   28SAPC    HB 3695   0.860   2.651   6.518  1.0954  1.1577  1.2065
   28SAPC    C2 3696   0.774   2.709   6.707  0.0732  0.1628 -0.8106
   28SAPC    HS 3697   0.737   2.604   6.704  0.1560  0.0936  0.4697
   28SAPC   O21 3698   0.678   2.810   6.752 -0.0863  0.3258 -0.9046
   28SAPC   C21 3699   0.551   2.766   6.752 -0.2817 -0.2979 -0.1628
   28SAPC   O22 3700   0.520   2.658   6.710  0.8711 -0.7544  0.0326
   28SAPC   C22 3701   0.465   2.858   6.832  0.6304  0.1110  0.4294
   28SAPC   H2R 3702   0.472   2.951   6.772 -0.4621 -0.8363 -1.2158
   28SAPC   H2S 3703   0.358   2.828   6.826  0.4055  0.5892  1.8681
   28SAPC    C3 3704   0.897   2.699   6.800 -0.1512 -0.0809 -0.4909
   28SAPC    HX 3705   0.954   2.794   6.793  0.2515 -0.2100  0.9633
   28SAPC    HY 3706   0.955   2.617   6.754 -2.8112 -1.4104 -1.5721
   28SAPC   O31 3707   0.854   2.677   6.940  0.0461  0.1727 -0.6396
   28SAPC   C31 3708   0.887   2.771   7.028  0.7336 -0.4967  0.0985
   28SAPC   O32 3709   0.964   2.864   7.011 -0.4868 -0.2611  0.0140
   28SAPC   C32 3710   0.827   2.731   7.157 -0.1317 -0.6034 -0.5293
   28SAPC   H2X 3711   0.855   2.630   7.193 -0.4247  0.0417  1.5688
   28SAPC   H2Y 3712   0.717   2.720   7.148 -0.5613 -0.8243  4.1370
   28SAPC   C23 3713   0.511   2.879   6.983 -0.3112  0.4156  0.4057
   28SAPC   H3R 3714   0.483   2.982   7.015  0.4230  0.0281  2.3512
   28SAPC   H3S 3715   0.619   2.854   6.986 -0.7738 -1.8076 -0.4918
   28SAPC   C24 3716   0.452   2.779   7.094 -0.7970 -0.3847 -0.1743
   28SAPC   H4R 3717   0.483   2.685   7.043 -1.8876  0.0415 -1.6631
   28SAPC   H4S 3718   0.508   2.804   7.186 -0.0307  0.6730 -0.9115
   28SAPC   C25 3719   0.304   2.792   7.118 -0.1923  0.5415  0.1444
   28SAPC   H5R 3720   0.244   2.801   7.025  0.4469 -0.9331 -0.4207
   28SAPC   C26 3721   0.249   2.810   7.239  0.5709  0.4284  0.8943
   28SAPC   H6R 3722   0.139   2.815   7.236  0.6323  0.8358 -0.8965
   28SAPC   C27 3723   0.315   2.814   7.381 -0.2025 -0.7403  0.2218
   28SAPC   H7R 3724   0.271   2.893   7.446  1.3049  0.1111  0.2270
   28SAPC   H7S 3725   0.420   2.851   7.381 -0.5310  0.1803 -0.1646
   28SAPC   C28 3726   0.317   2.685   7.448  0.3642  0.5687 -0.7746
   28SAPC   H8R 3727   0.404   2.624   7.419 -0.2214 -1.4833  1.5874
   28SAPC   C29 3728   0.221   2.621   7.515 -0.4015  0.1422 -0.1575
   28SAPC   H9R 3729   0.253   2.526   7.561  0.2794 -0.0673 -1.0488
   28SAPC  C210 3730   0.085   2.680   7.539 -0.3368  0.0386  0.4626
   28SAPC  H10R 3731   0.032   2.674   7.441 -2.1468 -0.7170  1.4646
   28SAPC  H10S 3732   0.094   2.786   7.571  3.7080 -0.4759  1.1778
   28SAPC  C211 3733   0.005   2.604   7.649  0.1739  0.2609 -0.0082
   28SAPC  H11R 3734  -0.017   2.501   7.618  0.1163  0.7675 -1.6999
   28SAPC  C212 3735  -0.010   2.636   7.780  0.1273  0.1443  0.8017
   28SAPC  H12R 3736  -0.072   2.566   7.838 -1.2274 -0.3174 -1.1640
   28SAPC  C213 3737   0.042   2.752   7.858  1.0634  0.0086  0.4024
   28SAPC  H13R 3738   0.134   2.795   7.814 -0.0198  1.2010 -0.7371
   28SAPC  H13S 3739   0.085   2.717   7.954 -1.5464  5.1957  3.7037
   28SAPC  C214 3740  -0.045   2.872   7.877  0.4067  0.1100 -0.2833
   28SAPC  H14R 3741  -0.051   2.943   7.793  1.4415  3.1485  2.1229
   28SAPC  C215 3742  -0.127   2.887   7.988 -0.9302 -0.8685 -0.0019
   28SAPC  H15R 3743  -0.191   2.976   7.995 -1.6956 -1.5384  1.7795
   28SAPC  C216 3744  -0.135   2.801   8.112  0.3537 -0.9057 -0.1365
   28SAPC  H16R 3745  -0.054   2.724   8.117  0.4538 -0.9642 -2.3230
   28SAPC  H16S 3746  -0.229   2.742   8.115  0.3809 -0.9368  0.1371
   28SAPC  C217 3747  -0.123   2.883   8.247 -0.4559  0.8404 -0.0821
   28SAPC  H17R 3748  -0.122   2.812   8.332  1.1983  0.9347 -0.0110
   28SAPC  H17S 3749  -0.216   2.938   8.272 -1.0992 -0.9463  1.6552
   28SAPC  C218 3750  -0.002   2.975   8.237  0.4179 -0.4242  0.1620
   28SAPC  H18R 3751  -0.035   3.059   8.171  1.2387 -0.1797  0.0650
   28SAPC  H18S 3752   0.090   2.929   8.196 -0.3139 -3.1957  1.5309
   28SAPC  C219 3753   0.035   3.036   8.372  0.3518 -0.3606 -0.1759
   28SAPC  H19R 3754   0.121   3.102   8.350  1.8060 -2.3701 -0.7258
   28SAPC  H19S 3755   0.063   2.956   8.444 -0.1571  1.3502  1.9679
   28SAPC  C220 3756  -0.070   3.124   8.445 -0.1809  0.1916  0.0485
   28SAPC  H20R 3757  -0.088   3.218   8.390 -0.0328  0.7310  0.9093
   28SAPC  H20S 3758  -0.036   3.146   8.549 -3.0373  0.0976  1.0387
   28SAPC  H20T 3759  -0.168   3.073   8.458  0.3668 -1.9955 -3.5653
   28SAPC   C33 3760   0.866   2.823   7.271  0.4419  0.0558  0.0845
   28SAPC   H3X 3761   0.841   2.923   7.230 -1.7604 -0.8780 -0.9589
   28SAPC   H3Y 3762   0.976   2.818   7.287  0.1291  2.1735  3.3703
   28SAPC   C34 3763   0.793   2.793   7.404  0.1504 -0.0013  0.5656
   28SAPC   H4X 3764   0.796   2.683   7.418 -0.9168  0.1130  1.7967
   28SAPC   H4Y 3765   0.685   2.816   7.391  0.1200  0.3610  1.4031
   28SAPC   C35 3766   0.852   2.873   7.516 -0.2315  0.3407 -0.6709
   28SAPC   H5X 3767   0.873   2.975   7.476 -0.2236  1.0558  1.1051
   28SAPC   H5Y 3768   0.955   2.834   7.522 -1.0454 -1.7447  0.0860
   28SAPC   C36 3769   0.775   2.865   7.644 -0.1699  0.0488  0.2853
   28SAPC   H6X 3770   0.817   2.909   7.737 -0.9013  0.2256  0.5358
   28SAPC   H6Y 3771   0.747   2.763   7.677 -1.7499 -0.2410 -1.8467
   28SAPC   C37 3772   0.645   2.947   7.626 -0.5151  0.3102  0.0024
   28SAPC   H7X 3773   0.602   2.956   7.524  0.7627  2.8852 -0.3407
   28SAPC   H7Y 3774   0.661   3.051   7.662  0.4157  1.0817 -2.5981
   28SAPC   C38 3775   0.530   2.877   7.708  0.0235 -0.2255  0.4502
   28SAPC   H8X 3776   0.523   2.770   7.679 -0.8557 -0.6193  2.0262
   28SAPC   H8Y 3777   0.433   2.928   7.694  1.0892  2.3981  2.1772
   28SAPC   C39 3778   0.536   2.885   7.863  0.5826 -1.0140  0.1593
   28SAPC   H9X 3779   0.622   2.824   7.897  0.3210 -2.0679 -1.0152
   28SAPC   H9Y 3780   0.446   2.827   7.895  0.6678 -0.1438  2.0874
   28SAPC  C310 3781   0.550   3.019   7.932 -0.3590 -0.1174  0.0239
   28SAPC  H10X 3782   0.457   3.061   7.975 -0.6564  0.0009 -0.7322
   28SAPC  H10Y 3783   0.597   3.094   7.864  0.8314 -0.2685  0.6576
   28SAPC  C311 3784   0.643   3.013   8.057  0.0802 -0.4914 -0.0618
   28SAPC  H11X 3785   0.750   2.998   8.032  0.3669 -0.2945  0.9960
   28SAPC  H11Y 3786   0.605   2.931   8.122  0.8900 -0.0516  0.9877
   28SAPC  C312 3787   0.621   3.141   8.150  0.5287 -0.1741 -0.3440
   28SAPC  H12X 3788   0.519   3.137   8.194  1.9635  2.2718  3.4191
   28SAPC  H12Y 3789   0.639   3.230   8.086  0.3694 -1.1822 -1.8182
   28SAPC  C313 3790   0.706   3.148   8.273 -0.4816  0.3881  0.6647
   28SAPC  H13X 3791   0.813   3.147   8.242 -0.4024 -1.2598  0.9517
   28SAPC  H13Y 3792   0.670   3.060   8.330 -1.2865  1.0162  1.1298
   28SAPC  C314 3793   0.671   3.276   8.344  0.4834 -0.1441 -0.2730
   28SAPC  H14X 3794   0.563   3.300   8.349  0.8103  1.1723  0.6027
   28SAPC  H14Y 3795   0.710   3.361   8.284 -1.1208  1.0892  0.4178
   28SAPC  C315 3796   0.751   3.277   8.469 -0.1241 -0.3751 -0.3859
   28SAPC  H15X 3797   0.848   3.332   8.462  0.6788 -1.8978 -1.4086
   28SAPC  H15Y 3798   0.788   3.176   8.496  0.7326 -0.0106 -0.1710
   28SAPC  C316 3799   0.684   3.329   8.597 -0.2052  0.1170  0.1674
   28SAPC  H16X 3800   0.616   3.255   8.644 -0.8317  0.4644 -0.1786
   28SAPC  H16Y 3801   0.642   3.429   8.572  0.1453 -0.2581 -2.0059
   28SAPC  C317 3802   0.793   3.353   8.704 -0.3953 -0.3708 -0.0959
   28SAPC  H17X 3803   0.873   3.276   8.704 -0.1873 -0.1707  1.4932
   28SAPC  H17Y 3804   0.741   3.347   8.802 -0.5478  1.4145 -0.0374
   28SAPC  C318 3805   0.857   3.485   8.700 -0.0437 -0.2316 -0.6059
   28SAPC  H18X 3806   0.904   3.515   8.796 -2.0930  0.6879  0.1572
   28SAPC  H18Y 3807   0.788   3.567   8.669 -0.6330 -1.2610 -2.0934
   28SAPC  H18Z 3808   0.937   3.491   8.623 -0.4178  0.3700 -0.9595
   29SAPC     N 3809   3.735   6.266   6.190  0.5586  0.3103  0.0969
   29SAPC   C12 3810   3.635   6.263   6.310 -0.7670  0.4044  0.9203
   29SAPC  H12A 3811   3.601   6.166   6.342  0.8165 -0.7399 -0.7661
   29SAPC  H12B 3812   3.543   6.304   6.272 -0.0807 -0.8978 -2.2679
   29SAPC   C13 3813   3.695   6.183   6.074 -0.2625  0.5586  0.0221
   29SAPC  H13A 3814   3.760   6.175   5.989  0.1013 -1.3070  0.4540
   29SAPC  H13B 3815   3.680   6.083   6.113  0.6527  0.8374  1.1096
   29SAPC  H13C 3816   3.598   6.213   6.036 -0.3516  1.3246  0.8408
   29SAPC   C14 3817   3.763   6.405   6.140 -0.1407 -0.5169 -0.2168
   29SAPC  H14A 3818   3.868   6.411   6.115 -0.3832  0.8673 -0.9790
   29SAPC  H14B 3819   3.700   6.420   6.053 -1.5392 -1.8506  0.5358
   29SAPC  H14C 3820   3.748   6.479   6.217 -2.0019  0.2116 -1.2262
   29SAPC   C15 3821   3.866   6.200   6.230 -0.0517 -0.1176 -0.7010
   29SAPC  H15A 3822   3.933   6.190   6.146  1.6051  1.8515  0.3502
   29SAPC  H15B 3823   3.916   6.252   6.310 -2.1762  0.8871  0.0236
   29SAPC  H15C 3824   3.854   6.103   6.277 -0.5987  0.9129  1.3264
   29SAPC   C11 3825   3.683   6.348   6.432  0.0171 -0.4881  0.1163
   29SAPC  H11A 3826   3.789   6.323   6.455  1.1648  1.0062 -3.1752
   29SAPC  H11B 3827   3.616   6.320   6.516 -1.6756 -0.2233 -1.1192
   29SAPC     P 3828   3.525   6.563   6.424 -0.2431  0.2451  0.6326
   29SAPC   O13 3829   3.532   6.704   6.387 -0.3485 -0.4136  0.9795
   29SAPC   O14 3830   3.417   6.480   6.358 -0.3296 -0.3029 -0.4618
   29SAPC   O12 3831   3.665   6.489   6.408  0.0608 -0.0636  0.5327
   29SAPC   O11 3832   3.503   6.542   6.579 -0.2682  0.7172  0.7044
   29SAPC    C1 3833   3.530   6.639   6.681 -0.5359 -0.3717  0.9427
   29SAPC    HA 3834   3.500   6.742   6.652  1.6836  0.3797  1.1900
   29SAPC    HB 3835   3.503   6.603   6.782  0.8271  0.3282  1.5776
   29SAPC    C2 3836   3.684   6.659   6.703  0.0147 -0.4598 -0.0025
   29SAPC    HS 3837   3.731   6.671   6.604  1.2776 -1.4507  0.4684
   29SAPC   O21 3838   3.740   6.542   6.759 -0.1267 -0.3476  0.0959
   29SAPC   C21 3839   3.869   6.526   6.789 -0.0519 -0.5964  0.6392
   29SAPC   O22 3840   3.959   6.598   6.748 -0.0792 -0.0657 -0.9956
   29SAPC   C22 3841   3.866   6.413   6.888 -0.3057 -0.0363 -0.0955
   29SAPC   H2R 3842   3.810   6.439   6.980 -2.2478 -0.0173 -1.2635
   29SAPC   H2S 3843   3.803   6.332   6.846  0.0082 -0.5764  0.4716
   29SAPC    C3 3844   3.712   6.783   6.796  0.6574  0.2439  0.1808
   29SAPC    HX 3845   3.659   6.874   6.761 -0.6678 -1.2452 -1.8097
   29SAPC    HY 3846   3.821   6.801   6.792  0.6927 -0.1360 -0.7189
   29SAPC   O31 3847   3.683   6.746   6.931 -0.7785  0.0345 -0.1135
   29SAPC   C31 3848   3.571   6.795   6.985 -0.1689 -0.7690 -0.0334
   29SAPC   O32 3849   3.484   6.860   6.934  0.3378 -0.2126  0.1076
   29SAPC   C32 3850   3.572   6.756   7.126 -0.4123  0.1075  0.1756
   29SAPC   H2X 3851   3.634   6.827   7.185  0.9265  0.3933 -1.5078
   29SAPC   H2Y 3852   3.613   6.652   7.130  0.0244  0.1471 -2.1735
   29SAPC   C23 3853   4.007   6.365   6.928 -0.7382  0.2436 -0.2838
   29SAPC   H3R 3854   4.068   6.454   6.953 -2.4545  1.0450  1.2047
   29SAPC   H3S 3855   4.059   6.325   6.838 -1.0047  2.4727 -1.4492
   29SAPC   C24 3856   4.013   6.266   7.049  0.7982  0.4615  0.5996
   29SAPC   H4R 3857   3.964   6.313   7.136  0.9257  0.8740  0.4493
   29SAPC   H4S 3858   4.121   6.246   7.070  0.9233 -1.0118 -1.2243
   29SAPC   C25 3859   3.948   6.138   7.011  0.5824  0.4415  0.3511
   29SAPC   H5R 3860   3.979   6.094   6.914  0.0108  0.4621  0.1571
   29SAPC   C26 3861   3.838   6.084   7.073  0.1475  0.5013 -0.3042
   29SAPC   H6R 3862   3.791   5.989   7.041  1.2617 -0.2211  0.1888
   29SAPC   C27 3863   3.769   6.140   7.192  0.1661 -0.1914  0.3373
   29SAPC   H7R 3864   3.693   6.216   7.165  1.7890  1.2639 -0.2408
   29SAPC   H7S 3865   3.849   6.190   7.251  1.2148 -0.7950 -0.5629
   29SAPC   C28 3866   3.705   6.030   7.279 -0.3992 -0.4629 -0.6805
   29SAPC   H8R 3867   3.665   5.937   7.237 -0.7635  0.1548 -1.7167
   29SAPC   C29 3868   3.684   6.049   7.409 -0.1524  0.4824  0.4700
   29SAPC   H9R 3869   3.630   5.975   7.469 -1.0048 -1.2083 -2.3082
   29SAPC  C210 3870   3.734   6.164   7.497  0.4961  1.1358 -0.5407
   29SAPC  H10R 3871   3.677   6.175   7.592  0.8087  2.0356 -0.4467
   29SAPC  H10S 3872   3.709   6.257   7.442  0.2356  1.2839 -0.1705
   29SAPC  C211 3873   3.882   6.149   7.542  0.1961  0.1711  0.4370
   29SAPC  H11R 3874   3.951   6.186   7.465 -0.1303 -1.0602 -0.4602
   29SAPC  C212 3875   3.928   6.095   7.657 -0.9625  0.4844  0.1518
   29SAPC  H12R 3876   4.038   6.090   7.663 -0.9274  0.3578 -0.5082
   29SAPC  C213 3877   3.847   6.041   7.772  0.4942  0.0962  0.6305
   29SAPC  H13R 3878   3.916   5.973   7.827  0.4037 -2.2720 -2.0686
   29SAPC  H13S 3879   3.768   5.973   7.733  0.8079 -0.1555  0.4329
   29SAPC  C214 3880   3.775   6.135   7.873  0.0388  0.0636 -0.3673
   29SAPC  H14R 3881   3.669   6.115   7.893 -0.1104  0.0344 -1.1797
   29SAPC  C215 3882   3.823   6.239   7.943 -0.9795  0.6603 -0.5439
   29SAPC  H15R 3883   3.747   6.288   8.006 -1.1158 -0.8646  0.4998
   29SAPC  C216 3884   3.963   6.288   7.944 -0.4861 -0.3734 -0.0728
   29SAPC  H16R 3885   4.004   6.279   7.841 -0.4344 -0.9526 -0.0017
   29SAPC  H16S 3886   4.025   6.230   8.016 -0.5462 -0.9301 -0.4623
   29SAPC  C217 3887   3.972   6.438   7.977  0.1775 -0.2135 -0.5591
   29SAPC  H17R 3888   3.903   6.499   7.915 -0.9606 -0.8400  0.0649
   29SAPC  H17S 3889   4.075   6.472   7.951  0.0930 -0.1661 -0.8330
   29SAPC  C218 3890   3.952   6.462   8.131 -0.1138 -0.2001 -0.1214
   29SAPC  H18R 3891   4.027   6.395   8.178 -0.4435  0.1004  0.8490
   29SAPC  H18S 3892   3.850   6.425   8.154 -0.4037  1.0258  0.6466
   29SAPC  C219 3893   3.970   6.608   8.181 -0.3386  0.6339  1.4463
   29SAPC  H19R 3894   3.886   6.672   8.146  1.0641  1.7156 -0.0327
   29SAPC  H19S 3895   4.066   6.636   8.133  0.2983  1.0410  2.9488
   29SAPC  C220 3896   3.990   6.621   8.333 -0.0046 -0.5425 -0.3741
   29SAPC  H20R 3897   4.007   6.730   8.350  2.3041 -0.7849 -1.0243
   29SAPC  H20S 3898   4.076   6.570   8.381  0.8814  0.9563 -0.3399
   29SAPC  H20T 3899   3.897   6.578   8.377 -0.9639  2.2191  0.4234
   29SAPC   C33 3900   3.421   6.751   7.182  0.2574  0.0154 -0.2079
   29SAPC   H3X 3901   3.367   6.668   7.132  0.6875 -0.4495  0.1019
   29SAPC   H3Y 3902   3.372   6.850   7.164 -0.7477 -0.3517  0.4437
   29SAPC   C34 3903   3.404   6.719   7.331  0.3919 -0.1089  0.4586
   29SAPC   H4X 3904   3.439   6.814   7.377 -0.2282  0.3133  0.0730
   29SAPC   H4Y 3905   3.476   6.647   7.375 -0.9044 -1.3171  0.6507
   29SAPC   C35 3906   3.262   6.667   7.354 -0.4314  0.3371  0.0247
   29SAPC   H5X 3907   3.234   6.575   7.298 -0.6241  0.1483  0.4315
   29SAPC   H5Y 3908   3.192   6.747   7.320  3.3428  2.7172 -2.4860
   29SAPC   C36 3909   3.230   6.654   7.507  0.7300  0.1652  1.2225
   29SAPC   H6X 3910   3.247   6.758   7.542  1.6707  0.2369  0.5763
   29SAPC   H6Y 3911   3.304   6.586   7.555 -1.6458 -2.0210  1.9058
   29SAPC   C37 3912   3.090   6.606   7.531 -0.7474 -0.1348 -0.3598
   29SAPC   H7X 3913   3.079   6.524   7.457 -3.5375  0.2801 -0.4601
   29SAPC   H7Y 3914   3.012   6.679   7.501 -3.0791 -2.0781  0.8117
   29SAPC   C38 3915   3.065   6.556   7.670  0.7115  0.5267  0.4629
   29SAPC   H8X 3916   3.051   6.638   7.744  0.5093  1.2721 -0.3924
   29SAPC   H8Y 3917   3.152   6.495   7.702  0.9406  0.0649 -1.0335
   29SAPC   C39 3918   2.938   6.469   7.691 -0.1380 -0.2982 -0.3415
   29SAPC   H9X 3919   2.941   6.405   7.600  0.1920  1.8017 -1.8449
   29SAPC   H9Y 3920   2.844   6.526   7.686  0.6299  1.0837  0.6899
   29SAPC  C310 3921   2.938   6.399   7.826  0.0598  0.5558 -0.3467
   29SAPC  H10X 3922   2.933   6.480   7.902 -0.9659  0.8517 -0.7191
   29SAPC  H10Y 3923   3.037   6.349   7.837 -0.5247 -0.4799  0.3049
   29SAPC  C311 3924   2.824   6.305   7.854  0.3299 -0.3847 -0.0342
   29SAPC  H11X 3925   2.770   6.298   7.757  0.8745 -1.0112 -0.2997
   29SAPC  H11Y 3926   2.754   6.345   7.929 -0.1394 -0.3254 -0.5014
   29SAPC  C312 3927   2.868   6.163   7.899 -0.0223  0.5806 -0.1726
   29SAPC  H12X 3928   2.953   6.165   7.971  0.3868 -1.7347 -0.5512
   29SAPC  H12Y 3929   2.906   6.106   7.811 -0.3710  1.2374 -0.7546
   29SAPC  C313 3930   2.762   6.078   7.972  0.1443  0.2028  0.7071
   29SAPC  H13X 3931   2.679   6.043   7.906 -1.8289  3.6138  1.2979
   29SAPC  H13Y 3932   2.722   6.136   8.057  1.7271  2.7241 -0.1946
   29SAPC  C314 3933   2.821   5.945   8.027  0.5622  0.1206 -0.4751
   29SAPC  H14X 3934   2.910   5.976   8.087 -0.0978  1.0616  0.0285
   29SAPC  H14Y 3935   2.859   5.875   7.950  0.6712  0.9229 -1.1512
   29SAPC  C315 3936   2.720   5.865   8.114  0.5696 -0.0873 -0.0806
   29SAPC  H15X 3937   2.633   5.832   8.054  0.7436  0.4334 -0.6334
   29SAPC  H15Y 3938   2.679   5.920   8.202  0.2872 -0.4473  0.0131
   29SAPC  C316 3939   2.775   5.726   8.148  0.8499  0.2642  1.1594
   29SAPC  H16X 3940   2.863   5.733   8.215  0.8539  0.6097  1.1203
   29SAPC  H16Y 3941   2.811   5.672   8.058 -0.3305  0.8217  0.3323
   29SAPC  C317 3942   2.674   5.644   8.220  0.2163 -0.2887  0.3107
   29SAPC  H17X 3943   2.715   5.542   8.237  1.5023 -0.3396 -2.7543
   29SAPC  H17Y 3944   2.585   5.629   8.155 -1.1526 -0.0506  2.1039
   29SAPC  C318 3945   2.633   5.704   8.356 -0.1722 -0.5788 -0.1319
   29SAPC  H18X 3946   2.586   5.628   8.423  0.0296 -1.0164 -0.4823
   29SAPC  H18Y 3947   2.557   5.782   8.336 -0.0902 -0.6329 -0.6804
   29SAPC  H18Z 3948   2.722   5.754   8.399  0.4647  0.5038 -2.5964
   30SAPC     N 3949   4.319   6.799   6.065 -0.1213 -0.6044  0.0195
   30SAPC   C12 3950   4.295   6.903   6.176  0.3475 -0.0948  0.5440
   30SAPC  H12A 3951   4.271   6.853   6.269  4.8902  0.6438  2.2076
   30SAPC  H12B 3952   4.207   6.963   6.159  1.3653  0.6180 -2.5225
   30SAPC   C13 3953   4.378   6.858   5.939  0.5680 -0.2447 -0.5554
   30SAPC  H13A 3954   4.455   6.933   5.953 -2.5919  3.2324 -1.1406
   30SAPC  H13B 3955   4.416   6.776   5.879  1.0349  0.1535 -0.8081
   30SAPC  H13C 3956   4.311   6.917   5.879  0.4776  0.5222  0.2993
   30SAPC   C14 3957   4.417   6.700   6.126  0.3624 -0.1789  0.5874
   30SAPC  H14A 3958   4.446   6.620   6.058  1.1799 -1.9403  2.9449
   30SAPC  H14B 3959   4.513   6.747   6.141  0.0837  0.9866 -1.0643
   30SAPC  H14C 3960   4.380   6.643   6.210 -1.3187  0.5998  0.3959
   30SAPC   C15 3961   4.193   6.728   6.031 -0.1487 -0.1241  0.3928
   30SAPC  H15A 3962   4.136   6.794   5.966  1.8869  1.0588 -0.2249
   30SAPC  H15B 3963   4.218   6.639   5.975 -1.1769  0.4020 -0.9555
   30SAPC  H15C 3964   4.135   6.696   6.116 -3.7887 -2.6826 -2.8534
   30SAPC   C11 3965   4.412   6.999   6.203 -0.1715  0.3675 -0.2337
   30SAPC  H11A 3966   4.490   6.931   6.243  0.1366  1.7161  1.4979
   30SAPC  H11B 3967   4.382   7.062   6.289 -1.0565  1.7836 -1.5621
   30SAPC     P 3968   4.593   7.127   6.073  0.2684  0.0241 -0.4246
   30SAPC   O13 3969   4.659   7.013   6.001 -0.6949  0.4760 -0.1506
   30SAPC   O14 3970   4.591   7.253   5.997 -0.8092  0.4260  0.1625
   30SAPC   O12 3971   4.447   7.078   6.097  0.2022 -0.4859  0.4150
   30SAPC   O11 3972   4.642   7.153   6.221  0.2761  0.0556  0.0294
   30SAPC    C1 3973   4.703   7.279   6.267 -0.1972  0.0243  0.9946
   30SAPC    HA 3974   4.762   7.334   6.191 -0.1668 -1.2516  0.0650
   30SAPC    HB 3975   4.622   7.334   6.320 -1.4722 -0.8366 -0.0326
   30SAPC    C2 3976   4.792   7.252   6.393 -0.1645  0.8991  0.4493
   30SAPC    HS 3977   4.882   7.191   6.368  0.5444  2.8037 -1.7714
   30SAPC   O21 3978   4.712   7.197   6.492  0.2162 -0.0324  0.4091
   30SAPC   C21 3979   4.745   7.082   6.544  0.0410  0.1878 -0.7907
   30SAPC   O22 3980   4.843   7.014   6.515  0.3098 -0.3734 -0.2121
   30SAPC   C22 3981   4.640   7.048   6.650 -0.2922 -0.9609 -0.1650
   30SAPC   H2R 3982   4.552   7.115   6.651  0.6580  0.3337 -1.0530
   30SAPC   H2S 3983   4.598   6.949   6.624 -1.1399 -0.2533 -1.5581
   30SAPC    C3 3984   4.851   7.390   6.437 -0.6736  0.2115 -0.1304
   30SAPC    HX 3985   4.773   7.467   6.455 -0.7676 -0.1516  1.0869
   30SAPC    HY 3986   4.917   7.428   6.356 -1.3567  0.7734 -0.4267
   30SAPC   O31 3987   4.924   7.377   6.559  0.0192  0.3164  0.7694
   30SAPC   C31 3988   5.017   7.465   6.584  0.4174 -0.4466 -0.3441
   30SAPC   O32 3989   5.067   7.537   6.498  0.2464 -0.0399 -0.5256
   30SAPC   C32 3990   5.064   7.443   6.724 -0.3772 -0.0108  0.4051
   30SAPC   H2X 3991   5.173   7.419   6.730 -0.6070 -0.6278  2.6537
   30SAPC   H2Y 3992   5.015   7.353   6.766 -1.3719 -0.1253 -0.9763
   30SAPC   C23 3993   4.691   7.061   6.793 -0.2557 -0.1972  0.5041
   30SAPC   H3R 3994   4.612   7.046   6.870 -1.4375 -1.1877 -0.8885
   30SAPC   H3S 3995   4.717   7.168   6.807 -1.3546  0.1065  0.2628
   30SAPC   C24 3996   4.818   6.970   6.833 -0.4386  0.2887 -0.2018
   30SAPC   H4R 3997   4.868   7.008   6.925 -0.3360 -1.5019  0.4975
   30SAPC   H4S 3998   4.905   6.984   6.765  0.2338  3.1261  1.1717
   30SAPC   C25 3999   4.783   6.824   6.844 -0.8060  0.1984  0.4844
   30SAPC   H5R 4000   4.769   6.763   6.754  0.0443 -0.0115  0.4971
   30SAPC   C26 4001   4.775   6.753   6.961 -0.4750 -0.4595 -0.4397
   30SAPC   H6R 4002   4.764   6.645   6.943  1.3325 -0.8433  0.6186
   30SAPC   C27 4003   4.796   6.803   7.101 -0.1903  0.1757 -0.3598
   30SAPC   H7R 4004   4.828   6.910   7.099  1.1121 -0.2024 -0.2025
   30SAPC   H7S 4005   4.880   6.748   7.149 -1.3435 -0.5980  0.8061
   30SAPC   C28 4006   4.668   6.802   7.176 -0.4996  0.3947 -0.0390
   30SAPC   H8R 4007   4.570   6.810   7.127 -1.0966 -0.2892  1.0008
   30SAPC   C29 4008   4.657   6.788   7.310 -0.3635  0.2319 -0.5383
   30SAPC   H9R 4009   4.557   6.786   7.357 -1.3810 -0.4385 -2.6567
   30SAPC  C210 4010   4.784   6.776   7.405  0.0684  0.0240  0.1536
   30SAPC  H10R 4011   4.829   6.875   7.428 -0.2261 -0.1444  1.5218
   30SAPC  H10S 4012   4.864   6.725   7.347  1.1163  0.8913  0.8091
   30SAPC  C211 4013   4.760   6.718   7.541 -0.6193  0.2661  0.7121
   30SAPC  H11R 4014   4.739   6.610   7.534  0.2730  0.1175  0.2628
   30SAPC  C212 4015   4.759   6.771   7.660 -0.2744  0.2400  0.0627
   30SAPC  H12R 4016   4.736   6.703   7.743  1.0361  0.3786  0.5514
   30SAPC  C213 4017   4.780   6.919   7.697  0.1588  0.8668 -0.0494
   30SAPC  H13R 4018   4.869   6.959   7.644  0.2747  1.0432  0.2796
   30SAPC  H13S 4019   4.805   6.922   7.805  3.0395  2.1398 -0.6966
   30SAPC  C214 4020   4.666   7.012   7.664  0.1538 -1.3133 -0.1759
   30SAPC  H14R 4021   4.575   6.963   7.626 -0.9778  1.6085 -1.3711
   30SAPC  C215 4022   4.663   7.142   7.682  0.4158  0.7765  0.0605
   30SAPC  H15R 4023   4.582   7.211   7.654 -0.8546  0.0638  1.8956
   30SAPC  C216 4024   4.781   7.216   7.743  0.1435 -0.3188  0.1707
   30SAPC  H16R 4025   4.800   7.312   7.689  0.2713  0.6583  1.9342
   30SAPC  H16S 4026   4.875   7.160   7.727 -0.7998 -1.7021 -0.6054
   30SAPC  C217 4027   4.749   7.251   7.892  0.3603  0.0545  0.5119
   30SAPC  H17R 4028   4.755   7.161   7.957  1.1381  1.4199  2.4094
   30SAPC  H17S 4029   4.643   7.286   7.894  0.1285 -0.6695  0.8129
   30SAPC  C218 4030   4.837   7.363   7.940  0.4979 -0.2569 -0.0889
   30SAPC  H18R 4031   4.781   7.416   8.020 -2.3111  0.1993 -2.2749
   30SAPC  H18S 4032   4.848   7.444   7.865 -1.5282  0.6178  0.5204
   30SAPC  C219 4033   4.974   7.327   7.987  0.4540 -1.2639  0.1634
   30SAPC  H19R 4034   5.021   7.424   8.015 -1.5687 -0.5547  1.1858
   30SAPC  H19S 4035   5.041   7.287   7.908 -2.2674  0.1437 -2.9799
   30SAPC  C220 4036   4.981   7.243   8.112 -0.0931 -0.6560  0.5044
   30SAPC  H20R 4037   5.063   7.283   8.176 -2.2923  1.0525  2.3174
   30SAPC  H20S 4038   5.000   7.137   8.085  0.1588 -0.2058 -1.1168
   30SAPC  H20T 4039   4.886   7.265   8.165 -0.8025  2.8709 -2.0140
   30SAPC   C33 4040   5.045   7.559   6.824 -0.1139  0.3485  0.0644
   30SAPC   H3X 4041   4.940   7.584   6.849 -0.8721 -1.8797 -0.7576
   30SAPC   H3Y 4042   5.092   7.651   6.784 -3.8364  1.2613 -2.5234
   30SAPC   C34 4043   5.102   7.519   6.965 -0.0600  0.6604  0.1601
   30SAPC   H4X 4044   5.105   7.606   7.035 -0.2047  1.0789 -0.3520
   30SAPC   H4Y 4045   5.205   7.477   6.965 -0.0900  0.5807 -1.5905
   30SAPC   C35 4046   5.016   7.413   7.028  0.0587  0.0152  0.0758
   30SAPC   H5X 4047   5.003   7.317   6.972  2.1911 -1.3347  1.8280
   30SAPC   H5Y 4048   4.910   7.448   7.029  0.4533  1.2008  0.4436
   30SAPC   C36 4049   5.069   7.349   7.158  0.2618 -0.5823  0.7346
   30SAPC   H6X 4050   5.151   7.421   7.181 -0.1897 -0.0256  0.6153
   30SAPC   H6Y 4051   5.110   7.249   7.131 -1.5657 -1.5718  1.5385
   30SAPC   C37 4052   4.966   7.321   7.269 -0.9279  0.5590  0.3441
   30SAPC   H7X 4053   5.019   7.270   7.352 -2.1772 -0.1706  0.6935
   30SAPC   H7Y 4054   4.883   7.258   7.231  1.9951 -2.2924 -1.5375
   30SAPC   C38 4055   4.910   7.443   7.336 -0.5089 -0.2685 -0.3530
   30SAPC   H8X 4056   4.807   7.427   7.373 -0.5309 -0.3274 -0.4371
   30SAPC   H8Y 4057   4.916   7.525   7.262  0.7800  1.2610  1.4086
   30SAPC   C39 4058   4.978   7.480   7.468  0.9009  0.9107  0.0868
   30SAPC   H9X 4059   5.083   7.505   7.443  0.9565  0.2189 -0.3973
   30SAPC   H9Y 4060   4.976   7.383   7.522  2.0987 -1.7539 -4.3548
   30SAPC  C310 4061   4.906   7.589   7.545 -0.5433  0.2438  0.0858
   30SAPC  H10X 4062   4.805   7.568   7.585 -0.0141  0.8951  1.8168
   30SAPC  H10Y 4063   4.904   7.669   7.467 -0.3785  0.3518  0.1925
   30SAPC  C311 4064   4.995   7.636   7.659  0.3403 -0.5294 -0.5624
   30SAPC  H11X 4065   5.103   7.644   7.635  0.3781  0.8699  0.0577
   30SAPC  H11Y 4066   4.992   7.551   7.731  1.9390 -0.1886 -0.0706
   30SAPC  C312 4067   4.939   7.762   7.727  0.5995 -0.2017 -0.1395
   30SAPC  H12X 4068   4.830   7.767   7.702  1.5354  1.4993 -4.2997
   30SAPC  H12Y 4069   4.997   7.847   7.684 -0.7937 -0.0980 -1.8807
   30SAPC  C313 4070   4.952   7.763   7.880  0.0048  0.0090  0.5421
   30SAPC  H13X 4071   4.909   7.670   7.922 -1.4826  1.8314  3.2060
   30SAPC  H13Y 4072   4.901   7.849   7.928  0.5708 -0.3047  1.7470
   30SAPC  C314 4073   5.101   7.774   7.928 -0.1248  0.3138  0.4607
   30SAPC  H14X 4074   5.133   7.874   7.890  2.1540 -0.9280 -1.0130
   30SAPC  H14Y 4075   5.155   7.695   7.872 -1.5166  0.6399 -1.3799
   30SAPC  C315 4076   5.134   7.759   8.076  0.0696 -0.7028  0.0188
   30SAPC  H15X 4077   5.084   7.666   8.110 -1.4911 -0.5294 -1.7385
   30SAPC  H15Y 4078   5.084   7.834   8.141  0.8194  0.9684 -1.2988
   30SAPC  C316 4079   5.282   7.755   8.111  0.0631 -0.0962 -0.5791
   30SAPC  H16X 4080   5.325   7.852   8.079 -0.9500  0.7350  0.5407
   30SAPC  H16Y 4081   5.333   7.676   8.051  2.0914 -1.1881  2.4578
   30SAPC  C317 4082   5.311   7.728   8.256  0.5071  0.6584 -0.4180
   30SAPC  H17X 4083   5.273   7.627   8.284  1.2225  1.2064  2.6833
   30SAPC  H17Y 4084   5.246   7.799   8.311 -0.0927 -0.6532  0.5939
   30SAPC  C318 4085   5.452   7.756   8.282  0.2864  0.5879 -0.7860
   30SAPC  H18X 4086   5.484   7.748   8.388  3.7775 -1.6951 -1.9371
   30SAPC  H18Y 4087   5.481   7.857   8.246 -2.2188  1.4996 -0.3823
   30SAPC  H18Z 4088   5.507   7.680   8.222 -1.2878 -0.0623 -1.4290
   31SAPC     N 4089   5.387   1.682   5.919  0.2736 -0.8850 -0.1726
   31SAPC   C12 4090   5.474   1.561   5.950  0.2778 -0.3524  0.6740
   31SAPC  H12A 4091   5.562   1.559   5.888 -1.3242 -2.7753 -1.6304
   31SAPC  H12B 4092   5.418   1.472   5.925 -0.4694 -0.1822  1.7180
   31SAPC   C13 4093   5.378   1.681   5.770  0.7473 -0.0831  0.0519
   31SAPC  H13A 4094   5.467   1.636   5.728  0.0280  0.1424 -1.7272
   31SAPC  H13B 4095   5.289   1.626   5.743  0.3460 -0.8811  2.8343
   31SAPC  H13C 4096   5.355   1.782   5.739  0.0853  0.1367  1.2128
   31SAPC   C14 4097   5.257   1.697   5.992 -0.5395  0.1514  0.2545
   31SAPC  H14A 4098   5.188   1.618   5.967  0.1809  0.0786 -1.6265
   31SAPC  H14B 4099   5.269   1.699   6.099  1.2029 -0.7379  0.0938
   31SAPC  H14C 4100   5.209   1.787   5.957  1.1285  1.1166  0.4212
   31SAPC   C15 4101   5.466   1.804   5.958 -0.1131 -0.0206  0.0770
   31SAPC  H15A 4102   5.519   1.794   6.051  0.5947 -0.3188 -0.3531
   31SAPC  H15B 4103   5.537   1.833   5.882 -0.2106  1.5692  0.5549
   31SAPC  H15C 4104   5.400   1.889   5.972 -1.5614 -0.8186 -1.7103
   31SAPC   C11 4105   5.517   1.553   6.097 -0.2682 -0.4370 -0.0390
   31SAPC  H11A 4106   5.582   1.639   6.124  1.4196 -1.6960 -0.0084
   31SAPC  H11B 4107   5.588   1.467   6.096 -1.6766 -1.6115 -2.3390
   31SAPC     P 4108   5.345   1.405   6.227  0.0032  0.1303  0.4094
   31SAPC   O13 4109   5.214   1.421   6.289  0.1876  0.1929 -0.0897
   31SAPC   O14 4110   5.362   1.309   6.114 -0.3081 -0.3577 -0.0232
   31SAPC   O12 4111   5.404   1.545   6.186 -0.0595 -0.4261  0.1117
   31SAPC   O11 4112   5.443   1.341   6.343  0.4816  0.3666 -0.3917
   31SAPC    C1 4113   5.487   1.432   6.451 -0.4409  0.6323  0.7584
   31SAPC    HA 4114   5.427   1.526   6.449  0.4495  1.1801 -1.7315
   31SAPC    HB 4115   5.487   1.380   6.549  1.6998 -0.6621  0.1009
   31SAPC    C2 4116   5.638   1.473   6.449  0.7644  0.1027  0.3485
   31SAPC    HS 4117   5.658   1.524   6.352 -0.1781  1.6143  0.9225
   31SAPC   O21 4118   5.716   1.359   6.475  0.2282  0.1835 -0.3230
   31SAPC   C21 4119   5.845   1.369   6.425 -0.0734  0.4018 -0.2863
   31SAPC   O22 4120   5.887   1.464   6.356  0.3619  0.5227 -0.5022
   31SAPC   C22 4121   5.921   1.253   6.488  0.2344 -0.1570  0.2334
   31SAPC   H2R 4122   5.909   1.261   6.598  0.9010  1.6042  0.2043
   31SAPC   H2S 4123   5.885   1.156   6.448 -1.0652  0.7300 -0.7741
   31SAPC    C3 4124   5.676   1.576   6.557 -0.8926  0.2015 -0.6706
   31SAPC    HX 4125   5.597   1.652   6.544  0.9461  1.7512 -3.1030
   31SAPC    HY 4126   5.777   1.618   6.539 -0.8790  0.3683 -0.2007
   31SAPC   O31 4127   5.660   1.510   6.691  0.4171  0.2704 -0.6283
   31SAPC   C31 4128   5.767   1.493   6.769  0.8573 -0.4531 -0.2623
   31SAPC   O32 4129   5.880   1.499   6.731 -0.0572 -0.7605 -0.1713
   31SAPC   C32 4130   5.713   1.454   6.906  0.7709 -0.0466  0.2991
   31SAPC   H2X 4131   5.628   1.383   6.907  1.9906 -1.5539 -0.4862
   31SAPC   H2Y 4132   5.692   1.547   6.963 -0.1768  0.2944 -0.5930
   31SAPC   C23 4133   6.072   1.267   6.465 -0.2683  0.0011  0.2712
   31SAPC   H3R 4134   6.101   1.374   6.471 -2.1325  0.4819  1.1367
   31SAPC   H3S 4135   6.091   1.229   6.363 -0.6183  2.3957 -0.7004
   31SAPC   C24 4136   6.161   1.186   6.558  0.3313  0.4183  0.4045
   31SAPC   H4R 4137   6.269   1.196   6.533 -0.0973  0.7036 -1.4110
   31SAPC   H4S 4138   6.133   1.080   6.541  0.1980  0.5012  0.0975
   31SAPC   C25 4139   6.155   1.229   6.701 -0.4515  1.1025 -0.0724
   31SAPC   H5R 4140   6.207   1.324   6.720  0.2177  1.0583 -1.5940
   31SAPC   C26 4141   6.079   1.165   6.802 -0.3524  0.3585  1.4471
   31SAPC   H6R 4142   6.068   1.211   6.901 -2.2170 -0.0998  1.4679
   31SAPC   C27 4143   6.006   1.039   6.784 -0.2537 -0.4303 -0.5937
   31SAPC   H7R 4144   5.966   1.026   6.681 -0.3151  0.1944 -0.6519
   31SAPC   H7S 4145   5.906   1.039   6.832 -0.6307  1.1911 -1.3148
   31SAPC   C28 4146   6.106   0.922   6.812  0.2842  0.7599  0.1231
   31SAPC   H8R 4147   6.167   0.901   6.724 -0.5524 -0.4864 -0.1731
   31SAPC   C29 4148   6.120   0.854   6.930  0.0055 -0.6140  0.5625
   31SAPC   H9R 4149   6.205   0.788   6.950 -0.1711 -1.2950 -0.8471
   31SAPC  C210 4150   6.025   0.889   7.050 -0.0123 -0.4897  0.2927
   31SAPC  H10R 4151   5.998   0.795   7.103 -0.6458 -0.7937 -0.5457
   31SAPC  H10S 4152   5.930   0.930   7.009 -0.6689 -0.6022  1.6973
   31SAPC  C211 4153   6.075   0.992   7.142 -0.3039 -0.3881  0.5062
   31SAPC  H11R 4154   6.082   1.097   7.108  0.3493 -0.8873 -0.9530
   31SAPC  C212 4155   6.142   0.973   7.259 -0.5551 -0.0626  0.5783
   31SAPC  H12R 4156   6.160   1.062   7.321 -1.0953  1.7178 -1.7387
   31SAPC  C213 4157   6.160   0.832   7.316  0.3541  0.1158 -0.0046
   31SAPC  H13R 4158   6.145   0.750   7.242 -0.1909  0.5728 -0.4036
   31SAPC  H13S 4159   6.077   0.817   7.389  2.2050  0.5900  2.2454
   31SAPC  C214 4160   6.284   0.817   7.390  0.2643 -0.1626  0.1538
   31SAPC  H14R 4161   6.270   0.809   7.499  0.1514  2.3251  0.3538
   31SAPC  C215 4162   6.405   0.792   7.342 -0.2197  0.3686 -0.2307
   31SAPC  H15R 4163   6.494   0.787   7.407  0.2279  2.2945 -0.6699
   31SAPC  C216 4164   6.434   0.792   7.195  0.3363 -0.6610  0.0600
   31SAPC  H16R 4165   6.497   0.877   7.165 -1.5972  1.3792  1.5981
   31SAPC  H16S 4166   6.340   0.796   7.136  1.6689 -2.2570 -2.2107
   31SAPC  C217 4167   6.495   0.661   7.152  0.0112  0.0124 -0.3094
   31SAPC  H17R 4168   6.422   0.579   7.166  0.3189 -0.0297  1.1430
   31SAPC  H17S 4169   6.574   0.630   7.224 -0.2984 -0.4242 -0.1514
   31SAPC  C218 4170   6.550   0.658   7.016 -0.3450 -0.0245 -0.4208
   31SAPC  H18R 4171   6.658   0.633   7.016 -0.6200 -1.4877  3.0566
   31SAPC  H18S 4172   6.526   0.750   6.958  1.0004  1.2060  0.9607
   31SAPC  C219 4173   6.477   0.552   6.927  0.3538  0.7250  0.6966
   31SAPC  H19R 4174   6.370   0.569   6.952  0.2734  0.0885  0.7887
   31SAPC  H19S 4175   6.518   0.455   6.964 -0.6753  0.6781  1.7428
   31SAPC  C220 4176   6.517   0.568   6.782  0.2145 -0.1763 -0.1081
   31SAPC  H20R 4177   6.459   0.504   6.712 -0.9357  0.3712  0.3384
   31SAPC  H20S 4178   6.619   0.527   6.765  0.9736  1.2454  0.9584
   31SAPC  H20T 4179   6.513   0.675   6.753  1.0006 -0.3724 -1.0050
   31SAPC   C33 4180   5.829   1.381   6.974 -0.1375 -0.1205  0.5037
   31SAPC   H3X 4181   5.918   1.446   6.977  0.3402 -0.5784 -2.1054
   31SAPC   H3Y 4182   5.857   1.291   6.915  0.2819  0.4805 -0.2277
   31SAPC   C34 4183   5.797   1.337   7.122 -0.6308 -0.0490 -0.3024
   31SAPC   H4X 4184   5.880   1.269   7.151 -0.1228  0.1647 -1.2286
   31SAPC   H4Y 4185   5.706   1.277   7.101  0.5704 -1.9614 -0.1983
   31SAPC   C35 4186   5.774   1.447   7.224  0.3209  0.0903  0.0367
   31SAPC   H5X 4187   5.707   1.525   7.182 -0.4480 -1.4802 -1.7534
   31SAPC   H5Y 4188   5.873   1.481   7.260 -0.8217  1.6525  1.7958
   31SAPC   C36 4189   5.697   1.404   7.356 -0.3900 -0.5525  0.1282
   31SAPC   H6X 4190   5.729   1.301   7.385  1.0518 -0.1331  0.0721
   31SAPC   H6Y 4191   5.588   1.405   7.337 -0.8481  1.5293  2.6232
   31SAPC   C37 4192   5.722   1.509   7.466 -0.0547 -0.1202 -0.8256
   31SAPC   H7X 4193   5.675   1.607   7.441  0.8342  0.3998 -0.5090
   31SAPC   H7Y 4194   5.830   1.522   7.491 -0.5887 -1.2279  2.2428
   31SAPC   C38 4195   5.663   1.462   7.600  0.1353  0.1576  0.1458
   31SAPC   H8X 4196   5.707   1.361   7.612 -0.0348  0.1235  0.4782
   31SAPC   H8Y 4197   5.553   1.448   7.593  0.0583  2.1528 -3.8791
   31SAPC   C39 4198   5.699   1.563   7.713  0.4650 -0.5549 -0.1526
   31SAPC   H9X 4199   5.670   1.666   7.682 -1.2596 -0.9864 -0.0052
   31SAPC   H9Y 4200   5.810   1.571   7.723  0.5272 -0.9389 -0.5596
   31SAPC  C310 4201   5.640   1.533   7.847  0.0439  0.2624  0.2848
   31SAPC  H10X 4202   5.666   1.428   7.873  2.6162  0.7734 -0.0447
   31SAPC  H10Y 4203   5.531   1.549   7.852 -0.0750 -0.0550 -1.1404
   31SAPC  C311 4204   5.706   1.611   7.964 -0.6162 -0.1596 -0.2268
   31SAPC  H11X 4205   5.649   1.705   7.980 -0.4436 -0.0328 -0.3620
   31SAPC  H11Y 4206   5.812   1.640   7.948 -0.4444  0.3339  1.6798
   31SAPC  C312 4207   5.696   1.526   8.086 -0.9398 -0.1789 -0.2613
   31SAPC  H12X 4208   5.750   1.574   8.170  0.0107  0.2202 -1.0873
   31SAPC  H12Y 4209   5.749   1.429   8.069  0.5727  0.8974 -1.8089
   31SAPC  C313 4210   5.557   1.496   8.146 -0.2987  0.1191 -0.0159
   31SAPC  H13X 4211   5.484   1.476   8.064  1.3796 -0.7637 -1.3410
   31SAPC  H13Y 4212   5.529   1.590   8.198  0.2380 -0.1647  0.7844
   31SAPC  C314 4213   5.545   1.383   8.250 -0.7273 -0.3750  1.1544
   31SAPC  H14X 4214   5.547   1.286   8.196 -1.9516  0.5013 -0.5072
   31SAPC  H14Y 4215   5.450   1.392   8.306  0.2307 -0.2201  2.7874
   31SAPC  C315 4216   5.657   1.391   8.349 -0.0392  0.0186  0.0617
   31SAPC  H15X 4217   5.620   1.471   8.418 -0.9887  0.2282 -0.6762
   31SAPC  H15Y 4218   5.752   1.428   8.305 -1.3741  2.4811 -0.8349
   31SAPC  C316 4219   5.688   1.266   8.427 -0.1474  0.0136 -0.8630
   31SAPC  H16X 4220   5.762   1.200   8.377  0.5921 -1.2082  1.7562
   31SAPC  H16Y 4221   5.589   1.218   8.440 -0.8355  1.3674 -0.9227
   31SAPC  C317 4222   5.759   1.285   8.565  0.0703  0.2265  0.1352
   31SAPC  H17X 4223   5.706   1.353   8.635 -0.0743  2.8332 -2.3889
   31SAPC  H17Y 4224   5.857   1.332   8.541  0.0031 -0.4822 -1.6202
   31SAPC  C318 4225   5.795   1.149   8.629  0.1785 -0.6545  0.9282
   31SAPC  H18X 4226   5.702   1.090   8.642 -0.2094 -0.1857  0.3090
   31SAPC  H18Y 4227   5.827   1.161   8.735 -0.3814 -3.3107  1.4406
   31SAPC  H18Z 4228   5.866   1.091   8.567 -1.0785  0.4142 -1.6031
   32SAPC     N 4229   0.583   1.129   6.296  0.2427  0.5803  0.0784
   32SAPC   C12 4230   0.535   1.177   6.426  0.2374 -0.1279 -0.5440
   32SAPC  H12A 4231   0.620   1.212   6.484  0.2915 -0.9635 -0.1088
   32SAPC  H12B 4232   0.486   1.098   6.481 -0.0779  0.5431  0.1546
   32SAPC   C13 4233   0.670   1.002   6.317  0.2834 -0.0636 -0.2924
   32SAPC  H13A 4234   0.759   1.021   6.374 -0.0608  2.5290 -0.5510
   32SAPC  H13B 4235   0.624   0.918   6.367  1.4627  0.5458  1.8884
   32SAPC  H13C 4236   0.701   0.970   6.219 -0.7858  0.3137 -0.7659
   32SAPC   C14 4237   0.474   1.108   6.206  0.0045  0.5596 -0.4673
   32SAPC  H14A 4238   0.511   1.061   6.116  0.3196 -0.4668  0.1888
   32SAPC  H14B 4239   0.393   1.046   6.242  0.9679 -0.7321 -0.5045
   32SAPC  H14C 4240   0.428   1.201   6.175  0.0915  1.2654  1.4949
   32SAPC   C15 4241   0.670   1.233   6.219  0.3257  0.3367  0.0136
   32SAPC  H15A 4242   0.760   1.237   6.279  0.5700  0.0065 -0.3307
   32SAPC  H15B 4243   0.681   1.211   6.114  1.3702  0.6452  0.0625
   32SAPC  H15C 4244   0.617   1.325   6.236 -1.3099 -0.2952 -1.4892
   32SAPC   C11 4245   0.429   1.297   6.428 -0.0354 -0.0403  0.0716
   32SAPC  H11A 4246   0.386   1.320   6.528  0.2402 -0.0505  0.1924
   32SAPC  H11B 4247   0.343   1.260   6.368 -0.3285  2.5922 -1.2271
   32SAPC     P 4248   0.552   1.536   6.435  0.0680  0.6361  0.1318
   32SAPC   O13 4249   0.678   1.571   6.360  0.4771 -0.0591 -0.2400
   32SAPC   O14 4250   0.457   1.643   6.455  0.0963 -0.4466 -0.4709
   32SAPC   O12 4251   0.480   1.413   6.368 -0.6707 -1.1082  0.5205
   32SAPC   O11 4252   0.595   1.481   6.574  0.2275 -0.4908  0.4631
   32SAPC    C1 4253   0.509   1.490   6.689 -1.0646  0.0899 -0.2278
   32SAPC    HA 4254   0.404   1.459   6.669 -1.0467  0.1510 -0.4138
   32SAPC    HB 4255   0.546   1.415   6.763  0.5685 -0.4803 -1.5768
   32SAPC    C2 4256   0.534   1.626   6.751  0.3789  0.3143 -0.1760
   32SAPC    HS 4257   0.496   1.710   6.689  1.1487  0.4171 -0.5102
   32SAPC   O21 4258   0.672   1.645   6.778 -0.1925  0.1109 -0.3399
   32SAPC   C21 4259   0.722   1.766   6.770  0.4462 -0.0405 -0.1085
   32SAPC   O22 4260   0.660   1.863   6.729 -0.5263 -0.3337  0.0458
   32SAPC   C22 4261   0.858   1.784   6.835 -0.2675  0.6461 -0.0186
   32SAPC   H2R 4262   0.859   1.717   6.923 -2.9382  1.3626  0.5995
   32SAPC   H2S 4263   0.938   1.750   6.766 -1.6567 -3.3655  0.1966
   32SAPC    C3 4264   0.454   1.637   6.885  0.4291  0.5108 -0.6044
   32SAPC    HX 4265   0.494   1.549   6.939 -1.1340 -1.0016 -1.8543
   32SAPC    HY 4266   0.347   1.615   6.868  0.1844 -0.5273  2.1516
   32SAPC   O31 4267   0.480   1.758   6.961 -0.8803  0.6098  0.1231
   32SAPC   C31 4268   0.420   1.868   6.919 -0.0523  0.2203  0.5219
   32SAPC   O32 4269   0.333   1.867   6.836 -0.5588 -0.2137 -0.0874
   32SAPC   C32 4270   0.460   1.999   6.988  0.2716 -0.3227  0.4081
   32SAPC   H2X 4271   0.394   2.069   6.932  0.4854 -2.3949 -2.5320
   32SAPC   H2Y 4272   0.568   2.014   6.967  0.5486 -0.3029  1.7940
   32SAPC   C23 4273   0.885   1.925   6.892  0.0233 -0.3003 -0.0023
   32SAPC   H3R 4274   0.785   1.961   6.924  0.0444 -0.1762 -0.0734
   32SAPC   H3S 4275   0.923   1.990   6.810 -1.6813  1.8273  0.8362
   32SAPC   C24 4276   0.981   1.922   7.011 -0.2899 -0.3267 -0.1828
   32SAPC   H4R 4277   1.084   1.897   6.978 -0.5120 -0.9989 -0.3944
   32SAPC   H4S 4278   0.949   1.855   7.094  0.4845 -0.7205 -0.1940
   32SAPC   C25 4279   1.008   2.054   7.073  0.5967 -0.2546 -0.1191
   32SAPC   H5R 4280   1.048   2.130   7.004  1.8578  0.2996  1.1981
   32SAPC   C26 4281   0.990   2.084   7.209  0.1084 -0.2665  0.1545
   32SAPC   H6R 4282   1.018   2.183   7.247  0.6998 -0.5473  0.4452
   32SAPC   C27 4283   0.940   1.990   7.316  0.5348  0.5553 -0.5042
   32SAPC   H7R 4284   0.923   1.885   7.283 -0.2283  0.9765 -1.4546
   32SAPC   H7S 4285   0.843   2.031   7.349  0.9686 -0.0404  1.5592
   32SAPC   C28 4286   1.043   1.976   7.425 -0.0575 -0.4481 -0.1490
   32SAPC   H8R 4287   1.133   1.918   7.400 -1.9588 -2.6735 -1.9867
   32SAPC   C29 4288   1.040   2.026   7.552  0.0202 -1.0044 -0.5000
   32SAPC   H9R 4289   1.125   2.028   7.622  0.5623 -2.2834 -1.1193
   32SAPC  C210 4290   0.923   2.110   7.605  0.1392 -0.2534 -0.2784
   32SAPC  H10R 4291   0.892   2.178   7.523 -1.2611  0.5160  0.8721
   32SAPC  H10S 4292   0.959   2.167   7.692  2.1762 -1.3284 -0.3841
   32SAPC  C211 4293   0.809   2.022   7.664 -0.7706  0.0250  0.1970
   32SAPC  H11R 4294   0.762   1.960   7.586  1.3259  2.4189 -3.1214
   32SAPC  C212 4295   0.758   2.003   7.786  0.4686 -0.0965 -0.3295
   32SAPC  H12R 4296   0.672   1.938   7.807  0.5672 -0.7675 -1.8864
   32SAPC  C213 4297   0.796   2.070   7.917  0.3809  0.0671 -0.2595
   32SAPC  H13R 4298   0.715   2.063   7.992  1.3122 -0.9649  0.6669
   32SAPC  H13S 4299   0.807   2.180   7.901  0.8824 -0.3013 -2.6668
   32SAPC  C214 4300   0.929   2.036   7.980 -0.3192  0.3079 -0.5252
   32SAPC  H14R 4301   1.004   2.009   7.904 -1.6515  0.5475 -1.9442
   32SAPC  C215 4302   0.965   2.020   8.111  0.5409  0.2059  0.3231
   32SAPC  H15R 4303   1.066   1.988   8.138  0.2589 -0.2262  0.8826
   32SAPC  C216 4304   0.871   2.028   8.232 -0.0053 -0.1092 -0.0583
   32SAPC  H16R 4305   0.769   2.056   8.198 -0.0185 -1.0858 -0.8221
   32SAPC  H16S 4306   0.904   2.103   8.307 -3.0645  0.9450  0.3308
   32SAPC  C217 4307   0.861   1.898   8.316  0.0670  0.7285 -0.1462
   32SAPC  H17R 4308   0.822   1.809   8.260  0.1868 -0.9314  2.3425
   32SAPC  H17S 4309   0.785   1.903   8.397  0.6347  1.2641  0.3555
   32SAPC  C218 4310   0.990   1.858   8.399  0.2180 -0.1841  0.5581
   32SAPC  H18R 4311   1.020   1.952   8.451  0.6234 -0.0412  0.0766
   32SAPC  H18S 4312   1.070   1.842   8.324 -0.4061  4.1376 -1.2090
   32SAPC  C219 4313   0.959   1.745   8.496  0.9354 -0.1830 -0.0176
   32SAPC  H19R 4314   0.951   1.653   8.434 -1.0767 -0.4029  0.5319
   32SAPC  H19S 4315   0.864   1.759   8.551  0.4336 -1.5569 -0.5151
   32SAPC  C220 4316   1.077   1.723   8.596 -0.3403  0.7304 -0.4246
   32SAPC  H20R 4317   1.112   1.811   8.655  0.5332  0.1539 -0.0717
   32SAPC  H20S 4318   1.171   1.697   8.543 -1.4128 -3.5809 -0.3662
   32SAPC  H20T 4319   1.064   1.639   8.667  1.5547  1.4298  0.7833
   32SAPC   C33 4320   0.429   2.001   7.143 -0.3593  0.7527  0.3812
   32SAPC   H3X 4321   0.325   1.963   7.153  1.4439 -4.3574  1.0598
   32SAPC   H3Y 4322   0.409   2.104   7.179  1.1747  1.2359 -0.0968
   32SAPC   C34 4323   0.534   1.938   7.224  0.9331 -0.4765 -0.4832
   32SAPC   H4X 4324   0.636   1.983   7.215  0.9669 -0.2763  0.8100
   32SAPC   H4Y 4325   0.543   1.830   7.198  1.1991 -0.7885  0.8378
   32SAPC   C35 4326   0.505   1.924   7.377  0.4320 -0.5146  0.3975
   32SAPC   H5X 4327   0.395   1.909   7.376  0.6199 -1.9423  0.5454
   32SAPC   H5Y 4328   0.537   2.014   7.434  0.7128 -2.0731  2.7655
   32SAPC   C36 4329   0.572   1.815   7.448  0.1334 -0.9465 -0.1762
   32SAPC   H6X 4330   0.679   1.837   7.468 -0.8041  2.7905  0.9886
   32SAPC   H6Y 4331   0.578   1.726   7.381 -2.7359 -1.0926 -0.2817
   32SAPC   C37 4332   0.500   1.784   7.579 -0.4494 -0.9289 -0.4977
   32SAPC   H7X 4333   0.399   1.748   7.549 -0.4309 -0.5045 -1.0737
   32SAPC   H7Y 4334   0.483   1.881   7.630  0.3499 -2.6244  3.1352
   32SAPC   C38 4335   0.570   1.686   7.675 -0.4417 -0.5355 -0.0094
   32SAPC   H8X 4336   0.667   1.733   7.699 -0.7056  0.5298 -0.9880
   32SAPC   H8Y 4337   0.593   1.601   7.607  0.8487 -2.1296  2.3619
   32SAPC   C39 4338   0.487   1.674   7.805 -0.8488 -1.0253  0.4955
   32SAPC   H9X 4339   0.389   1.631   7.777 -0.6940 -0.1748 -1.4566
   32SAPC   H9Y 4340   0.469   1.770   7.859 -0.4481 -0.0531 -1.0649
   32SAPC  C310 4341   0.547   1.569   7.903 -0.1043 -0.2019 -0.1521
   32SAPC  H10X 4342   0.657   1.581   7.904 -0.1304  0.0390 -0.1981
   32SAPC  H10Y 4343   0.525   1.465   7.871  0.2202 -0.9226  1.8641
   32SAPC  C311 4344   0.469   1.580   8.037  0.1301 -0.4453 -0.8517
   32SAPC  H11X 4345   0.467   1.481   8.086 -1.8825 -0.1685 -0.3355
   32SAPC  H11Y 4346   0.363   1.612   8.022  0.1010  1.1160  2.3460
   32SAPC  C312 4347   0.547   1.673   8.136  0.3259  1.1411  0.2402
   32SAPC  H12X 4348   0.562   1.765   8.076 -1.6691  1.8020  0.7286
   32SAPC  H12Y 4349   0.645   1.625   8.157 -0.9940 -1.7263  0.1152
   32SAPC  C313 4350   0.486   1.701   8.272  0.1579  0.6108 -0.8594
   32SAPC  H13X 4351   0.392   1.757   8.252 -1.2820 -0.4068  2.7630
   32SAPC  H13Y 4352   0.548   1.750   8.350 -2.0172 -1.1177  2.0275
   32SAPC  C314 4353   0.436   1.571   8.346  0.2974  0.1303  0.5814
   32SAPC  H14X 4354   0.522   1.504   8.369  1.4877  1.5706  0.4230
   32SAPC  H14Y 4355   0.375   1.506   8.279  0.4014 -1.5603  2.0995
   32SAPC  C315 4356   0.364   1.589   8.477  0.2301  0.7924  0.2047
   32SAPC  H15X 4357   0.274   1.650   8.452  0.9782  0.7727 -2.8142
   32SAPC  H15Y 4358   0.431   1.651   8.541 -1.2122  2.2377  0.3489
   32SAPC  C316 4359   0.331   1.453   8.539 -0.2365  0.2830 -0.6976
   32SAPC  H16X 4360   0.430   1.412   8.569 -0.2002  1.8700  1.5094
   32SAPC  H16Y 4361   0.289   1.380   8.467 -2.2615  1.9900 -1.3156
   32SAPC  C317 4362   0.251   1.460   8.669  0.5931 -0.2041 -0.6997
   32SAPC  H17X 4363   0.146   1.435   8.644  0.2452  0.5165  0.0272
   32SAPC  H17Y 4364   0.254   1.561   8.713 -1.2046  0.3078 -1.7012
   32SAPC  C318 4365   0.306   1.359   8.769 -0.0343 -0.3554 -0.1220
   32SAPC  H18X 4366   0.340   1.268   8.714 -0.9405 -1.6577  1.4218
   32SAPC  H18Y 4367   0.227   1.323   8.838 -0.0069 -0.2198 -0.0218
   32SAPC  H18Z 4368   0.393   1.392   8.829  0.7820 -0.9299 -0.9804
   33POPC     N 4369   3.986   2.836  10.486  0.0868 -0.0637  0.1236
   33POPC   C12 4370   4.081   2.837  10.607 -0.5005 -0.2987  0.8617
   33POPC  H12A 4371   4.021   2.848  10.697 -0.5085  1.1202  0.6917
   33POPC  H12B 4372   4.136   2.929  10.599 -0.2749 -0.7550 -3.7328
   33POPC   C13 4373   3.889   2.721  10.494 -0.0068 -0.8532 -0.4803
   33POPC  H13A 4374   3.944   2.628  10.489  1.2213 -0.1784 -0.0025
   33POPC  H13B 4375   3.837   2.735  10.588  0.2219  1.1566 -0.6309
   33POPC  H13C 4376   3.819   2.718  10.412 -0.3450 -0.8047 -0.1963
   33POPC   C14 4377   3.907   2.966  10.488 -0.3457  0.4475  1.2050
   33POPC  H14A 4378   3.840   2.969  10.573 -1.5342 -0.8144  0.3467
   33POPC  H14B 4379   3.965   3.057  10.486  0.4186 -0.0557 -1.0504
   33POPC  H14C 4380   3.849   2.965  10.397 -0.5096  1.4780  1.2951
   33POPC   C15 4381   4.063   2.834  10.359 -1.1175 -0.6657  0.1431
   33POPC  H15A 4382   3.995   2.862  10.280 -1.2151  0.1413  0.5064
   33POPC  H15B 4383   4.122   2.745  10.347  2.0497  0.8774  3.0053
   33POPC  H15C 4384   4.138   2.912  10.369 -0.0572 -1.7003  0.3376
   33POPC   C11 4385   4.176   2.712  10.624 -0.3137 -0.3822 -0.1264
   33POPC  H11A 4386   4.126   2.615  10.605 -1.0006 -0.2955  1.1294
   33POPC  H11B 4387   4.204   2.706  10.732  0.8343 -1.3121 -0.4598
   33POPC     P 4388   4.419   2.630  10.584  0.2342  0.1574 -0.4765
   33POPC   O13 4389   4.462   2.672  10.721 -0.4110  0.0466  0.1272
   33POPC   O14 4390   4.521   2.641  10.478  0.1245  0.0539  0.1989
   33POPC   O12 4391   4.294   2.717  10.544 -0.8449 -0.4488 -0.0954
   33POPC   O11 4392   4.363   2.476  10.590 -0.0948  0.7983 -0.5012
   33POPC    C1 4393   4.271   2.430  10.490 -0.0190  1.0374  0.3673
   33POPC    HA 4394   4.189   2.381  10.546  1.0481 -2.5872 -1.1201
   33POPC    HB 4395   4.236   2.507  10.418 -2.1935 -1.4802 -1.3555
   33POPC    C2 4396   4.328   2.313  10.399 -0.1489  0.3002 -0.2825
   33POPC    HS 4397   4.352   2.230  10.469 -0.3436  0.8817  0.4804
   33POPC   O21 4398   4.441   2.354  10.319  0.1199 -0.2094 -0.3641
   33POPC   C21 4399   4.558   2.353  10.384  0.5184 -0.0747  0.1385
   33POPC   O22 4400   4.581   2.313  10.495 -0.0930 -0.3056  0.0832
   33POPC   C22 4401   4.679   2.398  10.292 -0.3455 -0.2338 -0.5397
   33POPC   H2R 4402   4.735   2.303  10.276  2.3187  1.1139  0.4675
   33POPC   H2S 4403   4.750   2.467  10.342  0.8633 -0.5765 -1.7527
   33POPC    C3 4404   4.218   2.258  10.298  0.3706 -0.2346  0.0762
   33POPC    HX 4405   4.126   2.243  10.359  0.3279  2.1035  0.6166
   33POPC    HY 4406   4.245   2.156  10.264 -2.9241 -0.9716 -0.4770
   33POPC   O31 4407   4.187   2.354  10.192 -0.7837 -0.0954 -0.5086
   33POPC   C31 4408   4.090   2.433  10.192 -0.2538  0.6380 -0.4125
   33POPC   O32 4409   4.015   2.450  10.286 -0.2238  0.2084  0.4825
   33POPC   C32 4410   4.090   2.504  10.054  0.3508  0.0752 -0.3512
   33POPC   H2X 4411   4.001   2.570  10.056  0.4549  0.3886 -3.2239
   33POPC   H2Y 4412   4.051   2.428   9.983  0.6678 -0.8904  0.5083
   33POPC   C23 4413   4.643   2.457  10.159 -0.0760 -0.1377 -0.3855
   33POPC   H3R 4414   4.612   2.564  10.162 -0.6930 -0.3158 -0.4093
   33POPC   H3S 4415   4.559   2.401  10.112 -1.0620 -0.2006  1.4362
   33POPC   C24 4416   4.759   2.454  10.059  0.2829  0.7403 -0.7443
   33POPC   H4R 4417   4.793   2.349  10.049  1.5796  1.1893 -1.1695
   33POPC   H4S 4418   4.844   2.507  10.107 -0.2783 -0.0632  1.2039
   33POPC   C25 4419   4.718   2.509   9.918  0.2336 -0.0106 -0.4397
   33POPC   H5R 4420   4.674   2.611   9.916 -0.7150 -0.3233  2.3502
   33POPC   H5S 4421   4.638   2.445   9.877  0.4835  1.2053 -2.8989
   33POPC   C26 4422   4.838   2.506   9.825  0.0426  0.5658 -0.4319
   33POPC   H6R 4423   4.797   2.501   9.722  1.5582 -0.1711 -1.0095
   33POPC   H6S 4424   4.893   2.412   9.846 -1.2122  0.3122  1.8650
   33POPC   C27 4425   4.930   2.625   9.841  0.6292 -0.1797  1.0138
   33POPC   H7R 4426   5.034   2.602   9.808  0.2943  1.0799 -0.9914
   33POPC   H7S 4427   4.933   2.647   9.950 -1.8288 -1.6872  1.4242
   33POPC   C28 4428   4.882   2.750   9.757  0.5455 -0.4582 -0.1649
   33POPC   H8R 4429   4.948   2.838   9.774  0.4543 -0.5951  0.9345
   33POPC   H8S 4430   4.782   2.776   9.797 -0.5796  1.1775 -3.8143
   33POPC   C29 4431   4.861   2.741   9.605  0.0446 -0.4614  0.3212
   33POPC   H91 4432   4.767   2.698   9.569  0.0803 -1.2478  1.1542
   33POPC  C210 4433   4.953   2.779   9.512  0.5146  0.5627  0.0257
   33POPC  H101 4434   4.933   2.771   9.404  0.5771  0.9424 -0.0121
   33POPC  C211 4435   5.090   2.845   9.536  0.1166 -0.7224  0.3195
   33POPC  H11R 4436   5.135   2.797   9.625  1.4080 -1.4694 -0.7228
   33POPC  H11S 4437   5.077   2.953   9.559  0.7511 -0.1719 -1.8307
   33POPC  C212 4438   5.190   2.825   9.412 -0.2336 -0.5235 -0.3054
   33POPC  H12R 4439   5.186   2.722   9.370  0.0493 -0.3943 -0.6458
   33POPC  H12S 4440   5.296   2.834   9.442  0.3830 -2.2662 -1.8658
   33POPC  C213 4441   5.174   2.924   9.298 -0.3462  0.5098  1.0175
   33POPC  H13R 4442   5.197   3.025   9.339  2.5709 -0.1140  1.0387
   33POPC  H13S 4443   5.078   2.914   9.244 -0.9007  1.2327  1.8406
   33POPC  C214 4444   5.290   2.909   9.198  0.4354  0.1062 -0.1322
   33POPC  H14R 4445   5.381   2.903   9.262  0.9958  1.4110 -0.7665
   33POPC  H14S 4446   5.302   3.003   9.139 -3.2773  1.2628  0.8073
   33POPC  C215 4447   5.285   2.790   9.099  0.8610 -0.1590 -0.5405
   33POPC  H15R 4448   5.281   2.700   9.165  0.6019  1.4695  1.7081
   33POPC  H15S 4449   5.385   2.777   9.052  1.4233  0.8711  0.3604
   33POPC  C216 4450   5.163   2.798   8.999  0.0332 -0.0998  0.1656
   33POPC  H16R 4451   5.068   2.815   9.054 -0.4515 -1.5935 -0.1798
   33POPC  H16S 4452   5.158   2.704   8.940  2.0218  0.2332 -0.5894
   33POPC  C217 4453   5.175   2.920   8.905 -0.6321  0.0728  0.0558
   33POPC  H17R 4454   5.280   2.931   8.871 -0.4559  0.2488  0.6481
   33POPC  H17S 4455   5.157   3.023   8.942  0.6686  0.3707 -0.0992
   33POPC  C218 4456   5.091   2.905   8.779 -0.2752 -0.4336  0.3385
   33POPC  H18R 4457   4.983   2.882   8.791 -0.3384 -1.0586 -1.2813
   33POPC  H18S 4458   5.135   2.830   8.709 -0.6955 -1.6407  1.3416
   33POPC  H18T 4459   5.100   3.000   8.723 -1.4138 -1.0912 -0.9913
   33POPC   C33 4460   4.229   2.566  10.014  0.8844 -0.8027  0.3009
   33POPC   H3X 4461   4.300   2.484   9.991  1.8368 -0.1263  0.7712
   33POPC   H3Y 4462   4.270   2.630  10.095 -0.7691  1.1930 -0.3984
   33POPC   C34 4463   4.209   2.672   9.902  0.5738  0.2048 -0.5401
   33POPC   H4X 4464   4.119   2.735   9.919  1.5546  1.0618  1.6543
   33POPC   H4Y 4465   4.204   2.621   9.804  1.4772  0.3770 -0.6769
   33POPC   C35 4466   4.325   2.770   9.907  0.1452  0.0854 -0.0429
   33POPC   H5X 4467   4.418   2.711   9.922  0.8583  1.0826 -0.4131
   33POPC   H5Y 4468   4.316   2.824  10.003  0.0190 -1.6202  0.9151
   33POPC   C36 4469   4.331   2.861   9.784  0.0933  1.0687 -0.0229
   33POPC   H6X 4470   4.246   2.931   9.772  0.4973  2.0444  2.5620
   33POPC   H6Y 4471   4.337   2.794   9.695 -2.7295  1.8397 -0.8361
   33POPC   C37 4472   4.466   2.930   9.780 -0.1988 -1.0852 -0.1639
   33POPC   H7X 4473   4.544   2.851   9.784 -0.0557 -0.9358  0.0438
   33POPC   H7Y 4474   4.477   2.998   9.867  0.8570  1.0636 -1.9156
   33POPC   C38 4475   4.488   3.031   9.667  0.2569  0.0969  0.2254
   33POPC   H8X 4476   4.581   3.089   9.684  1.2180 -0.4098 -2.8852
   33POPC   H8Y 4477   4.413   3.110   9.649  0.4671  0.4632  0.9319
   33POPC   C39 4478   4.510   2.954   9.539 -0.0847  0.2282 -0.0008
   33POPC   H9X 4479   4.420   2.890   9.529 -1.0197  1.5145  0.1107
   33POPC   H9Y 4480   4.593   2.883   9.561 -1.6190 -1.4082  0.6038
   33POPC  C310 4481   4.532   3.031   9.410 -0.0325  0.5523  0.7926
   33POPC  H10X 4482   4.628   3.085   9.424  0.6840 -0.5071  0.0046
   33POPC  H10Y 4483   4.453   3.106   9.393  1.3484  2.1507  1.2677
   33POPC  C311 4484   4.546   2.947   9.284  0.1497 -0.7079  0.0045
   33POPC  H11X 4485   4.476   2.863   9.265 -1.7178  0.9898 -0.8128
   33POPC  H11Y 4486   4.642   2.894   9.299  1.6703  1.6352 -1.1261
   33POPC  C312 4487   4.541   3.029   9.155  0.4036 -0.4654 -0.2023
   33POPC  H12X 4488   4.598   3.123   9.171 -3.4120  2.0568 -0.6559
   33POPC  H12Y 4489   4.436   3.057   9.134  0.5532  2.0708  2.0997
   33POPC  C313 4490   4.593   2.948   9.041  0.4416 -0.1495  0.2670
   33POPC  H13X 4491   4.528   2.861   9.019  0.5008  0.4194 -2.4283
   33POPC  H13Y 4492   4.693   2.909   9.070  0.5408 -0.9180 -1.0519
   33POPC  C314 4493   4.596   3.046   8.917 -0.0654  1.0070 -0.7086
   33POPC  H14X 4494   4.639   3.144   8.945  1.0376  0.1590  0.6213
   33POPC  H14Y 4495   4.488   3.063   8.896 -0.3073 -2.5625 -2.6123
   33POPC  C315 4496   4.665   2.990   8.798 -0.0317  0.3094 -0.3244
   33POPC  H15X 4497   4.619   2.889   8.807 -0.3213  0.7447  3.7694
   33POPC  H15Y 4498   4.775   2.996   8.806  0.0864 -0.1633 -1.4675
   33POPC  C316 4499   4.620   3.065   8.666 -0.4971  0.2981  0.4464
   33POPC  H16X 4500   4.706   3.070   8.596 -0.5980 -2.7618  0.0266
   33POPC  H16Y 4501   4.584   3.170   8.673  0.0368  0.3628  2.4899
   33POPC  H16Z 4502   4.546   3.003   8.611  1.5042 -0.7934 -1.0820
   34POPC     N 4503   3.586   3.520  10.713 -0.3881  0.1961 -0.3595
   34POPC   C12 4504   3.673   3.634  10.670  0.2567 -0.4079 -0.0224
   34POPC  H12A 4505   3.772   3.598  10.646  0.9254  0.0414  1.9132
   34POPC  H12B 4506   3.700   3.702  10.751 -0.1002  0.1272 -0.3473
   34POPC   C13 4507   3.468   3.574  10.786  0.1173  0.6554  0.0975
   34POPC  H13A 4508   3.415   3.646  10.725 -0.1426  0.5747  0.2306
   34POPC  H13B 4509   3.396   3.496  10.806  0.0011  0.4109 -1.2066
   34POPC  H13C 4510   3.498   3.612  10.882 -2.0716 -1.4977  1.6918
   34POPC   C14 4511   3.537   3.438  10.597  0.9434  0.3389  0.9230
   34POPC  H14A 4512   3.622   3.411  10.537  1.8545  0.1818  2.2453
   34POPC  H14B 4513   3.474   3.355  10.625  0.5355  1.1000  2.3257
   34POPC  H14C 4514   3.471   3.497  10.535 -0.4259 -1.1030  0.9894
   34POPC   C15 4515   3.673   3.425  10.794  0.6356  0.0490 -0.1118
   34POPC  H15A 4516   3.671   3.457  10.897  1.7810 -0.1908 -0.0039
   34POPC  H15B 4517   3.767   3.396  10.749  1.6073  1.9154  0.6359
   34POPC  H15C 4518   3.622   3.330  10.798 -1.2914  0.9970 -1.1634
   34POPC   C11 4519   3.625   3.717  10.541 -0.0969  0.3522 -0.2910
   34POPC  H11A 4520   3.613   3.648  10.455  1.0888  0.5007 -0.5760
   34POPC  H11B 4521   3.704   3.789  10.511  0.8975 -1.0523 -1.0545
   34POPC     P 4522   3.476   3.914  10.627  0.0851 -0.0412 -0.3107
   34POPC   O13 4523   3.585   3.934  10.726  0.2753  0.1869 -0.4800
   34POPC   O14 4524   3.343   3.924  10.682  0.1853 -0.2910  0.5252
   34POPC   O12 4525   3.492   3.775  10.559  0.1224  0.2214  0.1512
   34POPC   O11 4526   3.498   4.023  10.510 -0.2565  0.6811 -0.2989
   34POPC    C1 4527   3.432   4.022  10.382  0.2339 -0.0019  0.5574
   34POPC    HA 4528   3.410   4.127  10.352 -1.0265 -0.4526 -0.1148
   34POPC    HB 4529   3.332   3.974  10.379 -0.3545  1.2508 -0.4296
   34POPC    C2 4530   3.507   3.952  10.271 -1.3239 -0.1458  0.0919
   34POPC    HS 4531   3.511   3.846  10.303 -1.2045  0.0622  0.7776
   34POPC   O21 4532   3.644   4.008  10.269  0.4262 -0.0575 -0.4357
   34POPC   C21 4533   3.747   3.926  10.263  0.2396 -0.2364 -0.3229
   34POPC   O22 4534   3.736   3.806  10.256 -0.3243  0.4106  0.2064
   34POPC   C22 4535   3.880   4.004  10.255 -0.0186  0.2395  0.0151
   34POPC   H2R 4536   3.922   4.017  10.357  0.7144 -1.5182 -0.0397
   34POPC   H2S 4537   3.856   4.105  10.215  0.7166 -0.3591 -2.0033
   34POPC    C3 4538   3.437   3.962  10.133 -0.0983  0.4240 -0.1967
   34POPC    HX 4539   3.414   4.063  10.093  0.6839  0.8841  0.5044
   34POPC    HY 4540   3.334   3.924  10.146  0.4233 -1.3039 -0.9816
   34POPC   O31 4541   3.513   3.884  10.035 -0.3618  0.2497  0.1581
   34POPC   C31 4542   3.488   3.756  10.036  0.3370  0.5722 -0.3133
   34POPC   O32 4543   3.419   3.698  10.119 -0.5419  0.5042 -0.4540
   34POPC   C32 4544   3.548   3.679   9.924 -0.6338 -0.2656  0.6731
   34POPC   H2X 4545   3.600   3.589   9.964 -0.5391 -0.5761 -0.1429
   34POPC   H2Y 4546   3.636   3.727   9.877  1.2489 -1.2703  3.0402
   34POPC   C23 4547   3.980   3.943  10.148  0.1654  0.2867  0.4252
   34POPC   H3R 4548   4.011   3.838  10.170  1.5144  0.3229 -1.1985
   34POPC   H3S 4549   4.076   4.000  10.141  0.3481 -0.1215 -0.5436
   34POPC   C24 4550   3.925   3.926   9.999 -0.3973  0.2634 -1.4202
   34POPC   H4R 4551   3.852   3.843   9.991  1.8574 -2.3540  3.2760
   34POPC   H4S 4552   4.009   3.878   9.944  0.0069 -1.0202  0.2928
   34POPC   C25 4553   3.881   4.055   9.933  1.0088  0.3289 -0.1739
   34POPC   H5R 4554   3.974   4.101   9.893 -0.3848  2.2231 -1.3065
   34POPC   H5S 4555   3.833   4.114  10.014  1.2689 -1.1921  1.0977
   34POPC   C26 4556   3.784   4.030   9.817 -0.5559  0.8044  0.1864
   34POPC   H6R 4557   3.685   3.989   9.845  0.1010 -0.3195  0.8818
   34POPC   H6S 4558   3.829   3.943   9.764 -2.0489 -0.2316  0.6026
   34POPC   C27 4559   3.765   4.152   9.728  0.2272 -0.3911  0.2639
   34POPC   H7R 4560   3.863   4.183   9.686 -1.2186  2.4727 -1.0979
   34POPC   H7S 4561   3.724   4.236   9.788 -0.8755  0.2990 -1.4472
   34POPC   C28 4562   3.672   4.131   9.608 -0.1213 -0.1653 -0.3437
   34POPC   H8R 4563   3.688   4.030   9.566  0.7755 -1.8718  3.8732
   34POPC   H8S 4564   3.694   4.207   9.529  0.6041 -1.7290 -1.6735
   34POPC   C29 4565   3.531   4.152   9.651  0.3094 -0.0166  0.3531
   34POPC   H91 4566   3.501   4.076   9.725  1.2326 -3.1328 -2.3790
   34POPC  C210 4567   3.436   4.244   9.615 -0.6656 -0.7070 -0.3851
   34POPC  H101 4568   3.343   4.245   9.674 -0.1295  1.4379  0.4707
   34POPC  C211 4569   3.449   4.357   9.508 -0.5321 -0.4420 -0.2610
   34POPC  H11R 4570   3.557   4.367   9.485 -0.4294  0.4590  0.5456
   34POPC  H11S 4571   3.407   4.457   9.532  0.3598  0.1778 -1.2967
   34POPC  C212 4572   3.372   4.312   9.379  0.2521 -0.2990  0.2910
   34POPC  H12R 4573   3.384   4.395   9.306  2.8777  0.3251  1.3855
   34POPC  H12S 4574   3.264   4.303   9.402 -0.9887  0.9873 -4.4533
   34POPC  C213 4575   3.423   4.179   9.307  0.5155  0.3376  0.3454
   34POPC  H13R 4576   3.375   4.101   9.370  0.3252 -0.5589 -0.8889
   34POPC  H13S 4577   3.532   4.163   9.317  0.6974  1.2230 -0.1782
   34POPC  C214 4578   3.376   4.153   9.162 -0.9998 -0.4568  0.3190
   34POPC  H14R 4579   3.427   4.233   9.103  3.9172 -1.9634  2.2810
   34POPC  H14S 4580   3.267   4.155   9.143 -0.6358 -0.5737 -1.9675
   34POPC  C215 4581   3.421   4.021   9.091 -0.1502 -0.1465  0.3236
   34POPC  H15R 4582   3.528   4.035   9.067  0.4227 -2.0528  1.6981
   34POPC  H15S 4583   3.383   4.012   8.987  1.8090  1.8533 -0.5970
   34POPC  C216 4584   3.402   3.895   9.170 -0.4935  0.5580 -0.3921
   34POPC  H16R 4585   3.292   3.884   9.184 -0.9443  2.5429 -2.1325
   34POPC  H16S 4586   3.450   3.895   9.270 -2.8031 -1.8134  0.7796
   34POPC  C217 4587   3.460   3.762   9.101  0.4245  0.2371 -0.3051
   34POPC  H17R 4588   3.476   3.694   9.188  3.7883 -0.0787 -1.0993
   34POPC  H17S 4589   3.564   3.770   9.062 -0.4345 -0.7572 -2.9274
   34POPC  C218 4590   3.358   3.709   9.000 -0.3191 -0.3541 -0.7356
   34POPC  H18R 4591   3.256   3.707   9.042  0.8195 -2.1815  2.0729
   34POPC  H18S 4592   3.389   3.617   8.945 -0.8548 -1.5657  0.9391
   34POPC  H18T 4593   3.366   3.776   8.911 -0.8192 -1.0820 -1.3352
   34POPC   C33 4594   3.452   3.630   9.813 -0.1893 -0.3245  0.6481
   34POPC   H3X 4595   3.357   3.595   9.859 -1.1681  2.2910  0.7265
   34POPC   H3Y 4596   3.492   3.541   9.759 -0.4278 -0.0165 -0.0409
   34POPC   C34 4597   3.419   3.745   9.721 -0.1682  0.2248  0.5300
   34POPC   H4X 4598   3.512   3.805   9.711  0.4527 -0.9806 -1.0905
   34POPC   H4Y 4599   3.342   3.810   9.766  0.1910 -0.0159  1.5020
   34POPC   C35 4600   3.362   3.711   9.581 -0.3523 -1.0219 -0.1557
   34POPC   H5X 4601   3.418   3.635   9.522 -0.7730  0.9568 -3.2356
   34POPC   H5Y 4602   3.383   3.804   9.525  0.5751 -1.3815 -0.4256
   34POPC   C36 4603   3.209   3.695   9.589 -0.9436 -0.5211 -0.0518
   34POPC   H6X 4604   3.157   3.785   9.628 -2.3917 -1.1035 -0.5790
   34POPC   H6Y 4605   3.182   3.606   9.650 -0.6108  1.5972  3.3256
   34POPC   C37 4606   3.165   3.669   9.446 -0.2944  0.6181  0.2151
   34POPC   H7X 4607   3.234   3.702   9.366 -0.2723 -1.5624 -0.6956
   34POPC   H7Y 4608   3.070   3.725   9.428  0.3502  2.0562  1.1817
   34POPC   C38 4609   3.122   3.517   9.434  0.1047 -0.0103  0.1615
   34POPC   H8X 4610   3.054   3.486   9.516  0.3931 -2.1503 -0.3828
   34POPC   H8Y 4611   3.211   3.454   9.455  1.8921  1.8219 -1.6320
   34POPC   C39 4612   3.056   3.472   9.301  0.3208  0.2262  0.3819
   34POPC   H9X 4613   2.990   3.556   9.270  1.0586  0.6955  0.0686
   34POPC   H9Y 4614   2.999   3.379   9.324 -1.2949  1.2600  0.7036
   34POPC  C310 4615   3.168   3.431   9.193  0.2323  0.1606  0.4099
   34POPC  H10X 4616   3.210   3.335   9.230 -1.6246 -0.0796  2.0090
   34POPC  H10Y 4617   3.247   3.509   9.187  1.2401 -0.9964 -1.6444
   34POPC  C311 4618   3.107   3.411   9.049  0.5737  0.3225  0.2947
   34POPC  H11X 4619   3.102   3.512   9.002 -0.4338  1.5008  2.8342
   34POPC  H11Y 4620   3.005   3.370   9.063 -0.4323  1.5313 -2.9824
   34POPC  C312 4621   3.181   3.303   8.968  0.2473  0.1519  0.3254
   34POPC  H12X 4622   3.180   3.207   9.024 -1.3393 -0.1755 -0.2094
   34POPC  H12Y 4623   3.286   3.333   8.949  0.7691 -1.9090 -0.2167
   34POPC  C313 4624   3.111   3.257   8.838 -0.0283  0.1864 -0.1081
   34POPC  H13X 4625   3.182   3.207   8.767  2.5037  2.4893  0.7283
   34POPC  H13Y 4626   3.068   3.348   8.791  1.7327  1.0734 -0.0579
   34POPC  C314 4627   2.997   3.151   8.860  0.1819  0.8030 -0.3378
   34POPC  H14X 4628   2.972   3.151   8.968  2.9074  1.9804  0.3484
   34POPC  H14Y 4629   3.051   3.057   8.835 -1.0400 -0.3594  1.3155
   34POPC  C315 4630   2.887   3.156   8.765  0.5619 -0.7627  0.5193
   34POPC  H15X 4631   2.860   3.051   8.740 -1.1522 -0.2315  0.0013
   34POPC  H15Y 4632   2.927   3.203   8.672 -1.1651 -1.0347 -0.3974
   34POPC  C316 4633   2.763   3.234   8.815  0.2296  0.6286  0.5992
   34POPC  H16X 4634   2.683   3.248   8.740 -0.5233 -0.0378  1.2695
   34POPC  H16Y 4635   2.800   3.334   8.845  0.5390  0.1834  1.7352
   34POPC  H16Z 4636   2.729   3.185   8.909  1.5355 -1.6252 -0.0717
   35POPC     N 4637   2.349   0.757  11.467  0.1769 -0.7832  0.4081
   35POPC   C12 4638   2.450   0.842  11.391  0.0943  0.5831  0.7023
   35POPC  H12A 4639   2.542   0.786  11.384 -0.7924 -1.0541  1.6760
   35POPC  H12B 4640   2.479   0.931  11.443  0.2652  1.6429 -1.1647
   35POPC   C13 4641   2.226   0.842  11.476 -0.1498 -0.9310 -0.1087
   35POPC  H13A 4642   2.157   0.788  11.538  0.8176  0.2248  2.0384
   35POPC  H13B 4643   2.243   0.941  11.518  0.8426 -1.5750  1.0501
   35POPC  H13C 4644   2.189   0.857  11.376  0.4040 -0.3972 -0.2405
   35POPC   C14 4645   2.318   0.631  11.389 -0.2717 -0.0892 -0.2588
   35POPC  H14A 4646   2.416   0.584  11.385  1.0001  2.5586 -1.7528
   35POPC  H14B 4647   2.247   0.565  11.436  1.1622 -2.3520 -1.1673
   35POPC  H14C 4648   2.294   0.656  11.287  0.7075 -0.3609 -0.5682
   35POPC   C15 4649   2.390   0.731  11.603  0.0439  0.2826  0.1123
   35POPC  H15A 4650   2.327   0.658  11.652  1.1540 -0.7002  0.1152
   35POPC  H15B 4651   2.393   0.822  11.661 -1.0998  2.6653 -3.4166
   35POPC  H15C 4652   2.491   0.693  11.608  0.2610  0.7737 -0.5611
   35POPC   C11 4653   2.402   0.879  11.247  0.2259 -0.5767  0.6547
   35POPC  H11A 4654   2.463   0.958  11.200  1.6479 -0.2263  2.9874
   35POPC  H11B 4655   2.303   0.930  11.254 -0.2232 -1.0583 -1.7555
   35POPC     P 4656   2.529   0.734  11.082  0.0548  0.1924  0.4812
   35POPC   O13 4657   2.534   0.591  11.084 -0.3248  1.1296  0.2985
   35POPC   O14 4658   2.644   0.804  11.146  0.3883 -0.1571  0.4607
   35POPC   O12 4659   2.399   0.772  11.161  0.2663  0.7113 -0.3358
   35POPC   O11 4660   2.501   0.784  10.940  0.2858 -0.4859  0.0706
   35POPC    C1 4661   2.358   0.804  10.904  0.0698 -0.1196  0.0975
   35POPC    HA 4662   2.319   0.895  10.955 -0.6706 -0.6415  0.4755
   35POPC    HB 4663   2.291   0.731  10.955  0.3500 -1.0327 -0.8213
   35POPC    C2 4664   2.328   0.813  10.753  0.0826  0.0402  0.1471
   35POPC    HS 4665   2.381   0.728  10.707  0.4928  1.2926 -1.7492
   35POPC   O21 4666   2.375   0.935  10.708 -0.2257  0.0730 -0.0021
   35POPC   C21 4667   2.437   0.944  10.593 -0.7386 -0.6645 -0.6773
   35POPC   O22 4668   2.470   0.853  10.517 -0.1835  0.1013  0.3470
   35POPC   C22 4669   2.483   1.090  10.578 -0.2198  0.0519  0.1310
   35POPC   H2R 4670   2.554   1.105  10.662 -1.4650 -1.6244  1.5278
   35POPC   H2S 4671   2.396   1.158  10.592  1.9728  2.7494  1.2087
   35POPC    C3 4672   2.180   0.795  10.718 -0.9095 -0.3179  0.2995
   35POPC    HX 4673   2.137   0.895  10.742 -0.9250  0.2071 -1.8513
   35POPC    HY 4674   2.123   0.723  10.781  0.7405 -1.2846  0.7171
   35POPC   O31 4675   2.162   0.775  10.578 -0.9640 -0.4671 -0.4481
   35POPC   C31 4676   2.166   0.646  10.550 -0.7517  0.9126 -0.3741
   35POPC   O32 4677   2.203   0.558  10.626  0.5202 -0.2459  0.2345
   35POPC   C32 4678   2.085   0.615  10.421  0.8924  1.0412  0.2731
   35POPC   H2X 4679   2.106   0.691  10.343 -2.1213  1.4610 -0.2086
   35POPC   H2Y 4680   1.984   0.628  10.465  1.0438 -0.3109  1.0372
   35POPC   C23 4681   2.533   1.133  10.440  0.3904 -0.1649 -0.3933
   35POPC   H3R 4682   2.626   1.076  10.418 -0.3951 -1.9067  0.6971
   35POPC   H3S 4683   2.561   1.240  10.446  0.8585 -0.2571 -0.9113
   35POPC   C24 4684   2.426   1.133  10.333  0.6389 -0.1831 -0.1647
   35POPC   H4R 4685   2.368   1.223  10.361  0.2014 -1.0689  1.8600
   35POPC   H4S 4686   2.372   1.037  10.345  1.7784 -1.0438 -1.6128
   35POPC   C25 4687   2.477   1.139  10.186 -0.6006 -0.1688 -0.0365
   35POPC   H5R 4688   2.511   1.034  10.173  0.5026  0.0664  0.8680
   35POPC   H5S 4689   2.556   1.217  10.176 -0.4590 -0.5008 -1.6708
   35POPC   C26 4690   2.358   1.176  10.095 -0.4226  0.1091 -0.5630
   35POPC   H6R 4691   2.334   1.284  10.101 -1.5243 -0.2221  1.7566
   35POPC   H6S 4692   2.267   1.133  10.142 -1.2593  2.8873  0.4535
   35POPC   C27 4693   2.373   1.127   9.950  1.1402  0.4706  0.0633
   35POPC   H7R 4694   2.378   1.016   9.953 -2.5660  0.2841  1.3970
   35POPC   H7S 4695   2.468   1.175   9.917  0.6089  1.4763 -0.0108
   35POPC   C28 4696   2.263   1.177   9.858  0.2622  0.3797 -0.7316
   35POPC   H8R 4697   2.256   1.284   9.886  1.8434  0.3858 -0.2738
   35POPC   H8S 4698   2.165   1.133   9.886 -0.7885  3.1972  0.1775
   35POPC   C29 4699   2.302   1.157   9.710  0.1109 -0.1389 -0.1541
   35POPC   H91 4700   2.363   1.068   9.691  1.1588  0.5203  0.0991
   35POPC  C210 4701   2.271   1.229   9.612 -0.7898  0.2338  0.1092
   35POPC  H101 4702   2.310   1.197   9.513 -0.8622 -0.1826  0.2155
   35POPC  C211 4703   2.185   1.353   9.609 -0.0434  0.1387 -0.2085
   35POPC  H11R 4704   2.154   1.372   9.714  1.8896  0.0950  0.3925
   35POPC  H11S 4705   2.093   1.348   9.548 -0.8701  2.2363  0.8076
   35POPC  C212 4706   2.266   1.470   9.559  0.2188 -0.5233  0.0637
   35POPC  H12R 4707   2.250   1.477   9.449  0.9056 -2.0635 -0.1433
   35POPC  H12S 4708   2.373   1.457   9.588  1.0243  5.4590  0.4945
   35POPC  C213 4709   2.233   1.608   9.620 -0.7189 -0.8143  0.1455
   35POPC  H13R 4710   2.290   1.687   9.567 -0.2631  0.6541  2.7415
   35POPC  H13S 4711   2.274   1.602   9.723 -0.2121 -2.7273 -0.1480
   35POPC  C214 4712   2.089   1.650   9.630  0.1973 -0.6146  0.0002
   35POPC  H14R 4713   2.040   1.582   9.703  2.8764 -3.2256 -0.5378
   35POPC  H14S 4714   2.041   1.630   9.532  1.6618 -2.6255 -0.3382
   35POPC  C215 4715   2.050   1.796   9.674  0.2007 -0.1931  0.2996
   35POPC  H15R 4716   2.099   1.858   9.596 -1.0143  1.1695  0.5978
   35POPC  H15S 4717   2.100   1.809   9.773 -2.5325 -0.8823  1.8426
   35POPC  C216 4718   1.896   1.815   9.690 -0.7590  0.6628  0.4431
   35POPC  H16R 4719   1.871   1.734   9.761 -0.0229  0.7859  0.8498
   35POPC  H16S 4720   1.837   1.792   9.599  0.5588 -0.9245 -0.0374
   35POPC  C217 4721   1.846   1.941   9.751  0.0887 -0.1550 -0.1982
   35POPC  H17R 4722   1.901   1.949   9.847 -0.4582  1.1081  0.0188
   35POPC  H17S 4723   1.736   1.949   9.768  0.5889  3.6323  1.6526
   35POPC  C218 4724   1.887   2.079   9.680 -0.1427  0.4680 -0.1113
   35POPC  H18R 4725   1.805   2.110   9.611 -0.4148  2.0015  0.8558
   35POPC  H18S 4726   1.984   2.074   9.627 -0.9829 -1.9267 -1.5091
   35POPC  H18T 4727   1.893   2.154   9.762  0.8221  1.3612 -0.9825
   35POPC   C33 4728   2.115   0.472  10.363 -0.7979 -0.0374  0.0453
   35POPC   H3X 4729   2.081   0.400  10.440  0.5823  0.1377  0.8370
   35POPC   H3Y 4730   2.225   0.467  10.352 -0.9209 -0.6263 -0.9967
   35POPC   C34 4731   2.035   0.432  10.241  0.5617 -1.1130 -0.1095
   35POPC   H4X 4732   1.931   0.468  10.256  0.4935 -0.0488 -2.8730
   35POPC   H4Y 4733   2.018   0.322  10.235  0.3252 -1.2390  2.3463
   35POPC   C35 4734   2.093   0.472  10.107 -0.3044  0.2368 -0.6892
   35POPC   H5X 4735   2.190   0.419  10.098 -0.5395 -0.6265  1.6425
   35POPC   H5Y 4736   2.115   0.581  10.100 -1.2268  0.4661 -0.1799
   35POPC   C36 4737   1.987   0.437   9.997 -0.5233  0.3629  0.0509
   35POPC   H6X 4738   1.901   0.507  10.001 -0.2970  0.6059  0.8881
   35POPC   H6Y 4739   1.943   0.337  10.016 -0.0641 -0.5441 -3.3636
   35POPC   C37 4740   2.041   0.447   9.851  0.3958  0.5334 -0.0765
   35POPC   H7X 4741   2.143   0.491   9.844  0.6246 -0.1166 -0.9219
   35POPC   H7Y 4742   1.981   0.517   9.789 -0.9247 -1.1040 -0.6816
   35POPC   C38 4743   2.039   0.310   9.780 -0.6217 -0.0077  0.4865
   35POPC   H8X 4744   1.940   0.261   9.773  0.2388 -1.5113 -1.8928
   35POPC   H8Y 4745   2.097   0.242   9.847  0.0337  0.0885  0.0202
   35POPC   C39 4746   2.103   0.305   9.639 -0.2861  0.5075 -0.2109
   35POPC   H9X 4747   2.179   0.385   9.627 -1.1175  1.7117  2.2068
   35POPC   H9Y 4748   2.028   0.324   9.559 -2.7195  1.2960  2.1651
   35POPC  C310 4749   2.162   0.170   9.606  0.2706 -1.0036 -0.3207
   35POPC  H10X 4750   2.073   0.104   9.607 -0.2695 -0.2870  1.7673
   35POPC  H10Y 4751   2.235   0.134   9.682  0.0480  0.0950  0.4285
   35POPC  C311 4752   2.240   0.160   9.471  0.1322  0.4759  0.0193
   35POPC  H11X 4753   2.341   0.203   9.490 -0.6744  1.6493  1.7876
   35POPC  H11Y 4754   2.186   0.236   9.411  2.2695  2.2276  0.2537
   35POPC  C312 4755   2.237   0.021   9.410  0.5854  0.0883  0.5839
   35POPC  H12X 4756   2.131  -0.010   9.401  0.2913  0.7728  1.5032
   35POPC  H12Y 4757   2.291  -0.055   9.471  0.7073  0.0084  0.3765
   35POPC  C313 4758   2.286   0.008   9.262 -0.3958  0.3384 -0.1313
   35POPC  H13X 4759   2.392   0.037   9.246 -0.9433  2.2652 -0.5106
   35POPC  H13Y 4760   2.229   0.078   9.197 -0.0413 -0.7736 -1.6618
   35POPC  C314 4761   2.275  -0.133   9.212  0.4392  0.2972 -0.0845
   35POPC  H14X 4762   2.277  -0.203   9.299  1.5085  0.8903  0.3840
   35POPC  H14Y 4763   2.357  -0.151   9.139  1.8009  0.7257  1.3141
   35POPC  C315 4764   2.147  -0.155   9.141  0.7920  0.3640  0.1481
   35POPC  H15X 4765   2.164  -0.085   9.055 -0.7360 -0.5347 -0.9211
   35POPC  H15Y 4766   2.059  -0.122   9.201 -0.3308 -1.4554 -0.4657
   35POPC  C316 4767   2.135  -0.300   9.096 -0.1536 -0.7523  0.0099
   35POPC  H16X 4768   2.233  -0.337   9.060  1.6186  0.7220  3.1490
   35POPC  H16Y 4769   2.052  -0.309   9.022  1.2043  0.5810 -1.7092
   35POPC  H16Z 4770   2.100  -0.373   9.172 -0.4356 -0.0129  0.6007
   36POPC     N 4771   3.412   0.074  11.065 -0.5007  0.2297  0.3183
   36POPC   C12 4772   3.310   0.008  10.971  0.5219 -0.4591 -0.5124
   36POPC  H12A 4773   3.250   0.095  10.946  1.5658  1.1978  2.5095
   36POPC  H12B 4774   3.242  -0.051  11.030 -1.2190  1.6064 -0.3714
   36POPC   C13 4775   3.459  -0.041  11.154  0.0691 -0.8316 -0.8128
   36POPC  H13A 4776   3.482  -0.122  11.085  1.5752  0.5516 -1.9598
   36POPC  H13B 4777   3.535  -0.013  11.225 -1.7587  1.6985  0.2238
   36POPC  H13C 4778   3.371  -0.081  11.203  1.2215 -1.2275  0.9456
   36POPC   C14 4779   3.524   0.136  10.981  0.1387 -0.4725  0.0491
   36POPC  H14A 4780   3.579   0.057  10.933  0.1633 -1.0955  1.0749
   36POPC  H14B 4781   3.494   0.207  10.905  0.2205 -1.3795 -0.8387
   36POPC  H14C 4782   3.603   0.181  11.039 -0.2607  1.4408 -0.8676
   36POPC   C15 4783   3.357   0.193  11.145  0.4047 -0.8594 -0.3329
   36POPC  H15A 4784   3.277   0.157  11.210  0.8807  2.2764  2.0792
   36POPC  H15B 4785   3.326   0.266  11.073  1.9060  0.4704  0.3497
   36POPC  H15C 4786   3.433   0.244  11.202 -0.5139 -0.8260  0.9055
   36POPC   C11 4787   3.345  -0.089  10.860 -0.1860  0.4632  0.4878
   36POPC  H11A 4788   3.435  -0.054  10.805 -0.1787  0.9586  0.8133
   36POPC  H11B 4789   3.259  -0.091  10.790  1.4384  2.3511 -1.6228
   36POPC     P 4790   3.285  -0.344  10.921 -0.2702 -0.1870 -0.1229
   36POPC   O13 4791   3.170  -0.326  11.009  0.7565 -0.1101  0.2304
   36POPC   O14 4792   3.379  -0.456  10.949  0.7539 -0.4414 -0.0964
   36POPC   O12 4793   3.372  -0.217  10.917  0.8284  0.8101 -0.2647
   36POPC   O11 4794   3.230  -0.381  10.776 -0.3446  0.5082 -0.0299
   36POPC    C1 4795   3.322  -0.408  10.667  0.1702  0.3469  0.6319
   36POPC    HA 4796   3.367  -0.509  10.674  0.2443  0.4131  1.1279
   36POPC    HB 4797   3.401  -0.330  10.660  0.3335  0.0449 -0.9940
   36POPC    C2 4798   3.261  -0.402  10.530 -0.3036 -0.1772 -0.1346
   36POPC    HS 4799   3.189  -0.317  10.527  2.7789  2.5956  1.4684
   36POPC   O21 4800   3.190  -0.523  10.509 -0.1275 -0.0227  0.4363
   36POPC   C21 4801   3.076  -0.519  10.441 -0.4739  0.0637  1.0573
   36POPC   O22 4802   3.030  -0.419  10.394  0.2720  1.2062  0.1276
   36POPC   C22 4803   3.020  -0.658  10.430  0.6548 -0.1694 -0.7384
   36POPC   H2R 4804   2.909  -0.644  10.435  0.4875 -2.0065  1.4141
   36POPC   H2S 4805   3.044  -0.712  10.524  1.7014  4.0521  1.5460
   36POPC    C3 4806   3.375  -0.373  10.421  0.4086  0.5757  0.0806
   36POPC    HX 4807   3.455  -0.450  10.425  0.0496  0.2039  0.1217
   36POPC    HY 4808   3.420  -0.275  10.448  2.4075 -0.6826  1.4399
   36POPC   O31 4809   3.329  -0.367  10.286  1.1492  0.3378  0.0677
   36POPC   C31 4810   3.260  -0.266  10.247 -0.0121  0.6465 -0.0928
   36POPC   O32 4811   3.246  -0.164  10.310  0.0941  0.3610 -0.1939
   36POPC   C32 4812   3.180  -0.310  10.118 -0.4549 -0.0924 -0.7019
   36POPC   H2X 4813   3.160  -0.419  10.123  0.2279 -0.3027 -2.2899
   36POPC   H2Y 4814   3.240  -0.300  10.025 -3.0123  2.0667 -2.2115
   36POPC   C23 4815   3.070  -0.740  10.308  0.1805  0.3907 -0.2836
   36POPC   H3R 4816   3.066  -0.848  10.333  1.6553  0.2448 -0.6621
   36POPC   H3S 4817   3.168  -0.692  10.291 -0.2570  2.2539  2.1614
   36POPC   C24 4818   2.976  -0.710  10.190 -1.0044  0.1871  0.8608
   36POPC   H4R 4819   2.977  -0.599  10.181  2.2072  0.1085 -0.3846
   36POPC   H4S 4820   2.870  -0.744  10.197 -0.9934 -0.1334 -0.3211
   36POPC   C25 4821   3.026  -0.756  10.054 -0.1001  0.5053  0.3211
   36POPC   H5R 4822   3.032  -0.867  10.065 -2.4295  0.2663 -0.5780
   36POPC   H5S 4823   3.114  -0.694  10.028 -0.4926  1.5723  1.4599
   36POPC   C26 4824   2.945  -0.708   9.928  0.0003 -0.1649  0.0972
   36POPC   H6R 4825   2.899  -0.610   9.953 -1.1921 -0.3750 -1.2057
   36POPC   H6S 4826   2.863  -0.782   9.914 -0.7970  1.0715 -1.8637
   36POPC   C27 4827   3.026  -0.673   9.800 -1.1093  0.0422  0.0550
   36POPC   H7R 4828   3.113  -0.607   9.820 -0.7680 -0.2695 -0.4146
   36POPC   H7S 4829   2.953  -0.630   9.729 -1.0725  2.7788  1.6131
   36POPC   C28 4830   3.076  -0.795   9.730 -0.2724 -0.3036 -0.1004
   36POPC   H8R 4831   2.990  -0.852   9.688  0.7529  0.3000 -3.1914
   36POPC   H8S 4832   3.128  -0.862   9.801  0.1017  1.5542  1.4141
   36POPC   C29 4833   3.180  -0.743   9.630  0.1948 -0.1339 -0.0139
   36POPC   H91 4834   3.271  -0.697   9.669  0.8731  0.8757 -2.6569
   36POPC  C210 4835   3.146  -0.736   9.500 -0.1732  0.3330 -0.5100
   36POPC  H101 4836   3.204  -0.668   9.436  1.8652 -1.0228 -0.1379
   36POPC  C211 4837   3.027  -0.789   9.433  0.0072 -0.2263  0.6130
   36POPC  H11R 4838   2.939  -0.758   9.492 -0.0013  1.6360 -0.3448
   36POPC  H11S 4839   3.039  -0.897   9.457 -1.0578 -0.5634 -0.3487
   36POPC  C212 4840   3.012  -0.753   9.282  0.7167 -0.6088  0.6225
   36POPC  H12R 4841   3.002  -0.643   9.270 -1.1747 -1.1444 -3.3363
   36POPC  H12S 4842   2.910  -0.793   9.259 -0.7237  1.8056  2.5230
   36POPC  C213 4843   3.107  -0.825   9.182 -0.2499 -0.5233 -0.4143
   36POPC  H13R 4844   3.144  -0.920   9.226 -0.1680 -0.1197  0.4007
   36POPC  H13S 4845   3.189  -0.753   9.162 -1.5612  1.3324  0.7989
   36POPC  C214 4846   3.050  -0.848   9.037  0.6700  0.3498 -0.2541
   36POPC  H14R 4847   2.965  -0.918   9.046  0.7311  0.4475  1.1548
   36POPC  H14S 4848   3.123  -0.905   8.976 -3.5935 -2.3924 -3.0454
   36POPC  C215 4849   2.998  -0.721   8.963 -0.5479 -0.4336 -0.6215
   36POPC  H15R 4850   3.081  -0.648   8.969  0.8354 -1.8621 -1.9136
   36POPC  H15S 4851   2.923  -0.673   9.030  2.8865  1.2607  2.2108
   36POPC  C216 4852   2.949  -0.745   8.821  0.5056 -0.8872 -0.2511
   36POPC  H16R 4853   2.849  -0.792   8.823 -0.2083  0.6159  1.0913
   36POPC  H16S 4854   3.006  -0.802   8.745 -3.6342 -0.5320 -3.7709
   36POPC  C217 4855   2.916  -0.620   8.747  0.3425  0.2271  0.0608
   36POPC  H17R 4856   2.843  -0.561   8.805 -0.0187  0.0368 -0.1992
   36POPC  H17S 4857   2.882  -0.640   8.643  1.4788  0.4003 -0.3538
   36POPC  C218 4858   3.029  -0.516   8.738 -0.0737  0.4833  0.3341
   36POPC  H18R 4859   2.988  -0.428   8.685 -0.7570  1.2379  2.0669
   36POPC  H18S 4860   3.107  -0.549   8.667  0.5619  3.6608 -0.5391
   36POPC  H18T 4861   3.093  -0.491   8.826 -0.7979  1.4011  0.6103
   36POPC   C33 4862   3.047  -0.238  10.101  0.1802 -0.8127  0.0173
   36POPC   H3X 4863   3.066  -0.130  10.086  3.1549 -0.9759  2.1793
   36POPC   H3Y 4864   3.001  -0.245  10.202  0.4137 -3.2314 -0.0066
   36POPC   C34 4865   2.958  -0.297   9.995 -0.2332  0.0608 -0.2182
   36POPC   H4X 4866   2.875  -0.224   9.987  0.6067  1.1423  0.7061
   36POPC   H4Y 4867   2.929  -0.399  10.028  0.0291 -0.7791 -2.5046
   36POPC   C35 4868   3.017  -0.304   9.856  0.4913 -0.1110  0.1868
   36POPC   H5X 4869   3.090  -0.387   9.857  2.0473  1.2190  0.2460
   36POPC   H5Y 4870   3.073  -0.209   9.839  1.9068 -1.0364 -0.4339
   36POPC   C36 4871   2.905  -0.330   9.750 -0.2575 -0.8824 -0.2375
   36POPC   H6X 4872   2.845  -0.236   9.751  1.7481  0.4499 -1.7742
   36POPC   H6Y 4873   2.842  -0.411   9.793  0.0840 -0.9252  0.1948
   36POPC   C37 4874   2.947  -0.361   9.610  0.3293  0.0978  0.7038
   36POPC   H7X 4875   2.868  -0.429   9.573  0.3740  0.6182 -0.3583
   36POPC   H7Y 4876   3.037  -0.426   9.603  1.4515  1.8537 -2.2872
   36POPC   C38 4877   2.957  -0.239   9.520  0.7502 -0.4588  0.7907
   36POPC   H8X 4878   3.038  -0.174   9.558  0.0892  1.7205 -1.3647
   36POPC   H8Y 4879   2.863  -0.180   9.512 -0.8347 -2.7576  1.9056
   36POPC   C39 4880   2.979  -0.273   9.373 -0.5079  0.2123  0.7611
   36POPC   H9X 4881   2.899  -0.331   9.322  1.1924 -0.5295 -1.1342
   36POPC   H9Y 4882   3.062  -0.346   9.367 -1.4372 -1.0282  2.4237
   36POPC  C310 4883   3.011  -0.151   9.284 -0.0237  0.7184  0.1947
   36POPC  H10X 4884   3.115  -0.119   9.307 -0.4602  2.0792  0.2760
   36POPC  H10Y 4885   2.952  -0.063   9.317 -0.4786  0.3630  0.3202
   36POPC  C311 4886   3.005  -0.178   9.136  0.1563 -0.2340 -0.6249
   36POPC  H11X 4887   2.923  -0.247   9.108 -1.6890  1.9014 -0.6550
   36POPC  H11Y 4888   3.097  -0.232   9.105  1.4011  1.0809  0.7092
   36POPC  C312 4889   3.017  -0.054   9.047  0.8393 -0.5744 -0.4452
   36POPC  H12X 4890   3.101   0.005   9.088 -0.4443  0.0282  1.4123
   36POPC  H12Y 4891   2.920   0.001   9.051  0.7278 -0.7883 -0.1428
   36POPC  C313 4892   3.045  -0.087   8.899  0.1134  0.0183  0.3549
   36POPC  H13X 4893   2.965  -0.157   8.866 -0.1341  0.5997 -0.2956
   36POPC  H13Y 4894   3.142  -0.141   8.900 -0.3095 -0.7216  2.0788
   36POPC  C314 4895   3.052   0.041   8.816  0.4676 -0.1164  0.2983
   36POPC  H14X 4896   3.076   0.126   8.883 -1.1549 -0.0180  0.8027
   36POPC  H14Y 4897   2.950   0.048   8.772  0.1965 -0.7135  0.8180
   36POPC  C315 4898   3.156   0.047   8.704 -0.3693 -0.0319 -0.3317
   36POPC  H15X 4899   3.259   0.048   8.746 -1.1951  1.3679  1.7754
   36POPC  H15Y 4900   3.150   0.142   8.647 -1.5455  0.1724  0.1182
   36POPC  C316 4901   3.155  -0.077   8.623  0.4213 -0.4633 -0.2005
   36POPC  H16X 4902   3.051  -0.090   8.588  0.9397 -0.9640 -1.5744
   36POPC  H16Y 4903   3.193  -0.172   8.669  2.2645 -0.4824 -1.7246
   36POPC  H16Z 4904   3.216  -0.049   8.535  0.1542 -3.0778 -1.2570
   37POPC     N 4905   1.985   1.918   6.397  0.2223  0.4094  0.3169
   37POPC   C12 4906   1.951   1.963   6.538  0.3571 -0.5180  0.0030
   37POPC  H12A 4907   1.889   2.051   6.524 -0.3849 -1.1939 -1.0996
   37POPC  H12B 4908   2.042   1.979   6.593 -0.0797  1.1462  0.2808
   37POPC   C13 4909   2.095   1.821   6.417  0.3976  0.0496 -0.3943
   37POPC  H13A 4910   2.131   1.783   6.322  0.4440  1.0006 -0.7633
   37POPC  H13B 4911   2.177   1.863   6.473  1.2195 -1.5523 -0.3552
   37POPC  H13C 4912   2.065   1.738   6.479 -0.2236 -0.9911 -2.0403
   37POPC   C14 4913   1.877   1.846   6.321  0.5381  0.1673 -0.1096
   37POPC  H14A 4914   1.812   1.923   6.281  0.3455  0.5308  0.8957
   37POPC  H14B 4915   1.921   1.799   6.234 -1.2838  0.0510 -1.0089
   37POPC  H14C 4916   1.829   1.776   6.387  0.9396 -0.5637 -0.5806
   37POPC   C15 4917   2.027   2.034   6.312  0.0002 -0.0564 -0.3194
   37POPC  H15A 4918   1.943   2.091   6.278 -0.5237 -0.1122  0.8446
   37POPC  H15B 4919   2.079   1.999   6.224 -0.6271  2.8441 -1.9289
   37POPC  H15C 4920   2.100   2.098   6.361 -0.8339  1.0447 -0.5018
   37POPC   C11 4921   1.867   1.867   6.630 -0.1753  0.3178 -0.0153
   37POPC  H11A 4922   1.764   1.869   6.587 -0.2030 -0.6461 -0.0113
   37POPC  H11B 4923   1.849   1.902   6.733 -0.1213 -0.3759  0.2324
   37POPC     P 4924   1.817   1.611   6.610 -0.0232 -0.2750 -0.0093
   37POPC   O13 4925   1.896   1.487   6.591  0.2897 -0.1848  0.6321
   37POPC   O14 4926   1.721   1.645   6.502 -1.1916 -0.2452 -0.0176
   37POPC   O12 4927   1.914   1.734   6.642 -0.2279 -0.6638 -0.6114
   37POPC   O11 4928   1.734   1.596   6.738  0.9607 -0.2765  0.7974
   37POPC    C1 4929   1.791   1.590   6.863  0.1343 -0.4142 -0.2178
   37POPC    HA 4930   1.874   1.663   6.875 -1.3823  1.5871 -1.6753
   37POPC    HB 4931   1.817   1.484   6.888  0.7874 -0.1879  0.0735
   37POPC    C2 4932   1.681   1.634   6.962  0.2946 -0.3169 -0.3382
   37POPC    HS 4933   1.650   1.738   6.939  1.3574 -0.2096 -1.3373
   37POPC   O21 4934   1.727   1.614   7.102 -0.0372  0.1942  0.5092
   37POPC   C21 4935   1.802   1.712   7.142  0.6397  0.3303  0.0116
   37POPC   O22 4936   1.822   1.820   7.083  0.2600  0.3195 -0.2805
   37POPC   C22 4937   1.842   1.686   7.287 -0.0358  0.4284 -0.4406
   37POPC   H2R 4938   1.871   1.581   7.308  0.9210  0.9743  0.9915
   37POPC   H2S 4939   1.759   1.707   7.358 -0.7502 -0.9550 -0.8557
   37POPC    C3 4940   1.550   1.545   6.930 -0.1856 -0.0305 -0.9907
   37POPC    HX 4941   1.595   1.444   6.927  1.4191  0.5759  1.5207
   37POPC    HY 4942   1.510   1.566   6.828 -3.6792 -1.0682  0.0707
   37POPC   O31 4943   1.444   1.562   7.029 -0.7738  0.0238 -0.1337
   37POPC   C31 4944   1.372   1.678   7.009  0.1346 -0.2789 -0.0487
   37POPC   O32 4945   1.370   1.742   6.905 -0.0165 -0.0450  0.2704
   37POPC   C32 4946   1.287   1.699   7.130  0.6055  0.4168 -0.3581
   37POPC   H2X 4947   1.220   1.612   7.147  1.4967 -0.0679  0.7581
   37POPC   H2Y 4948   1.233   1.795   7.115  0.3310  0.2605 -0.3739
   37POPC   C23 4949   1.965   1.782   7.321 -0.1869 -0.7712  0.0220
   37POPC   H3R 4950   1.940   1.885   7.289 -3.2302 -1.6969 -0.6657
   37POPC   H3S 4951   2.050   1.763   7.252  0.4873  0.0174  0.6295
   37POPC   C24 4952   1.996   1.779   7.465 -0.8259  0.4298 -0.3109
   37POPC   H4R 4953   2.082   1.848   7.477  0.1438 -1.2621  3.2314
   37POPC   H4S 4954   2.030   1.681   7.506 -0.1213 -0.6332 -3.2780
   37POPC   C25 4955   1.878   1.818   7.558  0.4910 -0.0206  0.1577
   37POPC   H5R 4956   1.804   1.736   7.570 -1.3271  1.3778 -1.3768
   37POPC   H5S 4957   1.838   1.917   7.529  0.3161 -0.4246 -0.9872
   37POPC   C26 4958   1.937   1.848   7.702  0.6035  0.0456  0.1148
   37POPC   H6R 4959   1.999   1.940   7.712 -0.2405  0.7043 -0.6536
   37POPC   H6S 4960   2.000   1.757   7.713 -2.2167 -1.9163  0.4660
   37POPC   C27 4961   1.832   1.857   7.817  0.3600 -0.2778  0.3478
   37POPC   H7R 4962   1.760   1.773   7.810  0.5003 -0.5183  1.6654
   37POPC   H7S 4963   1.768   1.945   7.797  2.2868  1.5743  2.0197
   37POPC   C28 4964   1.899   1.865   7.954  0.7603 -0.1722  0.3688
   37POPC   H8R 4965   1.985   1.933   7.938 -0.5522  1.1674 -1.1222
   37POPC   H8S 4966   1.933   1.761   7.975 -0.8843 -0.9748 -0.8801
   37POPC   C29 4967   1.798   1.910   8.057  0.2975 -0.1710 -0.4878
   37POPC   H91 4968   1.727   1.993   8.044 -0.7779 -1.1603 -1.0572
   37POPC  C210 4969   1.785   1.857   8.183  0.1371  0.6929  0.1248
   37POPC  H101 4970   1.711   1.898   8.253  1.2212  2.1075  0.4485
   37POPC  C211 4971   1.884   1.757   8.246  0.8493  0.0213  0.6446
   37POPC  H11R 4972   1.983   1.763   8.195  0.7784 -2.6010  0.1230
   37POPC  H11S 4973   1.849   1.655   8.218  0.9425  0.5116 -1.3375
   37POPC  C212 4974   1.909   1.766   8.391 -0.4140  0.1389 -0.1253
   37POPC  H12R 4975   1.822   1.798   8.452  1.2176  0.9485  1.8282
   37POPC  H12S 4976   1.981   1.848   8.411 -0.0842 -0.9651  3.5679
   37POPC  C213 4977   1.959   1.641   8.466  0.0786 -0.5802  0.4401
   37POPC  H13R 4978   2.033   1.592   8.400 -1.1136 -4.3395  1.7722
   37POPC  H13S 4979   1.870   1.574   8.466 -0.7255  0.4674  0.2679
   37POPC  C214 4980   2.024   1.674   8.598  0.8759 -0.1908  0.5944
   37POPC  H14R 4981   2.109   1.742   8.573  1.7337 -0.6638  2.1343
   37POPC  H14S 4982   2.065   1.581   8.643 -1.9058 -1.7643 -0.0218
   37POPC  C215 4983   1.939   1.754   8.699  0.7649  0.4357  0.2134
   37POPC  H15R 4984   1.849   1.692   8.718  1.8226 -1.2676 -0.2818
   37POPC  H15S 4985   1.917   1.848   8.644 -1.1774 -1.2440 -1.9530
   37POPC  C216 4986   2.013   1.775   8.833  0.0431 -0.1538  0.3274
   37POPC  H16R 4987   2.118   1.812   8.824 -0.8781  1.9831 -2.1205
   37POPC  H16S 4988   2.026   1.678   8.885  0.2352 -0.4181 -0.2056
   37POPC  C217 4989   1.916   1.851   8.923  0.2541 -0.2731  0.3655
   37POPC  H17R 4990   1.855   1.928   8.870  0.7039 -0.9630 -1.1598
   37POPC  H17S 4991   1.991   1.900   8.988 -1.3727 -0.7050  2.6514
   37POPC  C218 4992   1.836   1.756   9.012  0.1863  0.6652  0.7525
   37POPC  H18R 4993   1.796   1.678   8.944  2.5695 -0.4871  0.6146
   37POPC  H18S 4994   1.761   1.798   9.083  0.8925 -1.0449  2.5646
   37POPC  H18T 4995   1.909   1.712   9.084  0.3828  0.0959  0.2034
   37POPC   C33 4996   1.369   1.709   7.257 -0.4855  0.0751  0.7158
   37POPC   H3X 4997   1.442   1.626   7.269 -1.5396 -0.9604  0.0706
   37POPC   H3Y 4998   1.299   1.699   7.343 -0.4254 -0.9327  0.6472
   37POPC   C34 4999   1.420   1.853   7.266  0.1474  0.6836 -0.0277
   37POPC   H4X 5000   1.344   1.933   7.253  0.4640  0.7526 -1.5508
   37POPC   H4Y 5001   1.494   1.850   7.183  0.8191  0.2784  0.5767
   37POPC   C35 5002   1.508   1.893   7.387  0.5151  0.1916  0.7302
   37POPC   H5X 5003   1.585   1.972   7.370 -1.9697  2.2936 -1.2150
   37POPC   H5Y 5004   1.573   1.806   7.413  2.3176  0.9507 -1.0956
   37POPC   C36 5005   1.412   1.921   7.504  0.3145  0.0570  0.4145
   37POPC   H6X 5006   1.338   1.838   7.496 -0.1823  0.5542 -0.1982
   37POPC   H6Y 5007   1.348   2.010   7.484 -0.1982 -0.2056  0.8675
   37POPC   C37 5008   1.490   1.937   7.640  0.2165 -0.7578  0.4583
   37POPC   H7X 5009   1.566   2.017   7.630 -0.6350 -0.0805 -0.6580
   37POPC   H7Y 5010   1.554   1.848   7.658 -1.2832 -1.3956  2.9132
   37POPC   C38 5011   1.392   1.957   7.759 -0.3563  0.0084 -0.1172
   37POPC   H8X 5012   1.322   1.873   7.777 -0.2029 -0.4232 -1.5063
   37POPC   H8Y 5013   1.335   2.052   7.746 -0.3586 -0.0039 -0.1943
   37POPC   C39 5014   1.449   1.989   7.898  0.2279  0.0427 -0.2176
   37POPC   H9X 5015   1.496   2.089   7.886 -0.0871  0.4683  1.8956
   37POPC   H9Y 5016   1.523   1.919   7.942 -0.1164  0.5794  1.2384
   37POPC  C310 5017   1.344   2.022   7.999 -0.2074  0.5243 -0.3332
   37POPC  H10X 5018   1.255   1.956   7.997  0.0605  0.1054  1.3467
   37POPC  H10Y 5019   1.305   2.125   7.979 -1.3195  0.0051 -0.8968
   37POPC  C311 5020   1.392   2.022   8.146 -0.6007 -0.0429  0.3765
   37POPC  H11X 5021   1.316   2.065   8.216 -3.1190 -2.1481 -0.9660
   37POPC  H11Y 5022   1.489   2.074   8.139 -1.2113  0.8937 -1.4112
   37POPC  C312 5023   1.427   1.880   8.192  0.7146  0.0483  0.1054
   37POPC  H12X 5024   1.526   1.852   8.148  0.3379 -1.4366  0.1590
   37POPC  H12Y 5025   1.344   1.812   8.164  2.2942 -0.7806 -2.8783
   37POPC  C313 5026   1.442   1.877   8.344  0.5531 -0.0722 -0.4312
   37POPC  H13X 5027   1.342   1.899   8.386  0.8438  2.2104 -0.8552
   37POPC  H13Y 5028   1.523   1.948   8.372 -0.7533  0.9178  0.9205
   37POPC  C314 5029   1.488   1.743   8.407  0.4744 -0.3119  0.3312
   37POPC  H14X 5030   1.586   1.711   8.367  0.2230  0.4277 -0.8986
   37POPC  H14Y 5031   1.418   1.659   8.389 -0.2389  0.2253  0.5790
   37POPC  C315 5032   1.500   1.757   8.555  0.1844 -0.1381 -1.0421
   37POPC  H15X 5033   1.411   1.803   8.604 -1.2593 -1.4968 -2.3037
   37POPC  H15Y 5034   1.579   1.830   8.581 -1.1716  0.9518  0.0926
   37POPC  C316 5035   1.542   1.620   8.612 -0.6078 -0.2845  0.1388
   37POPC  H16X 5036   1.637   1.584   8.567 -0.8193 -2.3899  1.3347
   37POPC  H16Y 5037   1.471   1.541   8.581 -0.9047 -0.4250  1.1531
   37POPC  H16Z 5038   1.538   1.632   8.722 -0.6220 -1.0106  0.2129
   38POPC     N 5039   2.332   5.203   6.074  0.0739  0.1920 -0.1609
   38POPC   C12 5040   2.474   5.249   6.125 -0.1758  0.1745  0.0551
   38POPC  H12A 5041   2.509   5.328   6.060 -1.2377  2.2857  1.9689
   38POPC  H12B 5042   2.546   5.169   6.117 -0.8250 -0.3675 -0.3543
   38POPC   C13 5043   2.236   5.320   6.085 -0.1349 -0.4085 -0.0857
   38POPC  H13A 5044   2.278   5.410   6.043  1.2930 -1.2597 -0.5311
   38POPC  H13B 5045   2.143   5.297   6.034  0.8164 -2.4081 -0.9748
   38POPC  H13C 5046   2.210   5.339   6.188  0.4780 -1.6000  0.2899
   38POPC   C14 5047   2.337   5.168   5.927 -0.2819 -0.2296 -0.3170
   38POPC  H14A 5048   2.367   5.258   5.877 -2.1174 -0.0075 -1.0605
   38POPC  H14B 5049   2.402   5.083   5.913 -0.2706 -0.2759  0.0222
   38POPC  H14C 5050   2.238   5.148   5.887 -0.2975  1.4898 -1.1847
   38POPC   C15 5051   2.283   5.086   6.153  0.3812 -0.2380  0.2123
   38POPC  H15A 5052   2.363   5.015   6.168  2.4006  2.1515  1.2758
   38POPC  H15B 5053   2.206   5.036   6.097  1.9975 -1.5691 -0.8938
   38POPC  H15C 5054   2.245   5.125   6.246  1.1431  0.2252  0.3402
   38POPC   C11 5055   2.489   5.286   6.275  0.3817  0.2821  0.0732
   38POPC  H11A 5056   2.439   5.381   6.303  1.3514  0.5780  0.8666
   38POPC  H11B 5057   2.587   5.334   6.300  0.7844 -0.3047 -0.3795
   38POPC     P 5058   2.546   5.059   6.383 -0.4745  0.3841 -0.2984
   38POPC   O13 5059   2.580   4.998   6.250  0.1239  0.5941 -0.0686
   38POPC   O14 5060   2.486   4.965   6.477  0.3057  0.0189  0.4327
   38POPC   O12 5061   2.448   5.184   6.370 -0.2647 -0.2040 -0.4332
   38POPC   O11 5062   2.679   5.128   6.437  0.6759 -0.1870 -0.7782
   38POPC    C1 5063   2.691   5.170   6.580  0.5073  0.2138 -0.4467
   38POPC    HA 5064   2.621   5.110   6.643  1.8238  0.4124  1.2322
   38POPC    HB 5065   2.677   5.280   6.588 -0.3065  0.2316 -1.9633
   38POPC    C2 5066   2.827   5.127   6.638  0.3561  0.5429 -0.0094
   38POPC    HS 5067   2.816   5.017   6.652 -1.4590  0.5714 -1.0815
   38POPC   O21 5068   2.845   5.191   6.764  0.2663 -0.2670  0.6726
   38POPC   C21 5069   2.764   5.157   6.871  0.4169  0.7871 -0.2793
   38POPC   O22 5070   2.685   5.065   6.868 -0.1904  0.3945  0.0278
   38POPC   C22 5071   2.791   5.242   6.990  0.4241  0.2148  1.0184
   38POPC   H2R 5072   2.772   5.345   6.953  1.4483 -0.0492 -0.2780
   38POPC   H2S 5073   2.893   5.223   7.029  1.3707  1.6605 -0.6362
   38POPC    C3 5074   2.953   5.169   6.555  0.1669 -1.1142  0.2487
   38POPC    HX 5075   2.959   5.280   6.543  2.4989 -1.4023 -1.7645
   38POPC    HY 5076   2.951   5.125   6.453 -1.1353 -1.7355  0.5320
   38POPC   O31 5077   3.072   5.120   6.621 -0.2167  0.3007 -0.1416
   38POPC   C31 5078   3.133   5.199   6.714  0.1119 -0.0004 -0.4184
   38POPC   O32 5079   3.098   5.311   6.743 -0.7279  0.0588 -0.1756
   38POPC   C32 5080   3.254   5.127   6.770 -0.0974  0.3792 -0.0432
   38POPC   H2X 5081   3.335   5.201   6.790  1.9658 -2.3153  1.9663
   38POPC   H2Y 5082   3.298   5.060   6.693  1.3861 -1.3009  2.2229
   38POPC   C23 5083   2.696   5.218   7.104  0.0063 -1.0639  0.1191
   38POPC   H3R 5084   2.598   5.170   7.083 -0.6886 -0.8002  2.5690
   38POPC   H3S 5085   2.674   5.312   7.159  0.8999 -0.4618 -0.5475
   38POPC   C24 5086   2.748   5.115   7.206 -0.1178  0.7787 -0.6558
   38POPC   H4R 5087   2.834   5.157   7.263 -0.8790  1.6125 -0.0991
   38POPC   H4S 5088   2.771   5.019   7.156 -0.2356  0.6013 -0.3694
   38POPC   C25 5089   2.642   5.083   7.314 -0.4501  0.3503 -0.3052
   38POPC   H5R 5090   2.565   5.029   7.255 -1.2278  0.3991  0.6392
   38POPC   H5S 5091   2.602   5.180   7.351  0.5569  0.6758 -0.0447
   38POPC   C26 5092   2.694   4.986   7.420 -0.4778  0.1246  0.1010
   38POPC   H6R 5093   2.787   5.034   7.457 -1.0469  1.7695 -0.5578
   38POPC   H6S 5094   2.722   4.890   7.372 -0.5390 -0.7542  1.8227
   38POPC   C27 5095   2.596   4.953   7.530 -0.3689  0.1899  0.7679
   38POPC   H7R 5096   2.630   4.865   7.590 -0.7248  1.5577  3.0524
   38POPC   H7S 5097   2.499   4.935   7.480  1.1505 -0.5911 -1.9724
   38POPC   C28 5098   2.586   5.066   7.642  0.0018  0.0971  0.1533
   38POPC   H8R 5099   2.489   5.059   7.696 -0.3484  2.2023 -0.1799
   38POPC   H8S 5100   2.580   5.165   7.591  0.1668  0.5924  1.0971
   38POPC   C29 5101   2.706   5.059   7.740 -0.2578 -0.2346 -0.4383
   38POPC   H91 5102   2.796   5.007   7.704 -1.2840 -1.4549 -1.2790
   38POPC  C210 5103   2.712   5.119   7.859  0.1281 -0.1931 -0.0462
   38POPC  H101 5104   2.804   5.114   7.920  0.6785 -1.2982 -0.9295
   38POPC  C211 5105   2.595   5.190   7.923  0.2119  0.4761  0.0986
   38POPC  H11R 5106   2.542   5.251   7.847  0.2243  1.0199  0.5262
   38POPC  H11S 5107   2.633   5.259   8.001 -0.8378  0.5135  0.5901
   38POPC  C212 5108   2.484   5.099   7.975  0.3107 -0.1872  0.0546
   38POPC  H12R 5109   2.456   5.020   7.901  2.6888 -0.4494 -0.6153
   38POPC  H12S 5110   2.398   5.169   7.981 -0.0099 -0.4440 -1.2902
   38POPC  C213 5111   2.516   5.029   8.106 -0.6041 -0.4204  0.6089
   38POPC  H13R 5112   2.505   5.107   8.184  2.6920  1.4018 -0.6564
   38POPC  H13S 5113   2.621   4.994   8.105 -0.3941  0.1597  1.7219
   38POPC  C214 5114   2.413   4.920   8.153  0.6662 -0.2456  0.1761
   38POPC  H14R 5115   2.452   4.858   8.237  1.2439 -2.4300 -1.6510
   38POPC  H14S 5116   2.397   4.843   8.075 -2.6032 -0.2114  0.7201
   38POPC  C215 5117   2.281   4.984   8.189 -0.0181  1.2525  0.9444
   38POPC  H15R 5118   2.231   5.047   8.112  2.0686  3.0682  1.0156
   38POPC  H15S 5119   2.283   5.048   8.280 -1.1221  0.3939  1.5808
   38POPC  C216 5120   2.179   4.868   8.218 -0.3772  0.0293 -0.2482
   38POPC  H16R 5121   2.225   4.795   8.288 -2.0306  0.5700  1.4439
   38POPC  H16S 5122   2.158   4.815   8.122  1.0910 -1.8639  0.4445
   38POPC  C217 5123   2.041   4.906   8.272  0.3493 -0.7481 -0.0604
   38POPC  H17R 5124   1.985   4.810   8.267 -0.4537 -0.3594  1.2613
   38POPC  H17S 5125   1.984   4.962   8.195  1.7258 -0.9185 -1.2110
   38POPC  C218 5126   2.042   4.961   8.418 -0.4209  0.2686 -0.5608
   38POPC  H18R 5127   2.104   4.895   8.482  0.2819  0.1762 -1.3282
   38POPC  H18S 5128   1.937   4.956   8.455  0.0226 -0.5552  0.6113
   38POPC  H18T 5129   2.088   5.061   8.417  2.7024 -1.1039 -3.8503
   38POPC   C33 5130   3.219   5.046   6.893 -0.6761 -0.2122  0.4589
   38POPC   H3X 5131   3.309   4.986   6.919 -0.9895 -0.8069  0.1620
   38POPC   H3Y 5132   3.134   4.975   6.882 -1.1267  0.2209  1.0796
   38POPC   C34 5133   3.201   5.140   7.013 -0.0808 -0.0256 -0.4787
   38POPC   H4X 5134   3.091   5.157   7.003 -0.5093 -2.6385 -0.4989
   38POPC   H4Y 5135   3.260   5.234   7.007 -0.3307  0.2683  1.3515
   38POPC   C35 5136   3.224   5.071   7.145  0.4476  0.7947 -0.1953
   38POPC   H5X 5137   3.319   5.013   7.139  0.1888  0.4280 -0.7157
   38POPC   H5Y 5138   3.136   5.008   7.171  0.4532  0.8795  0.0257
   38POPC   C36 5139   3.246   5.173   7.266  0.4284  0.9565 -0.9397
   38POPC   H6X 5140   3.160   5.242   7.272  0.7137  1.0936  2.2392
   38POPC   H6Y 5141   3.328   5.246   7.252  0.2557  0.9449 -2.0386
   38POPC   C37 5142   3.258   5.107   7.395  0.2334 -0.5763 -0.1250
   38POPC   H7X 5143   3.310   5.184   7.455  0.9227 -1.0461 -0.1095
   38POPC   H7Y 5144   3.321   5.015   7.392  0.9537 -0.0884  0.0781
   38POPC   C38 5145   3.119   5.081   7.454  0.3980 -0.0457 -0.0405
   38POPC   H8X 5146   3.063   5.014   7.386 -0.9922  3.1016 -2.1213
   38POPC   H8Y 5147   3.061   5.176   7.458 -0.5073 -0.5769 -0.2112
   38POPC   C39 5148   3.099   5.015   7.593 -0.2905 -0.1685 -0.4654
   38POPC   H9X 5149   3.145   4.914   7.590  0.7577  0.2741  0.4707
   38POPC   H9Y 5150   2.992   5.000   7.616 -0.1111 -2.7179 -1.1164
   38POPC  C310 5151   3.159   5.094   7.712 -0.0695  0.3536  0.4534
   38POPC  H10X 5152   3.107   5.192   7.716 -2.7748 -1.0787  1.5054
   38POPC  H10Y 5153   3.266   5.117   7.696  0.1354 -1.2451 -0.5940
   38POPC  C311 5154   3.136   5.026   7.852  0.2453 -0.2665 -0.8293
   38POPC  H11X 5155   3.134   4.916   7.833 -2.4480 -0.9763  2.9476
   38POPC  H11Y 5156   3.036   5.062   7.884  0.3783 -3.0706  3.0785
   38POPC  C312 5157   3.240   5.071   7.959  0.9620  0.2465 -0.1868
   38POPC  H12X 5158   3.254   5.181   7.949 -1.5800  0.5932 -0.1179
   38POPC  H12Y 5159   3.336   5.018   7.938 -0.1034 -1.5325 -0.6397
   38POPC  C313 5160   3.203   5.037   8.099 -0.3076  0.5405  0.3784
   38POPC  H13X 5161   3.095   5.064   8.111 -0.0899  1.9466 -0.6739
   38POPC  H13Y 5162   3.270   5.093   8.166  0.4923 -0.6587  0.6014
   38POPC  C314 5163   3.224   4.886   8.131 -0.2163  0.7005  0.6023
   38POPC  H14X 5164   3.321   4.849   8.092 -0.2505  1.7747 -0.5258
   38POPC  H14Y 5165   3.141   4.832   8.080  0.9256  1.7736 -2.4819
   38POPC  C315 5166   3.214   4.851   8.282  0.4372 -0.2180 -0.7658
   38POPC  H15X 5167   3.165   4.753   8.299 -1.6669  0.9216  0.0047
   38POPC  H15Y 5168   3.159   4.927   8.342 -0.7765 -2.0741  0.5158
   38POPC  C316 5169   3.349   4.838   8.349 -0.5455 -0.4027 -0.6520
   38POPC  H16X 5170   3.403   4.759   8.292 -1.7059 -1.5679 -0.1442
   38POPC  H16Y 5171   3.332   4.814   8.456 -1.8406  3.1953  0.0374
   38POPC  H16Z 5172   3.403   4.935   8.347  1.8787 -1.6316  1.9961
   39POPC     N 5173   6.263   2.607   6.153 -0.0242  0.5292  0.0275
   39POPC   C12 5174   6.276   2.694   6.271 -1.0496  0.5583 -0.0245
   39POPC  H12A 5175   6.192   2.675   6.335 -0.4003  0.8925  0.9376
   39POPC  H12B 5176   6.260   2.798   6.245 -0.2093  0.7291  0.1276
   39POPC   C13 5177   6.366   2.644   6.047 -1.1966  0.7362  0.6572
   39POPC  H13A 5178   6.360   2.572   5.967 -0.6592 -0.9647  2.1218
   39POPC  H13B 5179   6.359   2.748   6.019 -2.1279  0.7633  0.9698
   39POPC  H13C 5180   6.466   2.626   6.084 -0.6451 -0.0710 -1.1724
   39POPC   C14 5181   6.282   2.467   6.200 -0.2300  0.0668 -0.7185
   39POPC  H14A 5182   6.232   2.460   6.296  1.8005  2.0632  0.5312
   39POPC  H14B 5183   6.248   2.386   6.138 -0.0838 -0.8308  0.3544
   39POPC  H14C 5184   6.383   2.448   6.231 -0.3892 -1.2455 -0.9909
   39POPC   C15 5185   6.124   2.614   6.093  0.7180  0.3681  0.1928
   39POPC  H15A 5186   6.113   2.557   6.002  2.7788 -1.9157  1.3246
   39POPC  H15B 5187   6.088   2.716   6.096  0.8041  0.3505  3.0992
   39POPC  H15C 5188   6.052   2.576   6.163  0.2911  2.5556  0.9885
   39POPC   C11 5189   6.411   2.691   6.344 -0.1851  0.2887 -0.3269
   39POPC  H11A 5190   6.450   2.589   6.368 -0.3324  0.3853  0.3480
   39POPC  H11B 5191   6.402   2.736   6.445  0.4524  1.2848 -0.7001
   39POPC     P 5192   6.659   2.728   6.289  0.2653  0.3056 -0.2957
   39POPC   O13 5193   6.741   2.800   6.191  0.0716 -0.3030  0.4008
   39POPC   O14 5194   6.683   2.582   6.283  0.0413  0.1303 -0.6302
   39POPC   O12 5195   6.511   2.764   6.271 -0.1817 -0.0679 -0.6677
   39POPC   O11 5196   6.679   2.788   6.433  0.1686 -0.3510 -0.5392
   39POPC    C1 5197   6.817   2.807   6.483  0.6585  0.2536  0.3746
   39POPC    HA 5198   6.832   2.905   6.533  3.1596 -0.2320  0.6093
   39POPC    HB 5199   6.904   2.805   6.415  0.4808  0.4834  0.1382
   39POPC    C2 5200   6.847   2.701   6.595  0.2564  0.0750  0.2894
   39POPC    HS 5201   6.835   2.605   6.541  4.3415 -0.5866  0.3900
   39POPC   O21 5202   6.752   2.704   6.702 -0.2576 -0.4882 -0.3777
   39POPC   C21 5203   6.644   2.632   6.690  0.2763  0.4805  0.5588
   39POPC   O22 5204   6.621   2.537   6.611  0.0620  0.0273 -0.3524
   39POPC   C22 5205   6.536   2.675   6.791  0.3356  0.0817 -0.1336
   39POPC   H2R 5206   6.439   2.639   6.750  1.2803 -2.5027 -0.1636
   39POPC   H2S 5207   6.538   2.786   6.794  1.2864  0.0887 -0.6079
   39POPC    C3 5208   6.991   2.713   6.662 -0.4247 -0.5975  0.0143
   39POPC    HX 5209   7.002   2.812   6.711 -0.3618 -1.3801  1.6129
   39POPC    HY 5210   7.062   2.714   6.576 -0.3539 -0.4508  0.0757
   39POPC   O31 5211   7.022   2.611   6.763 -0.0377  0.1183  0.0522
   39POPC   C31 5212   7.063   2.499   6.708  0.2350 -0.6639  0.5904
   39POPC   O32 5213   7.062   2.467   6.593 -0.4210  0.8152  0.3458
   39POPC   C32 5214   7.088   2.392   6.818 -0.1236  0.0697  0.8425
   39POPC   H2X 5215   7.157   2.323   6.765  1.0016  1.0012  1.0810
   39POPC   H2Y 5216   7.140   2.430   6.909  2.6191 -0.7025 -0.3533
   39POPC   C23 5217   6.550   2.615   6.930  0.7348 -0.5086 -0.1183
   39POPC   H3R 5218   6.595   2.691   6.998 -3.4902 -0.4074  2.7623
   39POPC   H3S 5219   6.610   2.523   6.920 -1.4029 -2.1675  1.7581
   39POPC   C24 5220   6.409   2.571   6.994 -0.6388 -0.9814  0.5641
   39POPC   H4R 5221   6.368   2.497   6.922 -3.0256 -1.0568  1.9461
   39POPC   H4S 5222   6.338   2.656   7.002 -1.1063 -1.2786 -0.3972
   39POPC   C25 5223   6.423   2.495   7.126 -0.1310  0.0640 -0.0230
   39POPC   H5R 5224   6.508   2.423   7.124  1.1841  1.5436  1.1972
   39POPC   H5S 5225   6.334   2.431   7.145  0.2454  0.1228  2.0342
   39POPC   C26 5226   6.449   2.586   7.249 -0.2616 -0.6054 -0.4056
   39POPC   H6R 5227   6.363   2.656   7.242 -0.8298 -1.0231  1.9962
   39POPC   H6S 5228   6.543   2.643   7.235 -0.1494 -0.7359 -0.1924
   39POPC   C27 5229   6.434   2.521   7.385  0.6194 -0.2439 -0.1133
   39POPC   H7R 5230   6.362   2.436   7.386  2.2309 -1.6414 -1.1476
   39POPC   H7S 5231   6.379   2.596   7.447 -0.8409 -0.7303 -0.7986
   39POPC   C28 5232   6.562   2.496   7.459 -0.0361 -0.2607  0.2774
   39POPC   H8R 5233   6.548   2.494   7.569  2.1901 -2.9872  0.5599
   39POPC   H8S 5234   6.625   2.587   7.455 -2.4278  1.4330  0.0525
   39POPC   C29 5235   6.626   2.362   7.419 -0.1671  0.3630 -0.7820
   39POPC   H91 5236   6.717   2.376   7.357  1.1234 -0.6252  0.8677
   39POPC  C210 5237   6.577   2.243   7.448 -0.3314  1.1468 -0.3595
   39POPC  H101 5238   6.637   2.153   7.425 -2.1461 -0.3735  0.6661
   39POPC  C211 5239   6.451   2.218   7.526 -0.4696 -1.1554 -0.0570
   39POPC  H11R 5240   6.372   2.241   7.452 -0.5548 -0.3063  0.2859
   39POPC  H11S 5241   6.437   2.287   7.613  0.6489  0.1372 -0.8761
   39POPC  C212 5242   6.450   2.070   7.565  0.3139  0.1764 -0.2689
   39POPC  H12R 5243   6.450   2.003   7.476 -0.4614  2.1844 -1.8299
   39POPC  H12S 5244   6.350   2.056   7.612  0.5694 -2.9201 -0.5164
   39POPC  C213 5245   6.554   2.036   7.665  0.0613  0.2482  0.4378
   39POPC  H13R 5246   6.652   2.027   7.612  0.6900 -1.4485  1.8208
   39POPC  H13S 5247   6.528   1.936   7.707 -0.0489  0.8475  1.8141
   39POPC  C214 5248   6.573   2.139   7.779 -0.2463 -0.0982 -0.0173
   39POPC  H14R 5249   6.480   2.146   7.839 -1.5067 -0.4133 -1.8703
   39POPC  H14S 5250   6.614   2.236   7.743  0.1875  0.1546  1.1429
   39POPC  C215 5251   6.685   2.093   7.872  0.2219 -0.6223  1.0128
   39POPC  H15R 5252   6.785   2.122   7.832  1.1437 -1.3134  2.7714
   39POPC  H15S 5253   6.691   1.983   7.882  1.2091 -0.5242  1.4896
   39POPC  C216 5254   6.671   2.150   8.014 -0.1646 -0.3606  0.6556
   39POPC  H16R 5255   6.757   2.125   8.081  0.0993  0.5015  0.6486
   39POPC  H16S 5256   6.581   2.109   8.065 -0.1518  0.7976  1.6218
   39POPC  C217 5257   6.641   2.303   8.024 -1.0654  0.4115 -0.2417
   39POPC  H17R 5258   6.538   2.320   7.986 -1.1223  0.7224  0.0466
   39POPC  H17S 5259   6.719   2.357   7.966 -0.1715 -0.2869  0.2992
   39POPC  C218 5260   6.631   2.343   8.174  0.2247 -0.5901  0.1376
   39POPC  H18R 5261   6.592   2.444   8.196 -0.8907 -1.3170  1.5355
   39POPC  H18S 5262   6.735   2.337   8.214 -0.0346  2.3485  1.3886
   39POPC  H18T 5263   6.577   2.256   8.215 -0.1042 -0.1316  0.6861
   39POPC   C33 5264   6.960   2.321   6.859 -0.1614  0.2329  0.1268
   39POPC   H3X 5265   6.988   2.221   6.898 -1.1358  0.4741  1.4561
   39POPC   H3Y 5266   6.892   2.288   6.778 -0.9971 -0.0042  0.9189
   39POPC   C34 5267   6.876   2.394   6.963  0.7133 -0.2320 -0.9628
   39POPC   H4X 5268   6.782   2.337   6.976  2.6146 -3.5895 -1.4604
   39POPC   H4Y 5269   6.851   2.494   6.919  2.7401  1.1277  0.8568
   39POPC   C35 5270   6.948   2.429   7.094  0.2914  0.1740 -0.6194
   39POPC   H5X 5271   6.877   2.466   7.171  2.0738 -2.5593  2.4852
   39POPC   H5Y 5272   7.010   2.521   7.084  1.3754 -0.6771 -1.8344
   39POPC   C36 5273   7.024   2.312   7.155  0.8412  0.2827  0.6264
   39POPC   H6X 5274   7.102   2.284   7.081 -0.4053  0.5877 -0.8403
   39POPC   H6Y 5275   6.955   2.225   7.162  1.7112 -0.3811  1.0941
   39POPC   C37 5276   7.064   2.342   7.295 -0.9629 -1.1405 -0.6391
   39POPC   H7X 5277   6.989   2.398   7.355 -0.3442 -0.8010 -0.1691
   39POPC   H7Y 5278   7.142   2.421   7.287 -2.6487  0.5133 -1.1319
   39POPC   C38 5279   7.101   2.223   7.390 -0.2572  0.4883  0.2366
   39POPC   H8X 5280   7.208   2.194   7.384 -0.7052 -0.9323 -1.1974
   39POPC   H8Y 5281   7.038   2.134   7.369  2.4691 -1.3498 -0.3712
   39POPC   C39 5282   7.086   2.255   7.540 -0.5594 -0.5014 -0.1333
   39POPC   H9X 5283   6.990   2.304   7.564  0.4657  0.3286  2.3689
   39POPC   H9Y 5284   7.161   2.331   7.572  0.5547 -2.3252  1.7438
   39POPC  C310 5285   7.100   2.119   7.622 -0.5926 -0.2974 -0.6291
   39POPC  H10X 5286   7.201   2.080   7.598  0.1798  0.7487  0.9091
   39POPC  H10Y 5287   7.013   2.052   7.601  0.0349 -0.9891 -1.0738
   39POPC  C311 5288   7.092   2.153   7.772  0.0183  0.1483 -1.2092
   39POPC  H11X 5289   7.002   2.215   7.790  1.1795  2.1422 -2.1558
   39POPC  H11Y 5290   7.184   2.206   7.804  0.1087  1.3546 -3.3993
   39POPC  C312 5291   7.074   2.030   7.859 -0.2901 -0.8711  0.2810
   39POPC  H12X 5292   7.139   1.944   7.833  2.1547  0.8379  0.5963
   39POPC  H12Y 5293   6.970   2.002   7.833 -0.2935 -0.9990  0.4361
   39POPC  C313 5294   7.075   2.048   8.009  0.1946  0.1386  0.0160
   39POPC  H13X 5295   7.018   1.963   8.052 -0.6448  1.6423  1.9703
   39POPC  H13Y 5296   7.011   2.131   8.045 -2.4369 -1.7145 -0.2724
   39POPC  C314 5297   7.214   2.060   8.070 -0.1991  0.3590  0.5290
   39POPC  H14X 5298   7.271   2.133   8.008  0.8059 -1.1915 -0.4052
   39POPC  H14Y 5299   7.267   1.963   8.073  0.3164  0.6076 -0.2396
   39POPC  C315 5300   7.209   2.120   8.212  0.4926  0.4489 -0.2414
   39POPC  H15X 5301   7.294   2.091   8.277 -0.1153 -0.0574  0.3327
   39POPC  H15Y 5302   7.114   2.084   8.258  0.6999  0.0481 -0.1199
   39POPC  C316 5303   7.195   2.271   8.211 -0.1194  0.3101 -0.2247
   39POPC  H16X 5304   7.209   2.311   8.314  0.7852 -0.3900 -0.0718
   39POPC  H16Y 5305   7.100   2.300   8.160  1.1491  0.7279 -2.3815
   39POPC  H16Z 5306   7.283   2.307   8.155  0.8637  0.0850  1.1555
   40POPC     N 5307   5.949   0.486   6.043 -0.7023  0.0309  0.3342
   40POPC   C12 5308   5.871   0.610   6.077 -0.1062  0.1540 -0.2817
   40POPC  H12A 5309   5.776   0.607   6.027  0.2652  1.2947 -1.0825
   40POPC  H12B 5310   5.928   0.698   6.048  0.7345 -0.6422 -1.0660
   40POPC   C13 5311   6.087   0.522   6.089 -0.0546 -0.0532 -0.6126
   40POPC  H13A 5312   6.087   0.535   6.197  1.1657  1.4459 -0.7781
   40POPC  H13B 5313   6.167   0.460   6.052  1.7970  2.2865 -0.6934
   40POPC  H13C 5314   6.115   0.620   6.054  1.5472 -0.4321 -0.4508
   40POPC   C14 5315   5.903   0.360   6.109 -0.7656 -0.4144 -0.3068
   40POPC  H14A 5316   5.828   0.310   6.051 -1.1957  1.6581 -1.5795
   40POPC  H14B 5317   5.986   0.295   6.132 -0.4550 -0.2037 -0.8137
   40POPC  H14C 5318   5.871   0.382   6.210 -1.9857  1.6354 -1.1078
   40POPC   C15 5319   5.951   0.466   5.892 -0.0585 -0.4709 -0.2252
   40POPC  H15A 5320   5.999   0.550   5.844  0.3854  0.0893  1.1811
   40POPC  H15B 5321   5.848   0.450   5.863 -0.3997 -1.3325  1.3931
   40POPC  H15C 5322   6.013   0.382   5.864  0.9221 -0.4182  1.7106
   40POPC   C11 5323   5.848   0.659   6.223 -0.1156  0.2369  0.5236
   40POPC  H11A 5324   5.774   0.593   6.272 -1.6611  0.5316 -1.3788
   40POPC  H11B 5325   5.787   0.751   6.214 -1.1272 -0.7274 -2.9577
   40POPC     P 5326   5.997   0.759   6.410  0.2734  0.3918 -0.1370
   40POPC   O13 5327   5.962   0.901   6.365  0.6921 -0.5890  0.2884
   40POPC   O14 5328   6.132   0.724   6.459 -0.1962  0.3420  0.2930
   40POPC   O12 5329   5.965   0.657   6.300  0.4485  0.6981  0.4907
   40POPC   O11 5330   5.890   0.714   6.523  1.0266 -0.2895  0.1573
   40POPC    C1 5331   5.856   0.575   6.536  0.2215 -0.1948 -0.5129
   40POPC    HA 5332   5.932   0.504   6.497 -0.7302 -1.7830  0.4780
   40POPC    HB 5333   5.759   0.560   6.485  0.4311  2.4807 -1.7424
   40POPC    C2 5334   5.850   0.547   6.686 -0.0738 -1.0651  0.2092
   40POPC    HS 5335   5.953   0.538   6.728  0.6545 -0.9006 -1.5100
   40POPC   O21 5336   5.769   0.434   6.711  0.2367  0.4931 -0.2515
   40POPC   C21 5337   5.814   0.323   6.673 -0.7574  0.0890 -0.7129
   40POPC   O22 5338   5.926   0.303   6.634  0.1246  0.2050 -0.6581
   40POPC   C22 5339   5.718   0.206   6.700 -0.0441 -0.2392  0.0231
   40POPC   H2R 5340   5.701   0.162   6.599  0.5851  1.1717 -0.7205
   40POPC   H2S 5341   5.618   0.238   6.737  0.6415 -0.2369  1.8838
   40POPC    C3 5342   5.780   0.665   6.761 -0.0982 -1.0391 -0.6344
   40POPC    HX 5343   5.694   0.697   6.699  0.6941  0.3312 -1.0312
   40POPC    HY 5344   5.852   0.749   6.771  0.9492 -1.8471 -1.3604
   40POPC   O31 5345   5.737   0.631   6.890  0.6001 -0.6184  0.6388
   40POPC   C31 5346   5.616   0.584   6.910 -0.2677 -0.0931 -0.1866
   40POPC   O32 5347   5.531   0.583   6.823  0.0583 -0.2828  0.5695
   40POPC   C32 5348   5.598   0.535   7.055  0.1486 -0.3268  0.1240
   40POPC   H2X 5349   5.681   0.577   7.115 -0.1439  1.1006 -0.4584
   40POPC   H2Y 5350   5.594   0.424   7.063  1.7166 -0.4651 -1.0466
   40POPC   C23 5351   5.780   0.097   6.793 -0.3382  0.3513 -0.4044
   40POPC   H3R 5352   5.875   0.061   6.748 -0.1159  0.2817  0.1261
   40POPC   H3S 5353   5.723   0.002   6.798  2.3173 -1.3243 -1.0149
   40POPC   C24 5354   5.799   0.147   6.937 -0.7018  0.4368  0.3446
   40POPC   H4R 5355   5.837   0.251   6.935  2.2098 -0.5771  0.7216
   40POPC   H4S 5356   5.893   0.092   6.961  0.1237  1.1254 -1.2157
   40POPC   C25 5357   5.684   0.118   7.033 -0.1717  0.4071  0.1880
   40POPC   H5R 5358   5.643   0.015   7.027 -4.0542  1.7621  2.0938
   40POPC   H5S 5359   5.597   0.182   7.009 -0.6258 -0.9136 -1.7795
   40POPC   C26 5360   5.722   0.158   7.175 -0.3076 -0.4719 -0.8738
   40POPC   H6R 5361   5.751   0.265   7.180 -1.7644 -0.1105  0.2576
   40POPC   H6S 5362   5.812   0.100   7.204  0.0326  0.2268 -0.5285
   40POPC   C27 5363   5.621   0.116   7.284  0.5814 -0.1571 -0.0479
   40POPC   H7R 5364   5.581   0.014   7.268 -0.0213  0.2243 -1.0162
   40POPC   H7S 5365   5.526   0.173   7.277  0.4044 -0.4680 -0.2108
   40POPC   C28 5366   5.685   0.119   7.426  0.3450 -0.3055 -0.0219
   40POPC   H8R 5367   5.751   0.207   7.442  1.5318 -0.5765 -3.0643
   40POPC   H8S 5368   5.766   0.044   7.412 -0.0435 -0.5318 -1.1611
   40POPC   C29 5369   5.582   0.087   7.528 -0.7723 -0.3722  0.8615
   40POPC   H91 5370   5.478   0.117   7.505 -0.2183 -0.3240 -1.7431
   40POPC  C210 5371   5.611   0.029   7.645 -0.5661 -0.3539  0.0065
   40POPC  H101 5372   5.524   0.014   7.711 -0.1474  5.1439  2.0769
   40POPC  C211 5373   5.749  -0.010   7.691 -0.1956 -0.2343 -0.1133
   40POPC  H11R 5374   5.816   0.073   7.659 -1.3791  0.2357 -1.4368
   40POPC  H11S 5375   5.777  -0.101   7.634  1.8590  0.6142 -0.5266
   40POPC  C212 5376   5.757  -0.040   7.843  0.7905  0.5905 -0.4596
   40POPC  H12R 5377   5.858  -0.080   7.862 -0.3045 -2.3210 -0.4800
   40POPC  H12S 5378   5.686  -0.121   7.870  3.6724 -2.1433 -0.8398
   40POPC  C213 5379   5.732   0.074   7.937  0.1052  0.3191  0.2678
   40POPC  H13R 5380   5.621   0.088   7.938 -0.1016 -1.2716  1.1076
   40POPC  H13S 5381   5.783   0.166   7.903 -0.8337 -0.0753 -2.2822
   40POPC  C214 5382   5.766   0.031   8.079  0.4790 -0.3480  0.1002
   40POPC  H14R 5383   5.869  -0.011   8.079  0.6331 -0.1349  4.1183
   40POPC  H14S 5384   5.689  -0.043   8.108 -0.9015  1.5238  1.3139
   40POPC  C215 5385   5.762   0.160   8.170  0.1921 -0.5346  0.1733
   40POPC  H15R 5386   5.674   0.228   8.159  1.5004  1.5197  2.0849
   40POPC  H15S 5387   5.850   0.220   8.138 -0.3139 -0.9287 -2.0279
   40POPC  C216 5388   5.789   0.129   8.322 -0.9021 -0.0391 -0.0670
   40POPC  H16R 5389   5.760   0.205   8.399  3.2158  2.1142 -0.4986
   40POPC  H16S 5390   5.896   0.112   8.343 -0.8800  0.6877  0.4468
   40POPC  C217 5391   5.712   0.009   8.376  0.1938 -0.4605 -0.0333
   40POPC  H17R 5392   5.737  -0.087   8.326  1.5573 -0.9394  1.5023
   40POPC  H17S 5393   5.606   0.033   8.353  0.4998 -0.4198 -1.4297
   40POPC  C218 5394   5.719  -0.012   8.525 -0.5235  1.0429  0.1536
   40POPC  H18R 5395   5.670  -0.109   8.546 -4.1293  2.3841 -1.5606
   40POPC  H18S 5396   5.671   0.062   8.592  0.2419 -0.4738  2.4392
   40POPC  H18T 5397   5.824  -0.033   8.555 -0.4772  0.3978 -0.4336
   40POPC   C33 5398   5.467   0.596   7.120 -0.3110  0.2203  0.9709
   40POPC   H3X 5399   5.384   0.531   7.086  1.2239  0.0759 -2.6858
   40POPC   H3Y 5400   5.456   0.699   7.080 -1.5149 -1.1763 -2.4697
   40POPC   C34 5401   5.461   0.606   7.272  0.3010  0.0148  1.3830
   40POPC   H4X 5402   5.362   0.649   7.299  0.4156  0.7180  0.7148
   40POPC   H4Y 5403   5.533   0.683   7.307  1.0609  0.1303 -0.3390
   40POPC   C35 5404   5.491   0.478   7.356  0.0366 -0.3807 -1.2844
   40POPC   H5X 5405   5.597   0.450   7.338  0.6919  1.2511 -0.0485
   40POPC   H5Y 5406   5.428   0.391   7.326 -0.3388 -1.1259  1.5347
   40POPC   C36 5407   5.469   0.502   7.508 -0.2137 -0.3043 -0.8273
   40POPC   H6X 5408   5.530   0.591   7.535 -1.6434  0.6017 -0.5464
   40POPC   H6Y 5409   5.500   0.412   7.566 -0.6888  1.3318  2.0760
   40POPC   C37 5410   5.321   0.518   7.547  0.3574  0.0471  0.1931
   40POPC   H7X 5411   5.261   0.447   7.486  1.5035  0.1897 -1.1475
   40POPC   H7Y 5412   5.289   0.619   7.514  3.5920  0.5734 -1.5208
   40POPC   C38 5413   5.294   0.513   7.694 -0.3287  0.1376 -0.0330
   40POPC   H8X 5414   5.313   0.414   7.741 -2.1038  0.2195  0.9107
   40POPC   H8Y 5415   5.183   0.522   7.695 -0.6281 -2.2825 -3.1142
   40POPC   C39 5416   5.341   0.625   7.785  0.5461 -0.2270  0.1263
   40POPC   H9X 5417   5.287   0.721   7.767 -1.7516 -1.1791  1.7405
   40POPC   H9Y 5418   5.448   0.637   7.758  0.8131 -1.7295  0.5297
   40POPC  C310 5419   5.329   0.585   7.936 -0.3834  0.2562  0.1734
   40POPC  H10X 5420   5.251   0.507   7.946 -0.0107 -0.1988 -0.4279
   40POPC  H10Y 5421   5.286   0.676   7.984 -1.2717  0.0343 -0.1809
   40POPC  C311 5422   5.464   0.533   7.991 -0.0289 -0.5268  0.4927
   40POPC  H11X 5423   5.540   0.614   7.988 -0.1814 -0.3563  1.1703
   40POPC  H11Y 5424   5.496   0.455   7.919 -2.1723 -0.0773 -0.9945
   40POPC  C312 5425   5.457   0.469   8.128 -0.4147 -0.2433 -0.3039
   40POPC  H12X 5426   5.553   0.424   8.159  0.0770 -0.5042 -2.1843
   40POPC  H12Y 5427   5.394   0.379   8.111  0.1158 -0.8402  0.8509
   40POPC  C313 5428   5.378   0.541   8.242  0.1271 -0.5551 -0.3019
   40POPC  H13X 5429   5.279   0.573   8.204  1.2809  1.1795 -1.9694
   40POPC  H13Y 5430   5.433   0.638   8.247  2.0871 -1.5914 -1.2289
   40POPC  C314 5431   5.374   0.463   8.373 -0.3151  0.0075  0.9040
   40POPC  H14X 5432   5.383   0.527   8.463  1.2509  0.6614  0.3004
   40POPC  H14Y 5433   5.473   0.414   8.371 -0.8678 -1.2012  2.3202
   40POPC  C315 5434   5.259   0.373   8.390 -0.4036  0.8122  0.2786
   40POPC  H15X 5435   5.272   0.300   8.473 -1.1041  1.5556  1.0638
   40POPC  H15Y 5436   5.239   0.306   8.305  0.7069 -0.5500  1.0808
   40POPC  C316 5437   5.135   0.461   8.435 -0.1038 -0.3003 -0.2196
   40POPC  H16X 5438   5.132   0.496   8.541 -0.7521  1.0140 -0.6660
   40POPC  H16Y 5439   5.042   0.411   8.402 -0.4500 -0.1656  0.5397
   40POPC  H16Z 5440   5.126   0.556   8.377  0.5772  0.5458  1.0270
   41CHL1    C3 5441   4.945   4.234  10.038 -0.4010 -0.5873  0.5752
   41CHL1    H3 5442   5.052   4.213  10.017 -1.0131 -1.6731 -1.7107
   41CHL1    O3 5443   4.950   4.279  10.173  0.2751  0.1927  0.3555
   41CHL1   H3' 5444   5.008   4.215  10.215  3.4815  1.3349 -2.1754
   41CHL1    C4 5445   4.886   4.352   9.953  0.3226  0.2966  0.5170
   41CHL1   H4A 5446   4.790   4.390   9.993  0.4699  1.0550  0.1585
   41CHL1   H4B 5447   4.956   4.438   9.957  0.2457  0.3750  0.1946
   41CHL1    C5 5448   4.886   4.302   9.805 -0.1553 -0.1644  0.3071
   41CHL1    C6 5449   4.937   4.367   9.701 -0.6908 -0.4037  0.3705
   41CHL1    H6 5450   4.966   4.469   9.731 -0.7091 -0.4418  0.5180
   41CHL1    C7 5451   4.949   4.330   9.563  0.5761 -0.3056 -0.4885
   41CHL1   H7A 5452   4.918   4.410   9.493  0.1926 -2.3550 -2.7375
   41CHL1   H7B 5453   5.054   4.299   9.542 -0.3822 -2.8544 -1.6919
   41CHL1    C8 5454   4.855   4.213   9.528 -0.6878  0.3704 -0.1183
   41CHL1    H8 5455   4.751   4.252   9.520 -0.4884  0.9176 -0.0704
   41CHL1   C14 5456   4.893   4.147   9.394  1.1377  1.1459  0.2634
   41CHL1   H14 5457   4.991   4.099   9.419  0.7840  0.3555  0.1581
   41CHL1   C15 5458   4.924   4.244   9.276  0.5827 -0.1432  0.3898
   41CHL1  H15A 5459   4.857   4.332   9.284  0.6569 -0.1348  0.9563
   41CHL1  H15B 5460   5.033   4.267   9.282  0.1057  1.7612  2.1390
   41CHL1   C16 5461   4.888   4.155   9.155  0.0319  0.0975 -0.1254
   41CHL1  H16A 5462   4.803   4.205   9.106  1.1646  2.1319 -0.0540
   41CHL1  H16B 5463   4.973   4.156   9.083 -0.6949  0.4767 -0.9770
   41CHL1   C17 5464   4.857   4.010   9.199 -0.0758 -0.2399  0.1291
   41CHL1   H17 5465   4.959   3.967   9.200 -0.4516 -1.1393  0.2599
   41CHL1   C13 5466   4.802   4.037   9.337 -0.4446 -0.5291 -0.3316
   41CHL1   C18 5467   4.652   4.084   9.323  0.1823  0.3393 -0.4647
   41CHL1  H18A 5468   4.610   4.138   9.410  2.4874  1.2099  0.1588
   41CHL1  H18B 5469   4.660   4.150   9.235  3.3828 -0.1357 -0.6103
   41CHL1  H18C 5470   4.591   3.995   9.297  1.3077 -0.3668 -0.7427
   41CHL1   C12 5471   4.807   3.931   9.449 -0.1598 -0.3608  0.1079
   41CHL1  H12A 5472   4.753   3.838   9.420  0.2726  0.5328 -3.8582
   41CHL1  H12B 5473   4.911   3.893   9.454  0.3879  0.8159 -1.8968
   41CHL1   C11 5474   4.760   3.978   9.589  0.3922 -0.2774  0.3003
   41CHL1  H11A 5475   4.652   4.004   9.585  0.3938 -0.3061  0.0408
   41CHL1  H11B 5476   4.771   3.900   9.667 -0.0420  1.1235  1.7883
   41CHL1    C9 5477   4.850   4.102   9.639  0.1088  0.0462  0.3720
   41CHL1    H9 5478   4.949   4.051   9.640 -1.5367 -3.3809 -0.7941
   41CHL1   C10 5479   4.826   4.156   9.777  0.2700  0.6818  0.0043
   41CHL1   C19 5480   4.673   4.176   9.787 -0.6102  0.7412  0.1524
   41CHL1  H19A 5481   4.650   4.221   9.886 -0.4107 -1.2660  1.1381
   41CHL1  H19B 5482   4.630   4.228   9.699  0.2184  0.3642 -0.4827
   41CHL1  H19C 5483   4.619   4.079   9.794  1.6172 -0.5814 -0.2994
   41CHL1    C1 5484   4.873   4.056   9.891 -1.0233  0.1025 -0.2609
   41CHL1   H1A 5485   4.815   3.962   9.878  0.2541 -0.7272 -0.0143
   41CHL1   H1B 5486   4.980   4.038   9.867 -0.8484 -1.8866  1.7961
   41CHL1    C2 5487   4.864   4.104  10.033  0.3467 -0.3015  0.6015
   41CHL1   H2A 5488   4.920   4.038  10.103 -0.2101 -1.1776  0.2341
   41CHL1   H2B 5489   4.761   4.114  10.073  0.8725  0.8185  1.7131
   41CHL1   C20 5490   4.783   3.915   9.097  0.2171 -0.4897  0.1945
   41CHL1   H20 5491   4.674   3.932   9.103  0.4115  0.3700  1.3458
   41CHL1   C21 5492   4.824   3.776   9.137 -0.0746  0.2504  0.3211
   41CHL1  H21A 5493   4.779   3.703   9.066  1.5953 -0.1738 -0.3059
   41CHL1  H21B 5494   4.797   3.763   9.243  0.4357  0.9023  0.5382
   41CHL1  H21C 5495   4.933   3.769   9.119 -0.1612 -3.0163  0.8618
   41CHL1   C22 5496   4.843   3.943   8.954 -0.1922 -0.5456 -0.0713
   41CHL1  H22A 5497   4.876   4.048   8.939 -2.5384  0.2082 -0.0808
   41CHL1  H22B 5498   4.939   3.888   8.945  0.3960  0.5185 -0.3083
   41CHL1   C23 5499   4.746   3.903   8.841  0.0206  0.2982 -0.3121
   41CHL1  H23A 5500   4.707   3.799   8.848  0.6912 -0.1163 -2.5263
   41CHL1  H23B 5501   4.656   3.965   8.865 -1.1612 -2.0694  1.6344
   41CHL1   C24 5502   4.799   3.928   8.695 -0.1215  0.1535 -0.4831
   41CHL1  H24A 5503   4.830   4.035   8.696 -1.9351  0.6890  0.3478
   41CHL1  H24B 5504   4.882   3.854   8.701  1.2196  1.7054  0.8414
   41CHL1   C25 5505   4.712   3.876   8.575  0.2749 -0.3871 -0.5183
   41CHL1   H25 5506   4.685   3.770   8.593 -0.7957  0.1932  1.4497
   41CHL1   C26 5507   4.579   3.951   8.564  0.3451 -0.6916  0.0948
   41CHL1  H26A 5508   4.509   3.891   8.502  0.3253 -0.1746 -0.4035
   41CHL1  H26B 5509   4.537   3.958   8.666 -0.4483 -0.9758 -0.2057
   41CHL1  H26C 5510   4.586   4.058   8.534 -3.5080 -0.8313 -1.5552
   41CHL1   C27 5511   4.795   3.878   8.446 -0.2191  0.1157  0.1057
   41CHL1  H27A 5512   4.815   3.981   8.409 -2.1875 -0.2629 -2.1040
   41CHL1  H27B 5513   4.889   3.822   8.464 -0.5744 -0.4731  0.1493
   41CHL1  H27C 5514   4.739   3.829   8.363  2.0528  0.5416 -1.7321
   42CHL1    C3 5515   4.490   3.626   9.819  0.7035  0.4082 -0.4221
   42CHL1    H3 5516   4.381   3.623   9.838  0.8029 -0.4082  0.0797
   42CHL1    O3 5517   4.551   3.635   9.944 -0.4956 -0.1035  0.1047
   42CHL1   H3' 5518   4.643   3.649   9.923 -0.6774 -1.1307 -1.4374
   42CHL1    C4 5519   4.526   3.496   9.747 -0.4445  0.2082 -0.1601
   42CHL1   H4A 5520   4.637   3.498   9.741 -0.3913  1.7908  0.9780
   42CHL1   H4B 5521   4.493   3.419   9.819 -1.4478 -1.2940 -2.1812
   42CHL1    C5 5522   4.460   3.491   9.611 -0.1790 -0.1384 -0.4177
   42CHL1    C6 5523   4.361   3.409   9.581  0.1834 -0.5053  0.2980
   42CHL1    H6 5524   4.330   3.331   9.652 -0.0185 -2.0675 -1.4982
   42CHL1    C7 5525   4.297   3.393   9.446 -0.8844  0.2813  0.5626
   42CHL1   H7A 5526   4.283   3.285   9.423  0.2454  0.5506 -1.4613
   42CHL1   H7B 5527   4.199   3.444   9.443  0.0831  2.3776  2.7621
   42CHL1    C8 5528   4.382   3.453   9.335  0.0016  0.4049 -0.1716
   42CHL1    H8 5529   4.469   3.387   9.317 -1.1442 -0.5572 -2.3831
   42CHL1   C14 5530   4.306   3.476   9.204 -0.1248 -0.5609 -0.3598
   42CHL1   H14 5531   4.222   3.543   9.231 -0.1329 -0.1854 -1.2975
   42CHL1   C15 5532   4.229   3.349   9.143  0.4250  0.8038 -0.0339
   42CHL1  H15A 5533   4.298   3.270   9.179 -0.6914 -0.5238 -0.7133
   42CHL1  H15B 5534   4.123   3.338   9.176  0.2307  1.4410 -0.4430
   42CHL1   C16 5535   4.232   3.379   8.997 -0.0772  0.3312  0.1346
   42CHL1  H16A 5536   4.290   3.300   8.946 -1.4295 -0.2786 -0.4863
   42CHL1  H16B 5537   4.131   3.391   8.952 -0.8720 -1.1193  1.4955
   42CHL1   C17 5538   4.308   3.511   8.967  0.2691  0.7168 -0.3517
   42CHL1   H17 5539   4.245   3.600   8.984  0.3180  0.4352  1.3463
   42CHL1   C13 5540   4.397   3.531   9.094 -0.0338  0.2588 -0.0178
   42CHL1   C18 5541   4.528   3.441   9.067  0.3962  0.6183 -0.3053
   42CHL1  H18A 5542   4.483   3.340   9.055 -2.2304  1.9748 -2.2249
   42CHL1  H18B 5543   4.587   3.474   8.980  1.3430  1.0738  0.4952
   42CHL1  H18C 5544   4.590   3.449   9.159  0.5404 -1.0745 -0.2519
   42CHL1   C12 5545   4.433   3.669   9.131  0.1822  0.2325  0.3829
   42CHL1  H12A 5546   4.509   3.708   9.061 -0.8822 -1.6907 -1.9011
   42CHL1  H12B 5547   4.348   3.738   9.114  0.6288  0.4988 -0.7959
   42CHL1   C11 5548   4.495   3.679   9.269  0.1305 -0.3657  0.1856
   42CHL1  H11A 5549   4.603   3.664   9.250  0.3883  0.4688  0.9642
   42CHL1  H11B 5550   4.488   3.784   9.305  3.5384  0.2429 -0.8208
   42CHL1    C9 5551   4.429   3.594   9.382  0.5192  0.1632 -0.1167
   42CHL1    H9 5552   4.337   3.651   9.405  1.3131  0.7281  1.7070
   42CHL1   C10 5553   4.513   3.591   9.509  0.2686 -0.2030 -0.3274
   42CHL1   C19 5554   4.657   3.555   9.477 -0.3456 -0.3092 -0.1576
   42CHL1  H19A 5555   4.723   3.574   9.564 -1.6370 -1.6797  1.1513
   42CHL1  H19B 5556   4.660   3.452   9.437  1.1210 -0.8927  1.4302
   42CHL1  H19C 5557   4.706   3.620   9.401  0.3447 -0.9025 -0.2192
   42CHL1    C1 5558   4.490   3.731   9.580  0.4102 -0.2833  0.0257
   42CHL1   H1A 5559   4.539   3.817   9.529 -0.4712 -0.7548 -1.6320
   42CHL1   H1B 5560   4.384   3.764   9.588  0.6399  0.7068 -1.0223
   42CHL1    C2 5561   4.538   3.737   9.734  0.3579  0.1340 -0.4404
   42CHL1   H2A 5562   4.508   3.834   9.779 -1.7438 -0.9200  0.4601
   42CHL1   H2B 5563   4.649   3.728   9.733  0.4278  1.0021 -2.7583
   42CHL1   C20 5564   4.363   3.525   8.819 -0.6393 -0.1425  0.0405
   42CHL1   H20 5565   4.432   3.439   8.809  0.9577  1.3833 -2.5518
   42CHL1   C21 5566   4.449   3.656   8.790 -0.2960  0.4418 -0.2948
   42CHL1  H21A 5567   4.550   3.633   8.830 -0.1058  1.6434 -0.0545
   42CHL1  H21B 5568   4.414   3.742   8.852 -0.0656  0.0237  0.4205
   42CHL1  H21C 5569   4.462   3.687   8.684 -0.4980 -1.8171 -1.0090
   42CHL1   C22 5570   4.249   3.502   8.717 -0.3228 -0.3698  0.3560
   42CHL1  H22A 5571   4.289   3.489   8.613 -1.4224  1.5733 -0.3214
   42CHL1  H22B 5572   4.197   3.405   8.731  1.1494 -1.3194 -0.5401
   42CHL1   C23 5573   4.157   3.614   8.686  0.1113 -0.5674  0.3532
   42CHL1  H23A 5574   4.208   3.713   8.684 -2.0052  0.5569 -0.3167
   42CHL1  H23B 5575   4.131   3.596   8.580 -0.8853 -0.6491  0.5995
   42CHL1   C24 5576   4.029   3.611   8.770 -0.3401  0.3085  0.0467
   42CHL1  H24A 5577   3.959   3.527   8.751 -1.5660  1.8471 -2.5130
   42CHL1  H24B 5578   4.058   3.613   8.877 -1.4861  1.4230  0.3574
   42CHL1   C25 5579   3.939   3.734   8.758  0.2144 -0.2204  0.4752
   42CHL1   H25 5580   3.922   3.756   8.651  0.6936 -0.1843  0.4063
   42CHL1   C26 5581   3.812   3.699   8.829 -0.0307 -0.1157  0.8223
   42CHL1  H26A 5582   3.735   3.763   8.782 -1.0275  0.1381  2.7679
   42CHL1  H26B 5583   3.783   3.596   8.800  2.6183 -0.0361 -2.4649
   42CHL1  H26C 5584   3.811   3.714   8.939  1.4696  0.2855  0.7957
   42CHL1   C27 5585   4.007   3.860   8.820 -0.4384 -0.2715 -0.2085
   42CHL1  H27A 5586   4.052   3.838   8.919 -0.7210  1.3771  0.2979
   42CHL1  H27B 5587   4.099   3.881   8.761 -0.2935 -1.9180 -0.6137
   42CHL1  H27C 5588   3.943   3.951   8.826 -0.9998 -0.6347 -0.6103
   43CHL1    C3 5589   5.332   3.872  10.068 -0.0712  0.4522 -0.3328
   43CHL1    H3 5590   5.438   3.902  10.082 -0.8411  2.9593  0.4668
   43CHL1    O3 5591   5.280   3.868  10.204  0.1678  0.0018  0.5102
   43CHL1   H3' 5592   5.320   3.790  10.243 -0.6249  1.0325  3.5778
   43CHL1    C4 5593   5.266   3.979   9.985 -0.1525 -0.2356  0.2551
   43CHL1   H4A 5594   5.159   3.955   9.999 -0.1163  0.2828  1.4683
   43CHL1   H4B 5595   5.286   4.079  10.028 -0.8804 -0.1498  0.3878
   43CHL1    C5 5596   5.288   3.967   9.835  0.0426  0.5071 -0.4222
   43CHL1    C6 5597   5.300   4.075   9.755  0.4106 -0.3819 -0.5590
   43CHL1    H6 5598   5.274   4.176   9.789 -1.3976  0.0259 -3.0811
   43CHL1    C7 5599   5.295   4.062   9.606  0.6353 -0.0140  0.5831
   43CHL1   H7A 5600   5.223   4.130   9.555 -0.2562 -2.3180 -1.3478
   43CHL1   H7B 5601   5.386   4.102   9.557 -0.6058  0.4744 -1.4149
   43CHL1    C8 5602   5.270   3.916   9.550 -0.6541  0.3766  0.1638
   43CHL1    H8 5603   5.160   3.911   9.542 -0.6216 -0.1855 -0.0030
   43CHL1   C14 5604   5.329   3.901   9.414  0.2061 -0.0771  0.1743
   43CHL1   H14 5605   5.438   3.910   9.429  0.4878 -0.8580 -1.3415
   43CHL1   C15 5606   5.285   4.014   9.308 -0.4594 -0.3632 -0.2017
   43CHL1  H15A 5607   5.178   4.032   9.331 -0.3785  1.5226 -1.1577
   43CHL1  H15B 5608   5.339   4.110   9.319  0.5219 -0.8207 -0.8640
   43CHL1   C16 5609   5.302   3.947   9.170  0.1220  0.0366 -0.1564
   43CHL1  H16A 5610   5.207   3.948   9.112  0.3516  1.6660 -0.5413
   43CHL1  H16B 5611   5.379   3.998   9.108 -0.4272  1.5378  0.3654
   43CHL1   C17 5612   5.347   3.798   9.199  1.4004  0.2668  0.0682
   43CHL1   H17 5613   5.458   3.801   9.213  1.2743 -0.7248  1.4063
   43CHL1   C13 5614   5.290   3.769   9.342 -0.1959  0.6819  0.2390
   43CHL1   C18 5615   5.137   3.750   9.327 -0.8876  0.5693  0.9049
   43CHL1  H18A 5616   5.082   3.847   9.317 -0.6163  1.0269  3.4405
   43CHL1  H18B 5617   5.115   3.674   9.250  1.3159  0.7388  0.0882
   43CHL1  H18C 5618   5.093   3.707   9.420  2.3201 -0.7437  1.8602
   43CHL1   C12 5619   5.347   3.653   9.428  0.3382 -0.5824 -0.2490
   43CHL1  H12A 5620   5.305   3.560   9.384  0.0706  1.2986 -4.1492
   43CHL1  H12B 5621   5.458   3.649   9.433  0.4266  1.6379  0.0121
   43CHL1   C11 5622   5.305   3.664   9.578 -0.7361  0.1515  0.0081
   43CHL1  H11A 5623   5.200   3.625   9.579 -0.6427 -0.1495 -1.0957
   43CHL1  H11B 5624   5.372   3.593   9.631  0.4989  1.0351 -0.3665
   43CHL1    C9 5625   5.320   3.802   9.639 -0.1033  0.2958  0.0551
   43CHL1    H9 5626   5.429   3.820   9.631 -0.3170  1.4969 -0.3301
   43CHL1   C10 5627   5.273   3.821   9.779  1.2713  0.2417 -0.4035
   43CHL1   C19 5628   5.126   3.787   9.780  0.3253  0.3723 -0.3931
   43CHL1  H19A 5629   5.068   3.841   9.701 -0.3345 -0.6006 -0.5991
   43CHL1  H19B 5630   5.107   3.678   9.764  0.0666  0.5817 -1.5547
   43CHL1  H19C 5631   5.075   3.807   9.877 -1.4522 -0.6189 -1.0856
   43CHL1    C1 5632   5.352   3.719   9.869 -0.6789 -0.0005 -0.1071
   43CHL1   H1A 5633   5.327   3.615   9.839  1.5843 -1.1079  1.6806
   43CHL1   H1B 5634   5.460   3.737   9.849 -0.8140  1.8628  0.7795
   43CHL1    C2 5635   5.330   3.729  10.020 -0.0733  0.5887 -0.1438
   43CHL1   H2A 5636   5.400   3.663  10.076 -0.7831  1.9607  2.4019
   43CHL1   H2B 5637   5.230   3.688  10.046  0.7284 -2.6284 -1.7955
   43CHL1   C20 5638   5.329   3.700   9.082  0.1599 -0.0611 -0.4934
   43CHL1   H20 5639   5.221   3.672   9.086  0.7384 -3.0414 -3.4612
   43CHL1   C21 5640   5.410   3.582   9.105  0.3214  0.1644  0.2972
   43CHL1  H21A 5641   5.517   3.613   9.103 -0.0603  1.4791 -0.1581
   43CHL1  H21B 5642   5.387   3.507   9.027  1.1359  2.5010 -2.2933
   43CHL1  H21C 5643   5.384   3.546   9.207  3.2906  0.9853  1.4065
   43CHL1   C22 5644   5.352   3.770   8.944 -0.2092 -0.3419 -0.3761
   43CHL1  H22A 5645   5.267   3.841   8.935  1.1794  1.6474  1.4774
   43CHL1  H22B 5646   5.447   3.828   8.951 -0.9906  0.9936 -0.6408
   43CHL1   C23 5647   5.349   3.675   8.825 -0.1893 -0.0153  0.0751
   43CHL1  H23A 5648   5.450   3.629   8.823  0.1791  0.7815  0.0417
   43CHL1  H23B 5649   5.267   3.602   8.836 -0.8249  0.9508  1.8651
   43CHL1   C24 5650   5.338   3.741   8.680  0.0298 -0.2087 -0.0309
   43CHL1  H24A 5651   5.345   3.662   8.602  1.1166 -1.3891  1.2121
   43CHL1  H24B 5652   5.235   3.781   8.684 -0.9381 -2.7061  2.1290
   43CHL1   C25 5653   5.427   3.856   8.655 -0.7554 -0.5785  0.3005
   43CHL1   H25 5654   5.413   3.936   8.731  2.9391 -0.8265  1.3581
   43CHL1   C26 5655   5.575   3.809   8.653 -0.5003  0.3474 -0.6343
   43CHL1  H26A 5656   5.652   3.882   8.620  1.0372 -0.5436  0.9145
   43CHL1  H26B 5657   5.608   3.763   8.748 -1.1295  0.4826 -0.3464
   43CHL1  H26C 5658   5.581   3.736   8.569 -1.1060 -0.5431  0.0904
   43CHL1   C27 5659   5.397   3.912   8.511  0.7021 -0.1011 -0.1183
   43CHL1  H27A 5660   5.422   3.840   8.430  1.6844 -0.0332  0.1110
   43CHL1  H27B 5661   5.288   3.933   8.512  0.7771  0.4307 -2.0161
   43CHL1  H27C 5662   5.455   4.005   8.496 -2.3619  1.4583 -2.7716
   44CHL1    C3 5663   5.380   4.512  10.196 -0.3142 -0.1362 -0.1155
   44CHL1    H3 5664   5.449   4.435  10.236 -0.6925 -0.2384  0.3355
   44CHL1    O3 5665   5.328   4.564  10.318  0.4890  0.4478 -0.0868
   44CHL1   H3' 5666   5.241   4.601  10.299  0.1400  0.2818  1.1326
   44CHL1    C4 5667   5.445   4.625  10.121 -0.2227 -0.0143 -0.2149
   44CHL1   H4A 5668   5.384   4.717  10.115 -0.0242  0.1311 -0.0132
   44CHL1   H4B 5669   5.537   4.664  10.170 -0.1987 -0.9632  0.5093
   44CHL1    C5 5670   5.479   4.590   9.980 -0.2878  0.0367 -0.1879
   44CHL1    C6 5671   5.599   4.616   9.925 -0.1741  0.1275  0.6027
   44CHL1    H6 5672   5.679   4.656   9.989 -0.8781  1.5370  0.6076
   44CHL1    C7 5673   5.631   4.596   9.779  0.2879  0.2644  0.5173
   44CHL1   H7A 5674   5.691   4.682   9.741  0.5995 -0.2485 -0.1584
   44CHL1   H7B 5675   5.701   4.510   9.770 -0.1219  0.0716 -0.9678
   44CHL1    C8 5676   5.510   4.591   9.694 -0.1124 -0.6128  0.3092
   44CHL1    H8 5677   5.472   4.695   9.690  2.4911  0.3772  0.3380
   44CHL1   C14 5678   5.558   4.553   9.554  0.3152 -0.4120  0.4532
   44CHL1   H14 5679   5.612   4.456   9.564  2.6259  1.0745  3.1041
   44CHL1   C15 5680   5.662   4.648   9.492 -0.0396  0.2462  0.3553
   44CHL1  H15A 5681   5.636   4.754   9.513 -3.2684 -0.3520 -0.2800
   44CHL1  H15B 5682   5.763   4.627   9.531  0.3294 -0.5088 -0.9951
   44CHL1   C16 5683   5.656   4.618   9.343  0.2151 -0.2074  0.3934
   44CHL1  H16A 5684   5.630   4.711   9.289 -1.5228 -0.9159 -0.0065
   44CHL1  H16B 5685   5.748   4.577   9.295  0.0927 -1.0792  0.8906
   44CHL1   C17 5686   5.536   4.522   9.322  0.1137  0.2040  0.1590
   44CHL1   H17 5687   5.580   4.420   9.325  1.9952  0.9871 -0.1706
   44CHL1   C13 5688   5.445   4.542   9.451  0.6650 -0.0216 -0.1904
   44CHL1   C18 5689   5.355   4.671   9.436 -0.1752  0.4181 -0.2316
   44CHL1  H18A 5690   5.325   4.691   9.542 -0.3689  1.1033 -0.4084
   44CHL1  H18B 5691   5.415   4.762   9.413  0.3703  0.1610  0.1600
   44CHL1  H18C 5692   5.277   4.657   9.359 -1.6714 -1.3642  1.5691
   44CHL1   C12 5693   5.352   4.426   9.497  0.5041 -0.5563  0.5119
   44CHL1  H12A 5694   5.268   4.413   9.425  0.5939  0.1010  0.2888
   44CHL1  H12B 5695   5.418   4.337   9.502  1.2685  0.0338  1.0902
   44CHL1   C11 5696   5.289   4.455   9.640 -0.2322 -0.3541  0.9173
   44CHL1  H11A 5697   5.216   4.538   9.627 -2.0342 -1.5248  3.1535
   44CHL1  H11B 5698   5.230   4.374   9.688 -0.7906 -0.4582  0.0637
   44CHL1    C9 5699   5.404   4.492   9.740 -0.1858 -0.6101  0.1030
   44CHL1    H9 5700   5.460   4.397   9.749 -1.2009 -1.2316 -0.0286
   44CHL1   C10 5701   5.363   4.533   9.893  0.6303  0.2123  0.3196
   44CHL1   C19 5702   5.244   4.638   9.880  0.0324 -0.4339 -0.3558
   44CHL1  H19A 5703   5.154   4.576   9.858  1.2931 -2.2734 -0.4420
   44CHL1  H19B 5704   5.222   4.698   9.971  0.8565  1.0348 -1.1131
   44CHL1  H19C 5705   5.261   4.710   9.798  1.6334 -0.6883 -0.2555
   44CHL1    C1 5706   5.303   4.410   9.970  0.2553  0.0694  0.6505
   44CHL1   H1A 5707   5.215   4.355   9.931  1.1007 -1.5471  0.9689
   44CHL1   H1B 5708   5.386   4.336   9.980 -0.4970 -0.8730  0.0588
   44CHL1    C2 5709   5.276   4.438  10.119  0.1454 -0.1426  0.3466
   44CHL1   H2A 5710   5.239   4.347  10.171  0.0835  0.5530  1.5203
   44CHL1   H2B 5711   5.188   4.505  10.112  1.7636  1.8617 -1.3606
   44CHL1   C20 5712   5.475   4.538   9.178  0.2548 -0.4551  0.1619
   44CHL1   H20 5713   5.441   4.643   9.163  1.2821  0.2103  2.2981
   44CHL1   C21 5714   5.361   4.439   9.156 -0.1947  0.9866  0.3935
   44CHL1  H21A 5715   5.344   4.411   9.050  2.5626  1.3922 -0.1846
   44CHL1  H21B 5716   5.268   4.486   9.196 -0.1391  0.8490  0.6809
   44CHL1  H21C 5717   5.379   4.351   9.221  2.5012  0.9253 -0.3963
   44CHL1   C22 5718   5.576   4.525   9.063  0.2356  0.3981  0.3084
   44CHL1  H22A 5719   5.517   4.524   8.969 -0.4468  2.1933  0.6979
   44CHL1  H22B 5720   5.639   4.617   9.063 -1.9412  1.9395 -0.7509
   44CHL1   C23 5721   5.663   4.397   9.058 -0.2946  0.3645 -0.7368
   44CHL1  H23A 5722   5.703   4.365   9.156 -2.3379 -2.6712 -0.8306
   44CHL1  H23B 5723   5.610   4.304   9.031 -2.1727  1.1397  0.1838
   44CHL1   C24 5724   5.794   4.405   8.984  0.1384 -0.1486  0.8700
   44CHL1  H24A 5725   5.858   4.491   9.012  1.8949 -0.2670 -2.5099
   44CHL1  H24B 5726   5.851   4.314   9.014  0.9310  0.1476  0.2625
   44CHL1   C25 5727   5.791   4.396   8.829 -0.7185 -0.3577 -0.4618
   44CHL1   H25 5728   5.708   4.457   8.787  1.2270  4.1784  1.9977
   44CHL1   C26 5729   5.920   4.450   8.759 -0.2429 -0.2069 -0.1567
   44CHL1  H26A 5730   5.895   4.439   8.651  0.6030  1.2260 -0.5037
   44CHL1  H26B 5731   5.941   4.551   8.799  0.2397 -0.9554  1.5628
   44CHL1  H26C 5732   6.006   4.384   8.781 -1.4219 -2.1426 -1.1263
   44CHL1   C27 5733   5.769   4.246   8.790 -0.7915 -0.6043 -0.0748
   44CHL1  H27A 5734   5.752   4.229   8.682 -1.3042 -3.0181  0.3567
   44CHL1  H27B 5735   5.857   4.182   8.814 -0.7268 -0.3129  0.4716
   44CHL1  H27C 5736   5.685   4.202   8.848  0.0932 -0.1678  1.5667
   45CHL1    C3 5737   1.802   3.288  10.190 -0.0358 -0.2066  0.5355
   45CHL1    H3 5738   1.895   3.342  10.219  0.7407 -1.2239 -0.0433
   45CHL1    O3 5739   1.699   3.309  10.283  0.1160  0.0025 -0.4856
   45CHL1   H3' 5740   1.626   3.252  10.260  0.1560 -0.2776  0.0843
   45CHL1    C4 5741   1.751   3.327  10.047 -0.1547  0.7265  0.2062
   45CHL1   H4A 5742   1.652   3.282  10.023 -0.4567  3.0711 -3.3607
   45CHL1   H4B 5743   1.724   3.435  10.046 -1.3316  0.4493  0.3777
   45CHL1    C5 5744   1.850   3.298   9.934 -0.6737  0.9076  0.2354
   45CHL1    C6 5745   1.893   3.400   9.855 -0.0184 -0.2670  0.9487
   45CHL1    H6 5746   1.846   3.499   9.866 -0.2901 -0.1817 -0.8899
   45CHL1    C7 5747   2.000   3.388   9.744 -0.1069 -0.4323 -0.1841
   45CHL1   H7A 5748   1.961   3.434   9.651  1.8628 -1.0350 -1.3321
   45CHL1   H7B 5749   2.092   3.440   9.779 -0.9211  0.6491  0.3732
   45CHL1    C8 5750   2.048   3.241   9.726 -0.5148  0.3917 -0.1161
   45CHL1    H8 5751   2.152   3.235   9.686 -0.8191  1.4579 -1.0869
   45CHL1   C14 5752   1.978   3.169   9.610  0.1045 -0.5123 -0.6576
   45CHL1   H14 5753   1.869   3.172   9.634  0.6303 -0.3142  1.8933
   45CHL1   C15 5754   1.999   3.229   9.472 -0.4621 -0.0946  0.1310
   45CHL1  H15A 5755   1.900   3.227   9.421  0.6755 -0.4356 -2.1176
   45CHL1  H15B 5756   2.041   3.331   9.481  1.4578 -0.9171  0.7739
   45CHL1   C16 5757   2.103   3.143   9.394 -0.3892  0.4429 -0.2994
   45CHL1  H16A 5758   2.044   3.092   9.315  2.1332 -0.0211 -1.9349
   45CHL1  H16B 5759   2.182   3.209   9.351  0.6222 -0.3079  0.3828
   45CHL1   C17 5760   2.144   3.030   9.491  0.2441 -0.6963  0.9322
   45CHL1   H17 5761   2.223   3.078   9.553  0.3608 -0.2867  0.4737
   45CHL1   C13 5762   2.025   3.020   9.593 -0.0746 -0.0607  0.3375
   45CHL1   C18 5763   1.907   2.953   9.517  0.1955  0.1893 -0.1936
   45CHL1  H18A 5764   1.822   2.940   9.588 -0.4224  2.6151 -0.4118
   45CHL1  H18B 5765   1.870   3.005   9.426  0.9405 -3.5373 -2.7182
   45CHL1  H18C 5766   1.925   2.848   9.488 -1.5506  0.0197 -0.7313
   45CHL1   C12 5767   2.060   2.938   9.714  0.1801 -0.1706 -0.3790
   45CHL1  H12A 5768   1.962   2.900   9.750  0.6433  0.2969  1.4442
   45CHL1  H12B 5769   2.124   2.848   9.701  1.2594  0.8814 -2.6107
   45CHL1   C11 5770   2.121   3.016   9.831 -0.5216 -0.1243 -0.4441
   45CHL1  H11A 5771   2.110   2.947   9.917 -0.2743 -0.2617 -0.5232
   45CHL1  H11B 5772   2.224   3.051   9.812 -1.2772  2.9219  0.7619
   45CHL1    C9 5773   2.049   3.155   9.859  0.0732  0.2177  0.7278
   45CHL1    H9 5774   2.127   3.209   9.917  2.0275 -1.0340 -0.6574
   45CHL1   C10 5775   1.914   3.158   9.944  0.3840 -0.1257  0.0735
   45CHL1   C19 5776   1.805   3.059   9.892 -0.0295 -0.0825  0.2076
   45CHL1  H19A 5777   1.794   3.068   9.782  1.9886 -0.6429 -0.0691
   45CHL1  H19B 5778   1.822   2.950   9.906 -1.3755 -0.7976 -3.3042
   45CHL1  H19C 5779   1.706   3.082   9.937 -0.1447  1.8209 -0.9900
   45CHL1    C1 5780   1.949   3.117  10.090 -0.0884 -0.3290 -0.2101
   45CHL1   H1A 5781   1.986   3.013  10.100  1.0355  0.2002  1.2204
   45CHL1   H1B 5782   2.031   3.188  10.117 -2.0484  0.7085  3.2612
   45CHL1    C2 5783   1.836   3.144  10.188 -0.1557  0.4794 -0.0641
   45CHL1   H2A 5784   1.867   3.117  10.291 -2.3654 -3.3370 -0.3202
   45CHL1   H2B 5785   1.745   3.090  10.154 -0.6855  1.1959  0.2044
   45CHL1   C20 5786   2.195   2.894   9.440 -0.0344  0.4839  0.3928
   45CHL1   H20 5787   2.137   2.811   9.485  1.0296 -1.2492 -1.3579
   45CHL1   C21 5788   2.343   2.884   9.500  0.2331 -0.3037  0.5464
   45CHL1  H21A 5789   2.389   2.790   9.461 -0.2707 -0.7166  0.9516
   45CHL1  H21B 5790   2.342   2.868   9.609 -1.4561  0.1055  0.5928
   45CHL1  H21C 5791   2.401   2.975   9.472 -1.4437  0.9178  0.9406
   45CHL1   C22 5792   2.192   2.887   9.290  0.1745 -0.5239 -0.0054
   45CHL1  H22A 5793   2.089   2.893   9.249  0.3660  0.1226 -0.3913
   45CHL1  H22B 5794   2.241   2.974   9.241 -0.2339 -1.3100 -1.8665
   45CHL1   C23 5795   2.252   2.757   9.214 -0.2574  0.0329 -0.0389
   45CHL1  H23A 5796   2.359   2.740   9.242  0.1122  0.8905 -0.9001
   45CHL1  H23B 5797   2.188   2.671   9.242 -0.6064  0.1893 -0.3537
   45CHL1   C24 5798   2.243   2.769   9.060 -0.2135  0.5227  0.2072
   45CHL1  H24A 5799   2.144   2.810   9.032 -0.3496  0.7060  0.9618
   45CHL1  H24B 5800   2.314   2.841   9.014  0.9892 -0.7077  0.1077
   45CHL1   C25 5801   2.265   2.632   8.993 -0.4522 -0.2693 -0.0398
   45CHL1   H25 5802   2.361   2.586   9.026  0.0443 -0.5479 -1.7797
   45CHL1   C26 5803   2.154   2.536   9.029 -0.0347  0.1614  0.3678
   45CHL1  H26A 5804   2.161   2.522   9.139 -0.5455  4.5239  1.0406
   45CHL1  H26B 5805   2.055   2.579   9.004 -0.3574 -1.0067 -0.4403
   45CHL1  H26C 5806   2.156   2.439   8.974 -0.1075  0.9721 -1.0976
   45CHL1   C27 5807   2.279   2.654   8.844  0.0453 -0.0678  0.2551
   45CHL1  H27A 5808   2.292   2.559   8.788 -0.6916 -0.8300  1.3537
   45CHL1  H27B 5809   2.189   2.715   8.820  0.3284 -1.0579 -3.6852
   45CHL1  H27C 5810   2.372   2.713   8.834  0.9021 -1.4991 -0.3451
   46CHL1    C3 5811   4.951   6.804  10.047 -0.2241  0.1439 -0.2528
   46CHL1    H3 5812   5.052   6.759  10.047 -0.7277 -1.0873 -2.4101
   46CHL1    O3 5813   4.899   6.825  10.175  0.3885 -0.2034  0.1080
   46CHL1   H3' 5814   4.936   6.753  10.227 -0.8704 -1.1371 -0.2620
   46CHL1    C4 5815   4.965   6.943   9.975  0.7576  0.0472 -0.1824
   46CHL1   H4A 5816   4.867   6.995   9.981 -0.5994 -2.4157 -0.0348
   46CHL1   H4B 5817   5.031   6.998  10.045  1.5516 -1.7925  0.5592
   46CHL1    C5 5818   5.010   6.932   9.833  0.1271 -0.1746 -0.3538
   46CHL1    C6 5819   5.119   6.997   9.783  0.1678 -0.5182  0.6580
   46CHL1    H6 5820   5.185   7.048   9.855 -0.7737 -0.0647  1.2175
   46CHL1    C7 5821   5.166   6.985   9.636 -0.3390  0.4589  0.9050
   46CHL1   H7A 5822   5.206   7.084   9.605 -0.7683  0.0666 -0.9384
   46CHL1   H7B 5823   5.247   6.910   9.622 -0.8101  0.0284  0.4654
   46CHL1    C8 5824   5.043   6.931   9.548 -0.4684  0.5442  0.6801
   46CHL1    H8 5825   4.972   7.015   9.533  0.0236  1.2705  2.2190
   46CHL1   C14 5826   5.098   6.894   9.410  0.9444 -0.5858  0.7518
   46CHL1   H14 5827   5.175   6.817   9.431 -0.7007 -1.5336  3.5091
   46CHL1   C15 5828   5.176   7.011   9.343  0.4204  0.2979  0.1570
   46CHL1  H15A 5829   5.120   7.106   9.356  0.3309  0.2017  0.4619
   46CHL1  H15B 5830   5.283   7.024   9.369  0.8978  0.0445 -1.5634
   46CHL1   C16 5831   5.170   6.961   9.192 -0.0562  0.0576 -0.3286
   46CHL1  H16A 5832   5.109   7.035   9.136 -0.0128 -0.4635 -1.0667
   46CHL1  H16B 5833   5.270   6.965   9.143  0.6049 -0.3989  0.9552
   46CHL1   C17 5834   5.087   6.829   9.183  0.1525 -0.2027 -0.3072
   46CHL1   H17 5835   5.156   6.742   9.187 -0.2658 -0.4917  0.8295
   46CHL1   C13 5836   5.002   6.828   9.311  0.2360  0.2132  0.1858
   46CHL1   C18 5837   4.878   6.922   9.291 -0.3317 -0.4219 -0.9148
   46CHL1  H18A 5838   4.815   6.932   9.382  1.0655  2.2135 -0.1787
   46CHL1  H18B 5839   4.918   7.025   9.282  2.3594 -1.3752 -0.4412
   46CHL1  H18C 5840   4.825   6.877   9.205 -1.6783  0.9410 -0.8131
   46CHL1   C12 5841   4.962   6.696   9.367  0.3540  0.5170 -0.4693
   46CHL1  H12A 5842   4.900   6.629   9.304 -0.4166  2.5158 -1.8926
   46CHL1  H12B 5843   5.057   6.643   9.393 -1.0959 -3.6340 -3.1226
   46CHL1   C11 5844   4.895   6.715   9.507  0.0114  0.1161 -1.0836
   46CHL1  H11A 5845   4.799   6.763   9.477 -0.6246 -0.4345  0.0412
   46CHL1  H11B 5846   4.880   6.619   9.561 -1.9595  0.4481 -1.0182
   46CHL1    C9 5847   4.975   6.808   9.606  0.7121  0.7511  0.0482
   46CHL1    H9 5848   5.061   6.740   9.627 -0.2754 -0.4478  0.3041
   46CHL1   C10 5849   4.913   6.841   9.748 -0.1549 -0.3226  1.2886
   46CHL1   C19 5850   4.778   6.904   9.728 -0.3426  0.0830 -0.3780
   46CHL1  H19A 5851   4.722   6.908   9.824  0.4034 -1.6533  0.1467
   46CHL1  H19B 5852   4.784   7.009   9.692  0.7530  0.8443  1.8995
   46CHL1  H19C 5853   4.713   6.853   9.654  0.6263  0.1479 -1.2957
   46CHL1    C1 5854   4.910   6.704   9.824  0.3925 -0.0124 -0.5142
   46CHL1   H1A 5855   4.848   6.635   9.762  0.0254  0.7486 -1.0016
   46CHL1   H1B 5856   5.012   6.662   9.824 -0.4325 -2.1158 -1.5534
   46CHL1    C2 5857   4.868   6.707   9.971  0.0489  0.5163 -0.7813
   46CHL1   H2A 5858   4.864   6.606  10.017  1.2503 -0.2598 -2.3210
   46CHL1   H2B 5859   4.759   6.728   9.967  0.0174  0.9569  1.7010
   46CHL1   C20 5860   5.016   6.812   9.045  0.7581 -0.4095  0.9616
   46CHL1   H20 5861   4.948   6.900   9.046 -1.5359 -2.1322  0.4317
   46CHL1   C21 5862   4.940   6.677   9.041  0.2092 -0.1520 -0.2676
   46CHL1  H21A 5863   4.904   6.654   8.939  0.8018 -0.2565 -0.4543
   46CHL1  H21B 5864   4.848   6.681   9.104  0.0620  1.5653 -0.5721
   46CHL1  H21C 5865   4.995   6.592   9.088  1.6027  0.0980 -1.4222
   46CHL1   C22 5866   5.112   6.814   8.929 -0.5223 -0.1545 -0.0620
   46CHL1  H22A 5867   5.046   6.805   8.840  0.1247  1.7759 -0.7598
   46CHL1  H22B 5868   5.165   6.911   8.920  0.7221 -0.7565  0.5948
   46CHL1   C23 5869   5.227   6.710   8.926  0.1933 -0.7467  0.1714
   46CHL1  H23A 5870   5.304   6.727   9.004  1.6342 -0.8451 -1.1879
   46CHL1  H23B 5871   5.186   6.607   8.923 -1.6368 -0.0076 -2.4151
   46CHL1   C24 5872   5.312   6.727   8.795 -0.2760  0.3332 -0.6636
   46CHL1  H24A 5873   5.375   6.818   8.801  0.1497 -0.1273  2.7702
   46CHL1  H24B 5874   5.394   6.652   8.804  1.4826  2.3779  0.6922
   46CHL1   C25 5875   5.243   6.697   8.658 -0.4507 -0.0066 -0.0834
   46CHL1   H25 5876   5.134   6.719   8.663 -0.3360  0.4236  0.5213
   46CHL1   C26 5877   5.292   6.796   8.550 -0.2936  0.4896 -0.1775
   46CHL1  H26A 5878   5.268   6.902   8.575  0.6444  1.0804 -1.7175
   46CHL1  H26B 5879   5.402   6.790   8.540 -0.5099 -1.2829 -1.6289
   46CHL1  H26C 5880   5.251   6.771   8.450  0.0029 -1.4570  0.1721
   46CHL1   C27 5881   5.263   6.554   8.601  0.1854 -0.1959 -0.5836
   46CHL1  H27A 5882   5.187   6.516   8.530 -1.1858  0.7498  0.3394
   46CHL1  H27B 5883   5.362   6.544   8.552  0.7023 -0.4007  0.4809
   46CHL1  H27C 5884   5.256   6.486   8.689  0.6647  0.2507 -0.1980
   47CHL1    C3 5885   5.788   3.406  10.099 -0.4855  0.0106  1.1246
   47CHL1    H3 5886   5.892   3.368  10.092 -0.0188  1.5820 -1.0885
   47CHL1    O3 5887   5.762   3.444  10.227  0.4396 -0.3530 -0.0467
   47CHL1   H3' 5888   5.666   3.442  10.232  0.1590  1.7977 -3.0158
   47CHL1    C4 5889   5.749   3.519  10.005 -0.0978  0.5612  0.4512
   47CHL1   H4A 5890   5.645   3.542  10.035 -0.6230 -0.9349 -0.1648
   47CHL1   H4B 5891   5.822   3.602  10.023  1.2109 -0.3844 -0.3710
   47CHL1    C5 5892   5.749   3.483   9.857 -0.0801  0.4096  0.5028
   47CHL1    C6 5893   5.822   3.559   9.769  0.3550  0.1048 -0.6604
   47CHL1    H6 5894   5.871   3.648   9.812  1.9845 -1.9902  2.0363
   47CHL1    C7 5895   5.846   3.534   9.620  0.3674  0.2064  0.3561
   47CHL1   H7A 5896   5.837   3.624   9.556  1.9386  0.4480  0.4496
   47CHL1   H7B 5897   5.950   3.493   9.615 -0.5817 -2.1472 -1.2660
   47CHL1    C8 5898   5.751   3.415   9.578 -0.8945 -0.2202 -0.2424
   47CHL1    H8 5899   5.646   3.449   9.569 -0.6128  1.0163  1.0459
   47CHL1   C14 5900   5.784   3.351   9.443 -0.3376 -0.3481 -0.5444
   47CHL1   H14 5901   5.876   3.294   9.465 -0.4528 -0.5183 -0.4994
   47CHL1   C15 5902   5.829   3.445   9.329 -0.5552 -0.9110 -0.3262
   47CHL1  H15A 5903   5.762   3.534   9.329  0.1926 -0.3025  2.4526
   47CHL1  H15B 5904   5.933   3.483   9.332 -0.6751 -0.5548 -0.7228
   47CHL1   C16 5905   5.815   3.357   9.204 -0.4294  0.7029 -0.3825
   47CHL1  H16A 5906   5.742   3.408   9.137  0.5189  0.3109 -1.7344
   47CHL1  H16B 5907   5.906   3.355   9.140  1.2753 -3.1186  1.9760
   47CHL1   C17 5908   5.758   3.221   9.251  0.7135  0.1015 -0.6381
   47CHL1   H17 5909   5.848   3.170   9.291 -0.7648 -0.9841  1.3801
   47CHL1   C13 5910   5.687   3.248   9.384  0.2570 -0.0390  1.4164
   47CHL1   C18 5911   5.541   3.313   9.364 -1.1587 -0.5296 -0.2486
   47CHL1  H18A 5912   5.505   3.358   9.459  1.9849  0.4280  0.5527
   47CHL1  H18B 5913   5.554   3.398   9.294  1.0989 -1.8442 -1.4764
   47CHL1  H18C 5914   5.477   3.231   9.326 -1.8961 -0.0109 -0.1409
   47CHL1   C12 5915   5.681   3.136   9.487  0.2975  1.3765 -0.2504
   47CHL1  H12A 5916   5.613   3.054   9.453  0.4377  0.5493  1.4377
   47CHL1  H12B 5917   5.784   3.095   9.496  0.1749  0.9442 -0.7365
   47CHL1   C11 5918   5.644   3.189   9.626  0.2645  0.9320 -0.0842
   47CHL1  H11A 5919   5.542   3.232   9.619  1.0779  2.6376 -1.5571
   47CHL1  H11B 5920   5.641   3.095   9.685  2.0430  1.0131  0.1476
   47CHL1    C9 5921   5.736   3.298   9.673 -0.0512 -0.5309 -0.1588
   47CHL1    H9 5922   5.836   3.252   9.690  0.5729  0.0514 -2.0692
   47CHL1   C10 5923   5.689   3.351   9.815  0.5793  0.4725 -0.1274
   47CHL1   C19 5924   5.541   3.381   9.817 -0.1917  0.1598  0.0138
   47CHL1  H19A 5925   5.508   3.424   9.914 -0.1939 -0.1211  0.1383
   47CHL1  H19B 5926   5.517   3.449   9.732  1.6902  1.4698  0.4968
   47CHL1  H19C 5927   5.488   3.283   9.821  1.0710 -0.4474  2.1154
   47CHL1    C1 5928   5.707   3.237   9.919  0.3836 -0.6502 -0.2115
   47CHL1   H1A 5929   5.631   3.161   9.889 -0.6621 -0.1695  1.1943
   47CHL1   H1B 5930   5.807   3.188   9.911  0.6812  0.0257 -0.6060
   47CHL1    C2 5931   5.695   3.284  10.066  0.2259  0.1314  0.3822
   47CHL1   H2A 5932   5.722   3.202  10.136 -0.2111  0.0670  0.4743
   47CHL1   H2B 5933   5.588   3.306  10.086  0.3360  0.8709  0.1525
   47CHL1   C20 5934   5.677   3.132   9.149 -0.1352  0.4519 -0.9768
   47CHL1   H20 5935   5.607   3.061   9.199  2.6232 -1.2696  0.5289
   47CHL1   C21 5936   5.793   3.046   9.075  0.1790  0.2636 -0.4850
   47CHL1  H21A 5937   5.837   2.973   9.146 -1.7614 -2.3946 -1.8966
   47CHL1  H21B 5938   5.874   3.110   9.035 -0.5982  1.2561 -0.5021
   47CHL1  H21C 5939   5.747   2.994   8.988  0.6585  0.3986 -0.8148
   47CHL1   C22 5940   5.597   3.215   9.051 -0.5288  0.3568 -0.5124
   47CHL1  H22A 5941   5.529   3.282   9.108 -0.1216 -0.4825  1.0116
   47CHL1  H22B 5942   5.663   3.289   9.001  0.4218 -2.0942 -3.0509
   47CHL1   C23 5943   5.524   3.147   8.939  0.0611  0.0001  0.1408
   47CHL1  H23A 5944   5.575   3.060   8.894 -0.7967 -0.3350 -0.1995
   47CHL1  H23B 5945   5.428   3.109   8.980 -0.0915  0.2609  0.0214
   47CHL1   C24 5946   5.486   3.245   8.827 -0.2115  0.0483 -0.0392
   47CHL1  H24A 5947   5.456   3.335   8.885 -1.2830 -0.7019  0.6006
   47CHL1  H24B 5948   5.570   3.275   8.761 -0.8477  0.5077 -0.6462
   47CHL1   C25 5949   5.366   3.209   8.738  0.2785 -0.1940  0.4070
   47CHL1   H25 5950   5.285   3.172   8.805 -0.8171 -1.1959 -1.4220
   47CHL1   C26 5951   5.321   3.332   8.661 -0.0858  0.2824 -0.1139
   47CHL1  H26A 5952   5.237   3.307   8.593 -0.7932 -0.6338  1.0780
   47CHL1  H26B 5953   5.408   3.369   8.602 -2.1277  3.2594 -1.3510
   47CHL1  H26C 5954   5.293   3.417   8.726  0.3686 -0.5625  1.2241
   47CHL1   C27 5955   5.403   3.096   8.645 -0.4057  0.7080 -0.1127
   47CHL1  H27A 5956   5.451   3.023   8.713 -0.1963  0.6557 -0.3187
   47CHL1  H27B 5957   5.309   3.064   8.596  0.6193  0.8512 -2.2070
   47CHL1  H27C 5958   5.478   3.122   8.568 -0.2748 -0.9675 -0.5601
   48CHL1    C3 5959   6.182   4.615  10.184  0.5706  0.3160 -0.1548
   48CHL1    H3 5960   6.110   4.693  10.154  1.5117  1.5049  0.6259
   48CHL1    O3 5961   6.202   4.615  10.325 -0.1150 -0.1529 -0.1372
   48CHL1   H3' 5962   6.244   4.532  10.347  0.6508  0.8342  2.4229
   48CHL1    C4 5963   6.149   4.477  10.128 -0.7072 -0.5797 -0.2853
   48CHL1   H4A 5964   6.199   4.388  10.172 -1.0813 -0.4395  0.4281
   48CHL1   H4B 5965   6.045   4.460  10.164 -0.2893 -0.5914  0.9090
   48CHL1    C5 5966   6.134   4.466   9.976 -0.1074 -0.0271 -0.1716
   48CHL1    C6 5967   6.021   4.423   9.919 -0.1839  0.1011  0.6028
   48CHL1    H6 5968   5.940   4.374   9.974  0.0202 -2.2516 -1.1379
   48CHL1    C7 5969   6.011   4.426   9.763 -0.1970  0.5038  0.4004
   48CHL1   H7A 5970   5.979   4.329   9.720  0.5969  0.0814  0.7512
   48CHL1   H7B 5971   5.936   4.503   9.735 -2.2875 -1.2406  1.0752
   48CHL1    C8 5972   6.140   4.460   9.686  0.1597  0.6646  0.1192
   48CHL1    H8 5973   6.196   4.364   9.687 -0.6508  0.1775 -0.1610
   48CHL1   C14 5974   6.112   4.510   9.540  0.0391 -0.0138 -0.0157
   48CHL1   H14 5975   6.068   4.612   9.540  2.7303  1.2132  1.1124
   48CHL1   C15 5976   6.020   4.433   9.450 -0.0888  0.4697 -0.2113
   48CHL1  H15A 5977   6.047   4.326   9.458  1.3857  0.9108  1.0913
   48CHL1  H15B 5978   5.911   4.454   9.450  0.0782  1.3873 -0.4575
   48CHL1   C16 5979   6.066   4.464   9.303 -0.1181 -0.0117 -0.3639
   48CHL1  H16A 5980   6.084   4.379   9.233  2.9429 -0.8403  1.3393
   48CHL1  H16B 5981   5.988   4.531   9.260 -0.1136  0.4739  0.3686
   48CHL1   C17 5982   6.194   4.551   9.313  0.3280 -0.0219 -0.0218
   48CHL1   H17 5983   6.159   4.655   9.329 -0.0155  0.2540 -2.4069
   48CHL1   C13 5984   6.246   4.521   9.460 -0.3232  0.5608 -0.2413
   48CHL1   C18 5985   6.320   4.386   9.464 -0.4969  0.7699  0.5139
   48CHL1  H18A 5986   6.352   4.343   9.561 -0.1952 -1.9058 -0.7454
   48CHL1  H18B 5987   6.258   4.303   9.423 -0.2304 -0.9383  3.4266
   48CHL1  H18C 5988   6.409   4.382   9.398 -1.4138 -1.9817 -0.6380
   48CHL1   C12 5989   6.333   4.630   9.527  0.5818 -0.3163 -0.2683
   48CHL1  H12A 5990   6.432   4.635   9.476  0.1437  0.1169 -1.0987
   48CHL1  H12B 5991   6.276   4.725   9.535  0.4450 -0.3983 -0.2658
   48CHL1   C11 5992   6.365   4.596   9.675 -0.1866  0.1610 -0.0957
   48CHL1  H11A 5993   6.438   4.512   9.678  0.7633  1.0056  1.8388
   48CHL1  H11B 5994   6.424   4.679   9.721 -1.1019  0.7158  0.0917
   48CHL1    C9 5995   6.228   4.565   9.752 -0.2581 -0.5997  0.1683
   48CHL1    H9 5996   6.161   4.654   9.750  0.3578 -0.1540 -0.8420
   48CHL1   C10 5997   6.251   4.531   9.904 -0.0208  0.0161  0.1875
   48CHL1   C19 5998   6.375   4.434   9.916 -0.3762  0.0225  0.4658
   48CHL1  H19A 5999   6.361   4.368   9.828  1.2223 -0.7652  0.7908
   48CHL1  H19B 6000   6.472   4.488   9.910  0.3090 -1.3691 -1.2028
   48CHL1  H19C 6001   6.381   4.375  10.009 -3.5365 -0.0837  0.6814
   48CHL1    C1 6002   6.294   4.668   9.972  0.2981  0.0500  0.1503
   48CHL1   H1A 6003   6.394   4.694   9.932  0.1408  0.2022 -0.1462
   48CHL1   H1B 6004   6.227   4.752   9.944  1.0409  0.3261 -0.8282
   48CHL1    C2 6005   6.318   4.646  10.119 -0.4426  0.1212 -0.3443
   48CHL1   H2A 6006   6.361   4.736  10.167  0.5930 -0.3458 -0.3837
   48CHL1   H2B 6007   6.390   4.565  10.142 -0.6506 -0.3613 -1.3551
   48CHL1   C20 6008   6.298   4.549   9.208  0.6596  0.6921 -0.2172
   48CHL1   H20 6009   6.400   4.569   9.247  0.8415  0.6834 -0.6833
   48CHL1   C21 6010   6.279   4.668   9.113 -0.3057  0.0670 -0.0013
   48CHL1  H21A 6011   6.180   4.661   9.063  0.0676  0.8752 -0.8762
   48CHL1  H21B 6012   6.365   4.678   9.043  0.2339  0.0160  0.6535
   48CHL1  H21C 6013   6.276   4.757   9.179 -1.0808 -0.3413  0.5142
   48CHL1   C22 6014   6.310   4.413   9.129  0.1453  0.6091 -0.3472
   48CHL1  H22A 6015   6.305   4.329   9.202  0.2972  1.9265  1.1912
   48CHL1  H22B 6016   6.219   4.403   9.066 -0.7608  1.1734  0.8585
   48CHL1   C23 6017   6.452   4.411   9.057  0.5201 -0.7545 -0.3754
   48CHL1  H23A 6018   6.453   4.480   8.970  2.6423  0.1239  0.3091
   48CHL1  H23B 6019   6.533   4.446   9.125 -1.9391  0.3211  2.1381
   48CHL1   C24 6020   6.487   4.274   9.009 -0.4806 -0.0221  0.5072
   48CHL1  H24A 6021   6.463   4.194   9.081  1.5501  0.5530  1.8646
   48CHL1  H24B 6022   6.440   4.255   8.910  2.3698  0.6850 -1.0576
   48CHL1   C25 6023   6.638   4.241   8.998 -0.6822 -0.2651 -0.1077
   48CHL1   H25 6024   6.684   4.261   9.098 -1.0039  0.3436 -0.0814
   48CHL1   C26 6025   6.669   4.093   8.963  0.2667  0.0321 -0.5402
   48CHL1  H26A 6026   6.769   4.074   8.918  0.8214 -1.0308  1.0847
   48CHL1  H26B 6027   6.668   4.046   9.064 -0.4101 -1.8946 -1.4231
   48CHL1  H26C 6028   6.588   4.043   8.908 -1.2700 -0.1814  1.8531
   48CHL1   C27 6029   6.715   4.335   8.901  0.5747  0.0399 -0.2037
   48CHL1  H27A 6030   6.688   4.436   8.938 -0.5377 -0.1892 -0.3639
   48CHL1  H27B 6031   6.824   4.316   8.898  0.4978 -0.9744  2.2598
   48CHL1  H27C 6032   6.666   4.337   8.801  0.1104  2.0306  0.0424
   49CHL1    C3 6033   4.735   6.422  10.226 -0.2620  0.5214 -0.4372
   49CHL1    H3 6034   4.796   6.513  10.204 -1.4899  2.1201  2.5023
   49CHL1    O3 6035   4.738   6.398  10.366 -0.4226  0.3303 -0.4665
   49CHL1   H3' 6036   4.654   6.355  10.380 -0.1090 -0.8342 -1.9553
   49CHL1    C4 6037   4.593   6.423  10.175 -0.3860  0.5384 -0.3399
   49CHL1   H4A 6038   4.536   6.336  10.214 -0.3895  0.2143 -1.0423
   49CHL1   H4B 6039   4.555   6.515  10.224  1.0735  1.2403 -0.4982
   49CHL1    C5 6040   4.581   6.440  10.026  0.2756 -1.0141  0.3720
   49CHL1    C6 6041   4.531   6.555   9.967 -0.1058 -0.0901 -0.2993
   49CHL1    H6 6042   4.484   6.633  10.028 -1.3618 -2.5667  1.9803
   49CHL1    C7 6043   4.530   6.582   9.814 -0.9722 -0.8844  0.1422
   49CHL1   H7A 6044   4.431   6.621   9.783 -0.8376  0.9700  1.8972
   49CHL1   H7B 6045   4.605   6.657   9.783 -0.6822 -0.9355  0.7075
   49CHL1    C8 6046   4.559   6.451   9.734 -0.5441 -0.1890  1.0763
   49CHL1    H8 6047   4.471   6.382   9.732  0.8522 -1.9919 -0.2894
   49CHL1   C14 6048   4.583   6.484   9.586  0.8812  0.1808  0.2608
   49CHL1   H14 6049   4.670   6.551   9.572  0.6640  0.2202 -0.9465
   49CHL1   C15 6050   4.470   6.568   9.503 -0.0034 -0.1011  0.0783
   49CHL1  H15A 6051   4.366   6.532   9.515 -0.6350  1.3029 -1.0765
   49CHL1  H15B 6052   4.479   6.676   9.525  2.6808 -0.6202  1.8933
   49CHL1   C16 6053   4.502   6.541   9.358  0.1158 -0.4645  0.6775
   49CHL1  H16A 6054   4.415   6.490   9.312 -0.1605  0.8096 -0.2312
   49CHL1  H16B 6055   4.528   6.632   9.300  1.4884 -0.6126  1.0387
   49CHL1   C17 6056   4.625   6.444   9.358 -0.1449 -0.6022  1.0256
   49CHL1   H17 6057   4.714   6.510   9.355 -1.1058  0.6361 -1.1385
   49CHL1   C13 6058   4.612   6.368   9.492  0.7007  0.1406 -0.0012
   49CHL1   C18 6059   4.488   6.272   9.488 -0.5132  0.7822  0.1394
   49CHL1  H18A 6060   4.499   6.187   9.559  3.1503  0.9806 -0.1201
   49CHL1  H18B 6061   4.385   6.309   9.510 -2.0301 -2.0876 -1.7871
   49CHL1  H18C 6062   4.467   6.225   9.389  1.6428  0.5457 -0.2372
   49CHL1   C12 6063   4.736   6.288   9.547  0.0557 -0.3959  0.0117
   49CHL1  H12A 6064   4.759   6.195   9.492  1.3129 -0.6709  0.9737
   49CHL1  H12B 6065   4.822   6.359   9.543 -0.3311  0.0049 -1.4069
   49CHL1   C11 6066   4.730   6.258   9.698 -0.1284  0.0911 -1.0547
   49CHL1  H11A 6067   4.656   6.175   9.708  0.3413 -0.2337 -0.1619
   49CHL1  H11B 6068   4.826   6.223   9.742 -1.4500 -2.0289  0.2517
   49CHL1    C9 6069   4.674   6.368   9.795  0.0708 -0.2951 -0.0464
   49CHL1    H9 6070   4.754   6.444   9.792 -0.0984 -0.0803  0.8483
   49CHL1   C10 6071   4.650   6.334   9.944  0.4595 -0.8906  0.1856
   49CHL1   C19 6072   4.561   6.214   9.952 -0.0314  0.1871 -0.2185
   49CHL1  H19A 6073   4.462   6.237   9.909 -0.8651 -0.7737  1.1217
   49CHL1  H19B 6074   4.599   6.125   9.897  1.0793 -0.3358  1.3274
   49CHL1  H19C 6075   4.539   6.178  10.055 -1.0253  3.2530  0.6886
   49CHL1    C1 6076   4.792   6.301  10.014 -0.6118  0.1658  0.6846
   49CHL1   H1A 6077   4.824   6.204   9.970 -1.0033  0.4225 -0.1743
   49CHL1   H1B 6078   4.857   6.385   9.981  0.5764  0.0329  2.5896
   49CHL1    C2 6079   4.799   6.296  10.163 -0.0256 -0.6420 -0.0116
   49CHL1   H2A 6080   4.904   6.288  10.197  0.9321  2.9791 -1.7991
   49CHL1   H2B 6081   4.747   6.208  10.204  0.3587 -1.2202 -0.7555
   49CHL1   C20 6082   4.628   6.367   9.225 -0.2241  0.6341  0.8364
   49CHL1   H20 6083   4.535   6.307   9.210 -0.2799  0.6841  0.9857
   49CHL1   C21 6084   4.754   6.269   9.227  0.3263 -0.4790  0.0728
   49CHL1  H21A 6085   4.738   6.188   9.301  0.7219 -0.0187  0.6626
   49CHL1  H21B 6086   4.849   6.321   9.250  0.8890 -2.3791  2.2514
   49CHL1  H21C 6087   4.771   6.238   9.121  0.6436 -0.7908  0.2133
   49CHL1   C22 6088   4.630   6.457   9.100 -0.2397 -0.2602  0.3184
   49CHL1  H22A 6089   4.568   6.547   9.122  0.9302  0.4201  0.9171
   49CHL1  H22B 6090   4.731   6.499   9.080 -0.2720 -0.5201 -0.3865
   49CHL1   C23 6091   4.557   6.393   8.988  0.4458 -0.5061 -0.0122
   49CHL1  H23A 6092   4.605   6.295   8.967 -0.6129 -1.1528  0.4946
   49CHL1  H23B 6093   4.454   6.377   9.026 -0.1297 -2.6371 -2.3042
   49CHL1   C24 6094   4.564   6.483   8.864  0.1148 -0.0340 -0.8891
   49CHL1  H24A 6095   4.502   6.574   8.881  0.0450 -0.1604 -0.4660
   49CHL1  H24B 6096   4.669   6.513   8.847  0.2921  1.6502  2.6453
   49CHL1   C25 6097   4.520   6.418   8.730  0.2132 -1.1908 -0.8573
   49CHL1   H25 6098   4.574   6.321   8.734  1.2401 -0.6929 -2.3106
   49CHL1   C26 6099   4.373   6.389   8.720 -0.1938 -0.3789  0.3693
   49CHL1  H26A 6100   4.369   6.301   8.652  1.2008  0.8009 -1.3149
   49CHL1  H26B 6101   4.313   6.367   8.810 -0.6178  0.4911  0.3035
   49CHL1  H26C 6102   4.318   6.480   8.686 -1.4315 -1.2392  0.0307
   49CHL1   C27 6103   4.558   6.485   8.597  0.1714  0.8046  0.2970
   49CHL1  H27A 6104   4.521   6.589   8.594  0.6113  0.9588  0.2812
   49CHL1  H27B 6105   4.666   6.477   8.571  0.4969  3.5715  0.7094
   49CHL1  H27C 6106   4.504   6.424   8.521  0.6816 -1.1888  1.4978
   50CHL1    C3 6107   1.213   1.425  10.251 -0.4438  0.4991  0.0465
   50CHL1    H3 6108   1.311   1.373  10.239  0.9815  2.0532  4.1858
   50CHL1    O3 6109   1.206   1.471  10.388  0.0303  0.1996 -0.5959
   50CHL1   H3' 6110   1.279   1.439  10.442  0.2569 -0.7816 -1.4805
   50CHL1    C4 6111   1.215   1.533  10.149  0.0890  0.5139  0.6029
   50CHL1   H4A 6112   1.127   1.594  10.177  0.6928  1.1980  1.0249
   50CHL1   H4B 6113   1.305   1.595  10.169 -0.3101  0.8126  1.4877
   50CHL1    C5 6114   1.211   1.476  10.008 -0.4762  0.2535  0.3387
   50CHL1    C6 6115   1.311   1.517   9.922 -0.3707 -0.6185  0.2001
   50CHL1    H6 6116   1.388   1.585   9.962  0.2509 -0.7709 -0.7330
   50CHL1    C7 6117   1.334   1.461   9.783  0.2995 -0.2797  0.1387
   50CHL1   H7A 6118   1.375   1.537   9.713  1.7448 -0.3511  0.8815
   50CHL1   H7B 6119   1.410   1.380   9.790  0.9824 -0.1202 -4.4488
   50CHL1    C8 6120   1.206   1.389   9.727  0.2402 -0.3721  0.0234
   50CHL1    H8 6121   1.131   1.470   9.716  0.0027 -0.6379 -0.3283
   50CHL1   C14 6122   1.240   1.319   9.595 -0.4571 -0.0907 -0.4694
   50CHL1   H14 6123   1.324   1.249   9.618  0.8600  1.6634  0.2283
   50CHL1   C15 6124   1.280   1.403   9.478 -0.0771 -0.4074 -0.1902
   50CHL1  H15A 6125   1.238   1.506   9.479  0.4415 -0.2099  2.6042
   50CHL1  H15B 6126   1.390   1.418   9.481  0.0060 -1.1095  0.4086
   50CHL1   C16 6127   1.232   1.328   9.353 -0.1703  0.7556  0.1494
   50CHL1  H16A 6128   1.162   1.392   9.295  0.3428 -0.1402 -1.4863
   50CHL1  H16B 6129   1.319   1.296   9.292 -1.9547  0.5564 -2.3792
   50CHL1   C17 6130   1.168   1.197   9.410 -0.0662  0.3746  0.1992
   50CHL1   H17 6131   1.256   1.130   9.423 -0.5792 -0.2025  0.7205
   50CHL1   C13 6132   1.119   1.241   9.546  0.2337  0.5730  0.2051
   50CHL1   C18 6133   0.995   1.341   9.526  0.0901 -0.5572 -0.4887
   50CHL1  H18A 6134   1.023   1.438   9.479  1.1108 -1.3511 -1.5286
   50CHL1  H18B 6135   0.911   1.302   9.465 -0.6095  3.2593 -2.1399
   50CHL1  H18C 6136   0.965   1.376   9.627  0.4193  0.2675 -0.6709
   50CHL1   C12 6137   1.077   1.126   9.645 -0.0022 -0.0372 -0.3484
   50CHL1  H12A 6138   0.983   1.078   9.610  0.4486 -0.5933 -0.8296
   50CHL1  H12B 6139   1.153   1.045   9.654 -1.7940 -1.7713 -0.5407
   50CHL1   C11 6140   1.054   1.182   9.790  0.9295  0.5940  0.7460
   50CHL1  H11A 6141   0.955   1.234   9.786  1.5490  1.8204  1.1806
   50CHL1  H11B 6142   1.045   1.103   9.868  1.1446 -0.5578 -0.3760
   50CHL1    C9 6143   1.151   1.293   9.837  0.6303  0.1319 -0.6997
   50CHL1    H9 6144   1.243   1.235   9.860  0.7445  0.8179  0.6549
   50CHL1   C10 6145   1.109   1.368   9.967  1.0431 -0.2164 -0.2214
   50CHL1   C19 6146   0.966   1.429   9.945  0.4541  0.1500 -0.1580
   50CHL1  H19A 6147   0.889   1.349   9.936  1.7535 -1.0790 -0.3817
   50CHL1  H19B 6148   0.953   1.503  10.027 -0.7451  0.5766 -0.7167
   50CHL1  H19C 6149   0.956   1.491   9.853  1.3191  0.2575 -0.1792
   50CHL1    C1 6150   1.120   1.270  10.085  0.6175  0.0821 -0.3497
   50CHL1   H1A 6151   1.045   1.189  10.071  0.5529 -0.0592  0.7659
   50CHL1   H1B 6152   1.210   1.206  10.080 -1.0491 -2.3980  0.1622
   50CHL1    C2 6153   1.105   1.324  10.230 -0.0334 -0.5244 -0.7723
   50CHL1   H2A 6154   1.128   1.237  10.296 -0.2425 -2.0982 -2.7151
   50CHL1   H2B 6155   1.003   1.363  10.249  0.6925  0.2039  1.9109
   50CHL1   C20 6156   1.073   1.114   9.321 -0.0515 -0.9505 -0.0953
   50CHL1   H20 6157   0.968   1.137   9.349  0.1066  0.9504 -1.0582
   50CHL1   C21 6158   1.095   0.960   9.349 -0.6423  0.1541 -0.5435
   50CHL1  H21A 6159   1.203   0.939   9.337 -0.9279 -0.2480 -2.6105
   50CHL1  H21B 6160   1.041   0.906   9.268 -2.4450  1.6375 -0.3827
   50CHL1  H21C 6161   1.049   0.914   9.439  0.3795 -2.0944 -1.1371
   50CHL1   C22 6162   1.082   1.145   9.170  0.0696 -0.1738  1.0549
   50CHL1  H22A 6163   1.111   1.252   9.159  1.1158 -0.3639  1.8354
   50CHL1  H22B 6164   1.167   1.087   9.128 -1.6727 -1.8813 -0.1264
   50CHL1   C23 6165   0.964   1.102   9.080  0.0852 -0.6862 -0.1433
   50CHL1  H23A 6166   0.939   0.994   9.088  1.1966 -1.0054 -0.9244
   50CHL1  H23B 6167   0.871   1.152   9.115  0.7245  0.8543 -0.6328
   50CHL1   C24 6168   0.987   1.150   8.937  0.1152  0.2282  0.5423
   50CHL1  H24A 6169   0.981   1.261   8.932  0.2299  0.2410  0.6738
   50CHL1  H24B 6170   1.089   1.121   8.904 -0.5255  0.3944 -1.6943
   50CHL1   C25 6171   0.887   1.090   8.835  1.2787  0.3735  0.2641
   50CHL1   H25 6172   0.885   0.983   8.866  2.4536  0.5463  0.9770
   50CHL1   C26 6173   0.752   1.157   8.847 -0.0105  0.1589 -0.4705
   50CHL1  H26A 6174   0.717   1.146   8.952 -0.4668  2.4993 -0.3617
   50CHL1  H26B 6175   0.755   1.265   8.823  0.8802 -0.0472 -1.2974
   50CHL1  H26C 6176   0.670   1.109   8.789 -1.4882  1.4518  0.5127
   50CHL1   C27 6177   0.949   1.097   8.691  0.0207  0.2478  0.1297
   50CHL1  H27A 6178   0.993   1.197   8.672  0.0595  0.2521  0.2372
   50CHL1  H27B 6179   1.023   1.014   8.682 -1.2513 -0.6932 -1.9831
   50CHL1  H27C 6180   0.869   1.083   8.616 -1.3493 -0.4670  1.6738
   51CHL1    C3 6181   2.276   4.280  10.246 -0.1262  0.7825 -0.4920
   51CHL1    H3 6182   2.376   4.260  10.202 -0.3582 -2.4252  0.3146
   51CHL1    O3 6183   2.254   4.193  10.347 -0.3237 -0.0121 -0.1623
   51CHL1   H3' 6184   2.167   4.218  10.379  0.5400  1.1274  1.3486
   51CHL1    C4 6185   2.277   4.422  10.301 -0.2162 -0.5636  0.8081
   51CHL1   H4A 6186   2.196   4.443  10.374 -0.7446  1.5272 -0.3773
   51CHL1   H4B 6187   2.364   4.440  10.369  0.8394 -0.5345 -0.5332
   51CHL1    C5 6188   2.297   4.522  10.185 -0.2096  0.0949 -0.5193
   51CHL1    C6 6189   2.401   4.612  10.182  0.4955  0.7717 -0.0980
   51CHL1    H6 6190   2.475   4.614  10.263  0.1238  3.2537  0.2230
   51CHL1    C7 6191   2.429   4.709  10.071  0.0789  0.1751  0.1768
   51CHL1   H7A 6192   2.469   4.807  10.105 -2.0985  0.6168  1.5788
   51CHL1   H7B 6193   2.507   4.664  10.007  0.2586  0.3286  0.2879
   51CHL1    C8 6194   2.315   4.726   9.969 -0.0559  0.1280  1.2026
   51CHL1    H8 6195   2.257   4.811  10.011  1.3771  1.9629 -0.4839
   51CHL1   C14 6196   2.380   4.776   9.839 -0.4918  0.1228  0.0780
   51CHL1   H14 6197   2.447   4.694   9.805 -0.2543  0.0852  0.6244
   51CHL1   C15 6198   2.480   4.890   9.844 -0.1974 -0.6515 -0.1589
   51CHL1  H15A 6199   2.431   4.978   9.888  2.3185  0.8633 -0.2669
   51CHL1  H15B 6200   2.577   4.868   9.895 -1.3147 -1.5646  1.6087
   51CHL1   C16 6201   2.494   4.919   9.692  0.0818 -0.0352  0.3386
   51CHL1  H16A 6202   2.484   5.029   9.688  0.5016 -0.0563 -1.3104
   51CHL1  H16B 6203   2.588   4.892   9.640  0.1955 -0.9892  1.0262
   51CHL1   C17 6204   2.375   4.859   9.614 -0.2372  0.3534 -0.1901
   51CHL1   H17 6205   2.414   4.768   9.563 -0.7501 -0.1299  0.2837
   51CHL1   C13 6206   2.282   4.806   9.731  0.2728  0.0538  0.1241
   51CHL1   C18 6207   2.177   4.917   9.763 -0.0449  0.0944 -0.7340
   51CHL1  H18A 6208   2.108   4.938   9.677  3.4671  0.1346 -3.6611
   51CHL1  H18B 6209   2.111   4.899   9.850 -0.6879  0.9525 -1.0291
   51CHL1  H18C 6210   2.223   5.017   9.778  2.7196 -1.2235 -0.1363
   51CHL1   C12 6211   2.193   4.678   9.709  0.5948  0.7432  0.2723
   51CHL1  H12A 6212   2.120   4.699   9.628  0.4662  2.1899  0.7494
   51CHL1  H12B 6213   2.266   4.604   9.669 -1.5011 -0.7213 -0.9981
   51CHL1   C11 6214   2.132   4.622   9.838 -0.1409 -0.5107  0.0207
   51CHL1  H11A 6215   2.066   4.698   9.885  1.8894  0.9527  0.6007
   51CHL1  H11B 6216   2.079   4.526   9.822 -0.7214 -0.2755  0.5347
   51CHL1    C9 6217   2.247   4.591   9.935  0.0783 -0.3819 -0.8828
   51CHL1    H9 6218   2.324   4.524   9.892  0.7461  0.8258 -1.6048
   51CHL1   C10 6219   2.203   4.510  10.066 -0.3583  0.8250  0.0336
   51CHL1   C19 6220   2.066   4.563  10.109 -1.0485 -0.3541  0.0705
   51CHL1  H19A 6221   1.981   4.548  10.039 -2.1611 -0.5932  1.4593
   51CHL1  H19B 6222   2.043   4.515  10.206 -3.7517  0.6678 -0.0235
   51CHL1  H19C 6223   2.059   4.674  10.115 -0.0490 -0.2332 -0.8584
   51CHL1    C1 6224   2.183   4.356  10.029  0.4469  0.6576 -0.4628
   51CHL1   H1A 6225   2.097   4.356   9.958  1.3087 -1.3757 -1.5367
   51CHL1   H1B 6226   2.270   4.317   9.971  0.4027 -1.0847  0.6167
   51CHL1    C2 6227   2.171   4.254  10.143  0.0747 -0.3658  0.2783
   51CHL1   H2A 6228   2.158   4.150  10.104 -1.1409 -0.2802  0.4247
   51CHL1   H2B 6229   2.067   4.276  10.175  0.8007  3.0969  0.4922
   51CHL1   C20 6230   2.324   4.958   9.507 -0.3969  0.5226 -0.0005
   51CHL1   H20 6231   2.279   5.052   9.544 -0.6238  1.3118 -2.1781
   51CHL1   C21 6232   2.220   4.891   9.417  1.0334  1.2133 -0.0330
   51CHL1  H21A 6233   2.271   4.799   9.381  1.7533  1.8780 -0.7026
   51CHL1  H21B 6234   2.191   4.950   9.327 -1.8871 -1.4010 -0.9282
   51CHL1  H21C 6235   2.128   4.858   9.471  0.0733 -0.6490 -2.6679
   51CHL1   C22 6236   2.442   5.011   9.416 -1.1631  0.9810  0.1704
   51CHL1  H22A 6237   2.394   5.081   9.344 -0.7831  0.1634 -0.8918
   51CHL1  H22B 6238   2.514   5.073   9.473  0.8324  0.2665 -1.4958
   51CHL1   C23 6239   2.517   4.898   9.342  0.3783  0.0686 -0.2476
   51CHL1  H23A 6240   2.571   4.840   9.421 -0.6135 -0.2044  0.2403
   51CHL1  H23B 6241   2.462   4.829   9.274  2.5150  0.3819 -2.3658
   51CHL1   C24 6242   2.635   4.961   9.266  0.2554 -0.0601  0.3771
   51CHL1  H24A 6243   2.596   5.030   9.189  1.1832  0.1731  0.1107
   51CHL1  H24B 6244   2.702   5.025   9.327  0.0070 -0.4277  1.0478
   51CHL1   C25 6245   2.726   4.858   9.192  0.1156 -1.0180 -0.1116
   51CHL1   H25 6246   2.743   4.775   9.263 -0.5555  0.9442  2.3936
   51CHL1   C26 6247   2.660   4.803   9.061  0.8129  0.4954 -0.4506
   51CHL1  H26A 6248   2.566   4.746   9.074  1.8287 -1.0944  0.0998
   51CHL1  H26B 6249   2.632   4.893   9.002  1.4955  1.1942  0.2854
   51CHL1  H26C 6250   2.740   4.735   9.022  1.6059  1.0791  0.1391
   51CHL1   C27 6251   2.859   4.924   9.154  0.0145 -0.4147 -0.0960
   51CHL1  H27A 6252   2.933   4.841   9.149 -1.6568 -1.8745 -1.4420
   51CHL1  H27B 6253   2.858   4.990   9.064  0.1052 -1.2847 -0.7361
   51CHL1  H27C 6254   2.900   4.986   9.236 -1.3589  0.1238  0.1933
   52CHL1    C3 6255   5.935   2.920  10.131  0.2032 -0.0394 -0.3167
   52CHL1    H3 6256   5.830   2.949  10.111  1.0554  2.1358 -1.8182
   52CHL1    O3 6257   5.949   2.949  10.269  0.5269  0.3214 -1.0070
   52CHL1   H3' 6258   5.913   3.038  10.274  0.7033  0.2876  1.0098
   52CHL1    C4 6259   5.953   2.769  10.101 -0.3705 -0.0637 -0.4448
   52CHL1   H4A 6260   6.051   2.744  10.147  0.9028  2.4514 -1.6697
   52CHL1   H4B 6261   5.876   2.709  10.153 -0.8741  0.9256 -0.0225
   52CHL1    C5 6262   5.961   2.735   9.949  0.3845 -0.1017  0.0864
   52CHL1    C6 6263   5.897   2.629   9.893 -0.0914 -0.0779  0.0088
   52CHL1    H6 6264   5.847   2.556   9.959 -2.4314  2.3459  1.0282
   52CHL1    C7 6265   5.908   2.596   9.749  0.0735  0.3415  0.8726
   52CHL1   H7A 6266   5.917   2.486   9.735 -4.2282 -0.0404  0.3871
   52CHL1   H7B 6267   5.811   2.623   9.703  1.2508 -0.7384 -2.4150
   52CHL1    C8 6268   6.022   2.661   9.668  0.5264 -0.3044 -0.6150
   52CHL1    H8 6269   6.108   2.594   9.685 -0.0227 -0.6569  0.8923
   52CHL1   C14 6270   5.987   2.668   9.518 -0.4123 -0.7221  0.0166
   52CHL1   H14 6271   5.896   2.730   9.508  0.8503  1.5293  2.0495
   52CHL1   C15 6272   5.950   2.534   9.455  0.1901  0.3510  0.3449
   52CHL1  H15A 6273   6.004   2.452   9.507 -0.3823  0.5028  1.1979
   52CHL1  H15B 6274   5.840   2.522   9.469  0.0220 -0.9295 -1.9484
   52CHL1   C16 6275   5.971   2.550   9.303  0.2992  0.0320  1.0350
   52CHL1  H16A 6276   6.039   2.471   9.264 -1.7222 -2.8444  3.1650
   52CHL1  H16B 6277   5.871   2.559   9.254  0.9354  1.9647  0.0467
   52CHL1   C17 6278   6.034   2.695   9.288 -0.2400 -0.1606  0.0397
   52CHL1   H17 6279   5.942   2.756   9.272 -1.6145 -0.8682  4.5779
   52CHL1   C13 6280   6.092   2.731   9.429  0.2530 -0.4874 -0.0800
   52CHL1   C18 6281   6.226   2.661   9.441 -0.1314  0.0053 -0.1492
   52CHL1  H18A 6282   6.292   2.693   9.525  1.7681  1.4596 -2.1176
   52CHL1  H18B 6283   6.211   2.553   9.461 -0.5390  0.2271  0.7511
   52CHL1  H18C 6284   6.290   2.682   9.353  0.6119 -1.2250  0.0815
   52CHL1   C12 6285   6.106   2.878   9.469 -0.4365 -0.6125  0.7022
   52CHL1  H12A 6286   6.197   2.924   9.427 -1.6780  0.2601 -1.0906
   52CHL1  H12B 6287   6.023   2.928   9.414  3.7059  1.0019 -4.4490
   52CHL1   C11 6288   6.123   2.888   9.622 -0.1497 -0.1970  0.2093
   52CHL1  H11A 6289   6.230   2.865   9.645 -0.3145 -2.0708 -0.7496
   52CHL1  H11B 6290   6.109   2.995   9.648  0.0129 -0.3761  1.0688
   52CHL1    C9 6291   6.030   2.805   9.709  0.0249 -0.1550 -0.1612
   52CHL1    H9 6292   5.931   2.852   9.687  0.0378  0.2245  0.5678
   52CHL1   C10 6293   6.045   2.824   9.860 -0.6313  0.4540  0.0330
   52CHL1   C19 6294   6.192   2.773   9.897  0.7242  0.0739  0.1841
   52CHL1  H19A 6295   6.265   2.837   9.843 -0.9147  1.3103 -0.6430
   52CHL1  H19B 6296   6.205   2.794  10.006 -1.7572 -0.0449  0.5264
   52CHL1  H19C 6297   6.215   2.670   9.864 -0.6492 -0.7859  1.8453
   52CHL1    C1 6298   6.022   2.972   9.901  0.4068  0.0463  0.6270
   52CHL1   H1A 6299   6.100   3.039   9.861 -0.6323  0.9284  0.0304
   52CHL1   H1B 6300   5.920   3.005   9.869  1.1534  2.6123  0.8098
   52CHL1    C2 6301   6.036   3.007  10.052  1.8691  0.6108 -0.7341
   52CHL1   H2A 6302   6.017   3.113  10.079 -1.3033  0.2594 -1.3104
   52CHL1   H2B 6303   6.125   2.956  10.094  0.8101  0.0818  0.9048
   52CHL1   C20 6304   6.112   2.706   9.160 -0.2732  0.4339 -0.5432
   52CHL1   H20 6305   6.204   2.644   9.169 -0.9809 -0.4708  0.5227
   52CHL1   C21 6306   6.152   2.860   9.156  0.2443 -0.0074 -0.5417
   52CHL1  H21A 6307   6.200   2.886   9.059  1.6904  3.0922  0.9483
   52CHL1  H21B 6308   6.236   2.868   9.228  0.3392 -0.0507 -0.6476
   52CHL1  H21C 6309   6.068   2.925   9.188  0.0365  0.2368 -1.5625
   52CHL1   C22 6310   6.043   2.688   9.021  0.0788 -0.0090  0.2028
   52CHL1  H22A 6311   5.966   2.608   9.029 -1.6240  1.7093  1.8377
   52CHL1  H22B 6312   5.974   2.773   9.003  0.5189  0.3885  0.3929
   52CHL1   C23 6313   6.146   2.656   8.910  0.5116 -0.1038  0.0844
   52CHL1  H23A 6314   6.224   2.734   8.897  2.0432 -1.7124 -0.4411
   52CHL1  H23B 6315   6.205   2.566   8.937  0.4328  0.2749  1.5458
   52CHL1   C24 6316   6.074   2.646   8.773 -0.4193 -0.1538  0.8849
   52CHL1  H24A 6317   6.021   2.549   8.783  1.3862 -1.0624  1.9393
   52CHL1  H24B 6318   5.996   2.724   8.763  0.3735  0.3264 -2.0683
   52CHL1   C25 6319   6.164   2.645   8.637 -0.6573  0.6376  0.7127
   52CHL1   H25 6320   6.225   2.552   8.646  1.0822  1.4565 -2.3269
   52CHL1   C26 6321   6.081   2.619   8.513  0.0789  0.4307  0.3801
   52CHL1  H26A 6322   6.138   2.599   8.420 -0.7288  0.6435 -0.1649
   52CHL1  H26B 6323   6.012   2.533   8.529 -1.1326  1.5899  1.4457
   52CHL1  H26C 6324   6.024   2.712   8.495 -1.7442 -0.7752 -0.1866
   52CHL1   C27 6325   6.245   2.770   8.618  0.5909 -0.3508 -0.3097
   52CHL1  H27A 6326   6.302   2.760   8.523  2.4221  0.6838  0.6399
   52CHL1  H27B 6327   6.180   2.860   8.619  2.6930  1.2478 -1.6134
   52CHL1  H27C 6328   6.321   2.788   8.697 -1.3449  0.3503  1.4221
   53CHL1    C3 6329   0.193   2.540  10.072  0.6075  0.0841  0.1805
   53CHL1    H3 6330   0.275   2.466  10.090  1.3029  0.3158 -1.9661
   53CHL1    O3 6331   0.134   2.592  10.197  0.1085 -0.1360 -0.0342
   53CHL1   H3' 6332   0.202   2.584  10.265 -0.2766 -1.1005  0.2355
   53CHL1    C4 6333   0.220   2.659   9.977  0.1368  0.3763 -0.3248
   53CHL1   H4A 6334   0.138   2.733   9.984 -0.4995 -0.4187  0.7911
   53CHL1   H4B 6335   0.302   2.712  10.030 -0.5496  2.9093 -1.7355
   53CHL1    C5 6336   0.253   2.632   9.841  0.2307  0.6364  0.0567
   53CHL1    C6 6337   0.367   2.676   9.785 -0.1920 -0.3091 -0.0036
   53CHL1    H6 6338   0.436   2.739   9.843 -0.3608 -0.2405  0.1243
   53CHL1    C7 6339   0.389   2.661   9.636  0.1281 -0.2533 -0.2155
   53CHL1   H7A 6340   0.417   2.761   9.597 -2.8748  0.4435 -0.6973
   53CHL1   H7B 6341   0.474   2.591   9.619 -0.4112 -0.5599 -1.6859
   53CHL1    C8 6342   0.267   2.609   9.567  0.3009 -0.3284 -0.1373
   53CHL1    H8 6343   0.204   2.700   9.554 -1.7415 -1.1668  3.2863
   53CHL1   C14 6344   0.303   2.576   9.424 -0.2310  0.5387  0.4148
   53CHL1   H14 6345   0.373   2.492   9.439 -1.9980 -0.6243  2.4388
   53CHL1   C15 6346   0.385   2.679   9.336  0.4524  0.6673 -0.2606
   53CHL1  H15A 6347   0.323   2.770   9.353  0.6218  0.9733 -1.2507
   53CHL1  H15B 6348   0.488   2.702   9.371  1.6049 -0.8368 -2.5931
   53CHL1   C16 6349   0.358   2.622   9.196 -0.5956 -0.5627 -0.1957
   53CHL1  H16A 6350   0.319   2.710   9.140 -0.8570  0.0590  0.9189
   53CHL1  H16B 6351   0.455   2.595   9.150 -0.9608  0.2954 -1.5075
   53CHL1   C17 6352   0.250   2.509   9.209  0.5284  0.2280 -0.6022
   53CHL1   H17 6353   0.307   2.414   9.216 -1.9907 -1.3369 -0.2580
   53CHL1   C13 6354   0.184   2.526   9.339  0.8036  0.1812  0.2858
   53CHL1   C18 6355   0.080   2.634   9.329  0.1890  0.7219  0.0290
   53CHL1  H18A 6356   0.122   2.724   9.280 -0.3744  0.6621 -0.5688
   53CHL1  H18B 6357  -0.003   2.586   9.273  1.5004 -0.7006 -0.7175
   53CHL1  H18C 6358   0.034   2.659   9.428 -0.4406 -2.8200  0.7027
   53CHL1   C12 6359   0.130   2.397   9.411  0.2013 -0.2264 -0.3444
   53CHL1  H12A 6360   0.049   2.357   9.346  1.0756 -0.1768 -1.4682
   53CHL1  H12B 6361   0.215   2.326   9.403 -0.0462 -0.3616 -1.9414
   53CHL1   C11 6362   0.093   2.426   9.554  0.2036 -0.0238 -1.0018
   53CHL1  H11A 6363   0.006   2.494   9.545 -0.1014 -0.1044  1.0182
   53CHL1  H11B 6364   0.061   2.331   9.603  1.6169 -0.2776 -0.5512
   53CHL1    C9 6365   0.201   2.490   9.641 -0.0897  0.9490  0.4924
   53CHL1    H9 6366   0.284   2.419   9.658  0.4552  1.4962  0.1475
   53CHL1   C10 6367   0.150   2.535   9.772 -0.2435  0.1202  0.2886
   53CHL1   C19 6368   0.018   2.608   9.748  0.3843  0.6316 -0.3110
   53CHL1  H19A 6369  -0.063   2.540   9.715  1.7256 -1.2317  0.1765
   53CHL1  H19B 6370  -0.015   2.655   9.844  0.3097  0.4251 -0.2365
   53CHL1  H19C 6371   0.026   2.685   9.669 -1.5609  1.2408  0.0402
   53CHL1    C1 6372   0.139   2.412   9.868 -0.4362 -0.5544  0.2603
   53CHL1   H1A 6373   0.066   2.346   9.817 -1.3301 -0.3255  1.2394
   53CHL1   H1B 6374   0.229   2.348   9.882  0.3763  0.6338  0.6595
   53CHL1    C2 6375   0.087   2.451  10.004  0.2625 -1.0742  0.2497
   53CHL1   H2A 6376   0.069   2.355  10.058 -2.3463  0.2799  1.8727
   53CHL1   H2B 6377  -0.011   2.500   9.991 -0.4483 -1.5189  3.4506
   53CHL1   C20 6378   0.164   2.517   9.077 -0.3759  0.1978  0.4606
   53CHL1   H20 6379   0.107   2.612   9.065  1.8883  1.5733  0.2937
   53CHL1   C21 6380   0.075   2.399   9.054  0.7788  0.7501 -0.1932
   53CHL1  H21A 6381   0.007   2.399   9.142 -0.7808  1.4372 -1.3614
   53CHL1  H21B 6382   0.133   2.306   9.037  2.2070  1.3326  1.3672
   53CHL1  H21C 6383   0.022   2.422   8.959 -0.9941  0.9203  0.8191
   53CHL1   C22 6384   0.255   2.524   8.950 -0.1939  0.4812  0.7545
   53CHL1  H22A 6385   0.354   2.570   8.969  0.0016  1.6591 -2.7851
   53CHL1  H22B 6386   0.277   2.425   8.906  0.4439  1.2642 -0.7078
   53CHL1   C23 6387   0.196   2.617   8.841  0.7308 -0.2865 -0.9585
   53CHL1  H23A 6388   0.089   2.590   8.829  0.4825  0.3776 -0.2900
   53CHL1  H23B 6389   0.196   2.716   8.892 -0.2719  0.3304 -2.1288
   53CHL1   C24 6390   0.280   2.618   8.714 -0.7707  0.4383 -0.0915
   53CHL1  H24A 6391   0.370   2.677   8.741  0.7609 -1.8651 -0.0072
   53CHL1  H24B 6392   0.303   2.516   8.675 -0.0760  0.5498  0.0244
   53CHL1   C25 6393   0.214   2.671   8.585 -0.0037 -0.2996 -0.3109
   53CHL1   H25 6394   0.156   2.758   8.621  1.7910  0.9717 -0.4264
   53CHL1   C26 6395   0.321   2.715   8.478  0.3464  0.7772 -0.5562
   53CHL1  H26A 6396   0.270   2.756   8.389 -1.1377  0.9978  0.3814
   53CHL1  H26B 6397   0.383   2.788   8.535 -2.0737  2.3565  0.1441
   53CHL1  H26C 6398   0.378   2.627   8.443 -0.1721 -0.5943  1.8856
   53CHL1   C27 6399   0.124   2.564   8.532  0.5985  0.5020 -0.4761
   53CHL1  H27A 6400   0.042   2.535   8.601  1.3199 -1.5302 -0.4494
   53CHL1  H27B 6401   0.068   2.609   8.447  1.4418  0.6838 -0.9343
   53CHL1  H27C 6402   0.178   2.474   8.496 -0.8080 -0.4729 -0.2177
   54CHL1    C3 6403   6.591   4.241  10.205 -0.4621 -0.6328 -1.2380
   54CHL1    H3 6404   6.538   4.327  10.159 -2.8597 -0.2666  2.0494
   54CHL1    O3 6405   6.647   4.266  10.333 -0.7201 -0.0614  0.0962
   54CHL1   H3' 6406   6.681   4.182  10.364 -1.2358 -0.0871  0.5754
   54CHL1    C4 6407   6.504   4.129  10.209  0.4462  0.3037  0.2471
   54CHL1   H4A 6408   6.570   4.053  10.256 -1.3583 -1.7287 -0.4601
   54CHL1   H4B 6409   6.421   4.149  10.280  1.2428 -0.9666  1.5588
   54CHL1    C5 6410   6.447   4.094  10.073  0.9820  0.3352 -0.7682
   54CHL1    C6 6411   6.313   4.091  10.043  0.4783 -0.4299  0.4886
   54CHL1    H6 6412   6.234   4.122  10.113 -1.2761 -0.3628 -1.4643
   54CHL1    C7 6413   6.253   4.050   9.915 -0.3089 -0.2904 -0.2515
   54CHL1   H7A 6414   6.155   3.998   9.924  0.3063 -1.3818  0.2375
   54CHL1   H7B 6415   6.219   4.148   9.875 -1.6589 -0.7294 -0.2066
   54CHL1    C8 6416   6.354   3.990   9.816 -0.2362  0.5314  0.1576
   54CHL1    H8 6417   6.374   3.884   9.843 -0.3592  1.3387  3.6929
   54CHL1   C14 6418   6.305   4.007   9.673  0.4291 -0.0638 -0.2269
   54CHL1   H14 6419   6.313   4.117   9.660 -2.4103  0.0727 -1.1757
   54CHL1   C15 6420   6.161   3.974   9.628  0.1556  0.6835  0.2217
   54CHL1  H15A 6421   6.119   3.885   9.679 -3.6630  1.6773 -1.0083
   54CHL1  H15B 6422   6.085   4.055   9.631 -1.7365 -0.9275 -1.8942
   54CHL1   C16 6423   6.174   3.945   9.473  0.1285  0.6357  0.3496
   54CHL1  H16A 6424   6.153   3.837   9.462  3.5048 -0.0908  0.2707
   54CHL1  H16B 6425   6.108   4.009   9.411 -1.0365  0.4903  1.4402
   54CHL1   C17 6426   6.328   3.959   9.441  0.4450  0.4122  0.0613
   54CHL1   H17 6427   6.332   4.069   9.423 -3.1849  0.7011  0.5677
   54CHL1   C13 6428   6.401   3.943   9.570 -0.1418 -0.3681 -0.1737
   54CHL1   C18 6429   6.416   3.795   9.599  0.4829 -0.9035 -0.0084
   54CHL1  H18A 6430   6.318   3.745   9.593 -0.4759  1.0475 -1.3485
   54CHL1  H18B 6431   6.489   3.741   9.534  1.2874 -0.0370  0.1532
   54CHL1  H18C 6432   6.456   3.775   9.701  1.4871  0.4885 -0.0987
   54CHL1   C12 6433   6.532   4.024   9.579  0.0844 -0.5593 -0.6369
   54CHL1  H12A 6434   6.608   3.992   9.505  0.8446  1.2435 -0.6575
   54CHL1  H12B 6435   6.511   4.128   9.549  0.0358 -0.6010 -0.7432
   54CHL1   C11 6436   6.588   4.012   9.716  0.0838 -0.3471  0.1108
   54CHL1  H11A 6437   6.628   3.909   9.720  0.0540 -0.4279 -1.4244
   54CHL1  H11B 6438   6.678   4.077   9.719 -1.4398  1.9804 -2.3872
   54CHL1    C9 6439   6.487   4.060   9.826  0.0495  0.1798  0.1526
   54CHL1    H9 6440   6.469   4.165   9.792  0.1970 -0.4767 -2.0332
   54CHL1   C10 6441   6.550   4.064   9.965 -0.1949 -0.4796 -0.3115
   54CHL1   C19 6442   6.608   3.924  10.011  0.0200 -0.3722  0.9364
   54CHL1  H19A 6443   6.663   3.941  10.106  0.5550 -1.4812  0.8355
   54CHL1  H19B 6444   6.528   3.849  10.026 -0.3684 -0.1979 -0.2008
   54CHL1  H19C 6445   6.673   3.875   9.936  0.0082  0.3855  0.4308
   54CHL1    C1 6446   6.653   4.182   9.962  0.0416 -0.4514 -0.2284
   54CHL1   H1A 6447   6.746   4.160   9.905  0.6681  1.0391  0.1934
   54CHL1   H1B 6448   6.612   4.271   9.911  0.9177 -0.3159 -0.7097
   54CHL1    C2 6449   6.701   4.220  10.110 -0.4055  0.1376 -0.1448
   54CHL1   H2A 6450   6.762   4.312  10.093 -1.6622  0.5010 -2.9121
   54CHL1   H2B 6451   6.760   4.133  10.144 -1.4402 -0.3723  0.3660
   54CHL1   C20 6452   6.372   3.888   9.315 -0.0212 -0.6159 -0.1865
   54CHL1   H20 6453   6.355   3.779   9.323 -2.5498 -0.1906  0.8624
   54CHL1   C21 6454   6.526   3.901   9.286 -0.3259  0.3279 -0.1107
   54CHL1  H21A 6455   6.557   4.007   9.292 -1.6678  0.7225 -0.0018
   54CHL1  H21B 6456   6.546   3.852   9.188  0.0646  0.8148 -0.2773
   54CHL1  H21C 6457   6.585   3.841   9.359  1.8602  1.9546 -0.4887
   54CHL1   C22 6458   6.290   3.941   9.189 -0.1644 -0.0946  0.4067
   54CHL1  H22A 6459   6.186   3.975   9.205 -0.5488 -0.3132 -1.4503
   54CHL1  H22B 6460   6.347   4.032   9.162  0.9354 -0.1553  2.4232
   54CHL1   C23 6461   6.276   3.830   9.077  0.0114 -0.1374  0.3701
   54CHL1  H23A 6462   6.374   3.778   9.080 -0.3359 -0.8000  0.3977
   54CHL1  H23B 6463   6.210   3.746   9.107 -0.0045  0.1494  1.1434
   54CHL1   C24 6464   6.232   3.879   8.939 -0.4463 -0.4284 -0.7898
   54CHL1  H24A 6465   6.137   3.933   8.959  0.4109  0.4166  1.1695
   54CHL1  H24B 6466   6.305   3.960   8.915  0.0846  0.2210  2.7785
   54CHL1   C25 6467   6.213   3.780   8.827  0.5181  0.3420  0.1162
   54CHL1   H25 6468   6.132   3.709   8.852 -0.0782  0.8137 -0.4696
   54CHL1   C26 6469   6.174   3.856   8.702 -0.2064 -0.0723  0.4704
   54CHL1  H26A 6470   6.065   3.878   8.701  0.0760  1.3383 -0.7294
   54CHL1  H26B 6471   6.238   3.945   8.687 -0.3704  0.1595  1.1164
   54CHL1  H26C 6472   6.198   3.786   8.619  1.0598  0.3837  0.4464
   54CHL1   C27 6473   6.344   3.698   8.792 -0.2212 -0.0254  0.0808
   54CHL1  H27A 6474   6.315   3.630   8.709  1.2469 -1.0057  0.3625
   54CHL1  H27B 6475   6.428   3.760   8.754 -0.3724  1.2033  1.6899
   54CHL1  H27C 6476   6.374   3.635   8.878 -1.4068 -1.3069 -0.4330
   55CHL1    C3 6477   0.426   1.496  10.164  1.1839  0.6495  0.4035
   55CHL1    H3 6478   0.373   1.399  10.156  2.0906 -0.0939  2.8280
   55CHL1    O3 6479   0.457   1.512  10.302  0.0176 -0.0340 -0.3607
   55CHL1   H3' 6480   0.511   1.591  10.312 -1.2511  0.4959  2.9104
   55CHL1    C4 6481   0.558   1.473  10.090 -0.3958 -0.0568  0.1879
   55CHL1   H4A 6482   0.636   1.546  10.120 -1.8029  1.3763  0.4179
   55CHL1   H4B 6483   0.601   1.379  10.131  0.4300 -0.1396 -0.8447
   55CHL1    C5 6484   0.540   1.472   9.934  0.0550  0.3827  1.1770
   55CHL1    C6 6485   0.585   1.366   9.866 -0.2824 -0.2240 -0.2080
   55CHL1    H6 6486   0.634   1.286   9.923  1.0569  0.4100 -0.4481
   55CHL1    C7 6487   0.572   1.357   9.718  0.2195 -0.3152 -0.5168
   55CHL1   H7A 6488   0.663   1.318   9.667  1.2395  2.5198 -0.9401
   55CHL1   H7B 6489   0.488   1.294   9.682 -0.8339 -1.1583  3.1880
   55CHL1    C8 6490   0.567   1.504   9.658 -0.4375 -0.2451 -0.1407
   55CHL1    H8 6491   0.661   1.561   9.674 -0.2629 -0.9394  1.4090
   55CHL1   C14 6492   0.550   1.504   9.505 -0.0029  0.5515  0.4848
   55CHL1   H14 6493   0.454   1.449   9.491 -1.6246  3.3430  0.4037
   55CHL1   C15 6494   0.650   1.431   9.420 -0.6494  0.0872  0.1671
   55CHL1  H15A 6495   0.754   1.458   9.448 -0.4604 -0.6027  0.1405
   55CHL1  H15B 6496   0.633   1.322   9.431  0.0361  0.0840  1.1855
   55CHL1   C16 6497   0.612   1.471   9.278 -0.4626 -0.0122 -0.0532
   55CHL1  H16A 6498   0.701   1.514   9.226 -1.0299  1.7300  0.3745
   55CHL1  H16B 6499   0.583   1.381   9.219  4.1331  0.5238 -3.4399
   55CHL1   C17 6500   0.501   1.579   9.293  0.6667  0.0476 -0.6002
   55CHL1   H17 6501   0.411   1.514   9.299  0.9721 -0.4480 -1.2793
   55CHL1   C13 6502   0.513   1.632   9.439 -0.0932  0.6395 -0.0133
   55CHL1   C18 6503   0.629   1.735   9.451 -0.3380 -0.2986 -0.0786
   55CHL1  H18A 6504   0.618   1.830   9.394  1.0100 -0.3646 -0.4716
   55CHL1  H18B 6505   0.641   1.759   9.558  0.7038  0.3795 -0.3463
   55CHL1  H18C 6506   0.724   1.691   9.414 -0.1108  2.0310 -2.4278
   55CHL1   C12 6507   0.383   1.693   9.501 -0.3112 -0.3097  0.1851
   55CHL1  H12A 6508   0.363   1.794   9.459 -1.2124 -0.0868  1.1448
   55CHL1  H12B 6509   0.302   1.619   9.482 -0.8592 -0.5624  3.2395
   55CHL1   C11 6510   0.405   1.711   9.655 -0.8189 -0.5087 -0.3860
   55CHL1  H11A 6511   0.480   1.793   9.666  1.2547 -2.3664 -0.3449
   55CHL1  H11B 6512   0.307   1.744   9.697 -0.6252  0.7020 -0.8619
   55CHL1    C9 6513   0.442   1.578   9.727  0.2043 -0.6207 -0.2230
   55CHL1    H9 6514   0.358   1.508   9.713 -0.2937 -0.1102  0.1886
   55CHL1   C10 6515   0.471   1.592   9.878 -0.7957  0.2158  0.1170
   55CHL1   C19 6516   0.548   1.716   9.906  0.0219 -0.3596 -0.2458
   55CHL1  H19A 6517   0.488   1.808   9.886 -1.1951 -0.8382  1.0997
   55CHL1  H19B 6518   0.583   1.716  10.011  0.1336  1.7036 -0.2624
   55CHL1  H19C 6519   0.630   1.718   9.831  0.5851  3.3596  0.3775
   55CHL1    C1 6520   0.330   1.599   9.952  0.4884  0.5997 -0.5094
   55CHL1   H1A 6521   0.276   1.687   9.913 -1.2918  0.0502  0.6493
   55CHL1   H1B 6522   0.276   1.507   9.922 -0.6719  0.8665  0.7428
   55CHL1    C2 6523   0.344   1.607  10.106  0.1786 -0.2949 -0.1232
   55CHL1   H2A 6524   0.239   1.600  10.143  0.6083 -0.1264  1.1480
   55CHL1   H2B 6525   0.386   1.702  10.146 -0.5413  0.2376 -0.6151
   55CHL1   C20 6526   0.467   1.680   9.185 -0.7839 -0.3175  0.1513
   55CHL1   H20 6527   0.412   1.763   9.234 -1.4989 -1.5749  1.5127
   55CHL1   C21 6528   0.369   1.599   9.093  1.4931 -0.5161 -0.1317
   55CHL1  H21A 6529   0.432   1.523   9.042  3.9986  1.6541 -0.3719
   55CHL1  H21B 6530   0.326   1.664   9.014 -0.9464 -1.0114  0.7319
   55CHL1  H21C 6531   0.287   1.552   9.150  2.2609 -0.2925  1.1649
   55CHL1   C22 6532   0.597   1.739   9.112  1.0345 -0.7195 -0.7829
   55CHL1  H22A 6533   0.640   1.819   9.175  0.4871  0.5010 -1.9158
   55CHL1  H22B 6534   0.678   1.665   9.097  0.6616 -1.1895 -0.4691
   55CHL1   C23 6535   0.556   1.821   8.989  0.5800 -0.4800  0.7945
   55CHL1  H23A 6536   0.494   1.761   8.919  1.3890  0.6785 -0.9487
   55CHL1  H23B 6537   0.503   1.913   9.021  0.0978 -0.5223  0.1403
   55CHL1   C24 6538   0.678   1.842   8.900  0.0696  0.6669  0.1342
   55CHL1  H24A 6539   0.750   1.900   8.961  0.2175 -0.0255  0.6283
   55CHL1  H24B 6540   0.734   1.748   8.881 -3.1445 -0.9142 -1.9127
   55CHL1   C25 6541   0.658   1.920   8.770  0.3089  0.5807 -0.6568
   55CHL1   H25 6542   0.597   2.008   8.798  0.0615  0.6174 -1.3018
   55CHL1   C26 6543   0.798   1.980   8.723 -0.1403 -0.8789  0.3974
   55CHL1  H26A 6544   0.766   2.030   8.629 -2.0471 -1.2191  0.8393
   55CHL1  H26B 6545   0.829   2.059   8.795  0.0987 -0.5966 -0.0129
   55CHL1  H26C 6546   0.880   1.906   8.713 -0.1892 -0.9500  0.5166
   55CHL1   C27 6547   0.592   1.835   8.659 -0.2167  0.7269 -0.9985
   55CHL1  H27A 6548   0.590   1.876   8.555  2.4152  1.5265 -0.7810
   55CHL1  H27B 6549   0.650   1.740   8.655  0.3498  0.9632  1.3561
   55CHL1  H27C 6550   0.488   1.811   8.690  0.9445  0.0235  2.5319
   56CHL1    C3 6551   5.265   6.396  10.044  0.2842  0.5457 -0.0669
   56CHL1    H3 6552   5.376   6.386  10.047  0.0978 -1.3088  4.9466
   56CHL1    O3 6553   5.219   6.419  10.178  0.2297 -0.4098 -0.5757
   56CHL1   H3' 6554   5.241   6.339  10.226 -1.0984 -0.8798 -0.7296
   56CHL1    C4 6555   5.230   6.522   9.950  0.2613  0.4479  0.2083
   56CHL1   H4A 6556   5.123   6.547   9.964  0.2923  0.8160 -0.2111
   56CHL1   H4B 6557   5.279   6.609   9.997 -0.2970  1.2313 -0.6408
   56CHL1    C5 6558   5.270   6.517   9.804  0.5907  0.6146  0.3963
   56CHL1    C6 6559   5.333   6.615   9.745  0.1779 -0.4932  0.5013
   56CHL1    H6 6560   5.368   6.702   9.802  1.4799 -0.8941  0.3382
   56CHL1    C7 6561   5.372   6.615   9.595  0.3148 -1.1299  0.9568
   56CHL1   H7A 6562   5.347   6.711   9.543 -0.2013 -0.5115  2.3255
   56CHL1   H7B 6563   5.482   6.618   9.583  0.1278  1.4126 -0.8298
   56CHL1    C8 6564   5.317   6.495   9.514  0.2066  1.1733  0.0660
   56CHL1    H8 6565   5.212   6.523   9.492 -0.1676  0.8082  1.3242
   56CHL1   C14 6566   5.403   6.474   9.393  0.7413 -0.0967  0.9494
   56CHL1   H14 6567   5.502   6.436   9.426  0.2530 -0.7235  1.7078
   56CHL1   C15 6568   5.433   6.595   9.297 -0.3949  0.6606  0.2873
   56CHL1  H15A 6569   5.345   6.658   9.276 -0.8439  0.4229  1.4232
   56CHL1  H15B 6570   5.521   6.658   9.324  1.3363 -1.4260 -0.2856
   56CHL1   C16 6571   5.476   6.521   9.167  0.0567 -0.1759  0.9312
   56CHL1  H16A 6572   5.428   6.578   9.084 -2.4208  0.6356  2.8612
   56CHL1  H16B 6573   5.586   6.525   9.158 -0.1188  0.7154 -1.0887
   56CHL1   C17 6574   5.433   6.373   9.186 -0.4801 -0.1421 -0.8402
   56CHL1   H17 6575   5.525   6.319   9.215 -1.7373 -0.1861  3.3197
   56CHL1   C13 6576   5.333   6.371   9.300  0.7811 -0.7034 -0.3939
   56CHL1   C18 6577   5.191   6.414   9.251 -0.3884  0.1811 -0.1029
   56CHL1  H18A 6578   5.111   6.409   9.329 -1.5235  2.8140 -1.0517
   56CHL1  H18B 6579   5.187   6.520   9.219  0.0967  0.7776  1.7451
   56CHL1  H18C 6580   5.160   6.350   9.166  2.9836 -0.0742 -1.1951
   56CHL1   C12 6581   5.328   6.238   9.386 -0.4993  0.3234  0.2952
   56CHL1  H12A 6582   5.285   6.155   9.326  2.7193  0.1485 -1.8639
   56CHL1  H12B 6583   5.437   6.223   9.399 -0.5652  0.5814  1.1590
   56CHL1   C11 6584   5.257   6.250   9.522  0.7152  0.0890  0.2299
   56CHL1  H11A 6585   5.149   6.253   9.497  0.4890 -0.7512  1.0776
   56CHL1  H11B 6586   5.264   6.154   9.577  0.1561  0.6490  1.3086
   56CHL1    C9 6587   5.303   6.373   9.601  0.3235  0.0608  0.2444
   56CHL1    H9 6588   5.409   6.360   9.633 -0.3162 -0.3545  2.2751
   56CHL1   C10 6589   5.226   6.381   9.734  0.0583  0.0915  0.5881
   56CHL1   C19 6590   5.067   6.382   9.724  0.1669 -0.4613  0.3919
   56CHL1  H19A 6591   5.031   6.459   9.652 -1.3856 -1.7294 -0.2278
   56CHL1  H19B 6592   5.019   6.290   9.684  0.9993 -0.2884 -1.0571
   56CHL1  H19C 6593   5.018   6.397   9.822  1.8062 -1.3967  1.3810
   56CHL1    C1 6594   5.263   6.267   9.824 -0.6242 -0.1682 -0.3342
   56CHL1   H1A 6595   5.232   6.169   9.782  0.9298 -0.2843 -1.2126
   56CHL1   H1B 6596   5.372   6.253   9.833 -0.7129 -1.5275 -1.3203
   56CHL1    C2 6597   5.210   6.270   9.974  0.3478 -0.1517  0.8136
   56CHL1   H2A 6598   5.239   6.188  10.044 -1.7768  0.7613  2.8113
   56CHL1   H2B 6599   5.100   6.266   9.984  0.0499  0.6605 -1.6840
   56CHL1   C20 6600   5.399   6.304   9.055  0.0255 -0.3842  0.2683
   56CHL1   H20 6601   5.308   6.342   9.006 -0.1520 -0.6056  0.4276
   56CHL1   C21 6602   5.388   6.146   9.079  0.1567 -0.6944 -0.2166
   56CHL1  H21A 6603   5.465   6.102   9.145  0.0506  2.0979  1.8632
   56CHL1  H21B 6604   5.401   6.093   8.983  2.6448  0.6602 -0.6507
   56CHL1  H21C 6605   5.288   6.129   9.126 -0.3044 -0.1631 -0.9876
   56CHL1   C22 6606   5.507   6.321   8.942  0.3526  0.4308 -1.2124
   56CHL1  H22A 6607   5.527   6.430   8.930 -0.3776  0.5837 -1.0847
   56CHL1  H22B 6608   5.606   6.290   8.979 -0.1764  0.2756  0.0760
   56CHL1   C23 6609   5.490   6.259   8.800 -0.0612  0.1338  0.6682
   56CHL1  H23A 6610   5.486   6.148   8.805  0.7014  0.0981  0.3925
   56CHL1  H23B 6611   5.387   6.287   8.767  0.6250 -0.8022 -2.3957
   56CHL1   C24 6612   5.588   6.329   8.705  0.5029  0.9051  0.9788
   56CHL1  H24A 6613   5.587   6.440   8.700  0.9743  0.8777  0.0758
   56CHL1  H24B 6614   5.689   6.293   8.736 -0.1609 -1.3803  0.5885
   56CHL1   C25 6615   5.579   6.296   8.558 -0.5140  0.6116 -0.0635
   56CHL1   H25 6616   5.485   6.347   8.527 -0.2268 -0.2133 -2.3885
   56CHL1   C26 6617   5.695   6.363   8.475  0.6490  0.7482 -0.3856
   56CHL1  H26A 6618   5.760   6.276   8.455 -0.5837 -0.5957  1.2948
   56CHL1  H26B 6619   5.664   6.425   8.388  1.6031  0.5986 -0.8291
   56CHL1  H26C 6620   5.755   6.431   8.540 -2.1513  3.9480 -0.9971
   56CHL1   C27 6621   5.561   6.151   8.516 -0.1842  0.7170  0.2549
   56CHL1  H27A 6622   5.548   6.140   8.406 -1.1974 -0.0676  0.4483
   56CHL1  H27B 6623   5.638   6.086   8.562  0.0442  0.7829 -0.0352
   56CHL1  H27C 6624   5.466   6.114   8.560  0.0575  0.2744  0.3964
   57CHL1    C3 6625   1.110   2.753  10.162 -0.4719  0.5258  0.1722
   57CHL1    H3 6626   1.005   2.782  10.139 -0.4568  0.5527  0.1380
   57CHL1    O3 6627   1.124   2.796  10.298 -0.0737 -0.3271 -0.4573
   57CHL1   H3' 6628   1.218   2.798  10.315 -0.0629 -0.7178 -0.4580
   57CHL1    C4 6629   1.133   2.604  10.142  0.4900  0.1471 -0.1476
   57CHL1   H4A 6630   1.228   2.573  10.191  1.9745  1.0968 -2.3660
   57CHL1   H4B 6631   1.055   2.544  10.194  0.7512  0.2610  0.3805
   57CHL1    C5 6632   1.141   2.552  10.001  0.1158  0.2141  0.3198
   57CHL1    C6 6633   1.063   2.448   9.960 -0.4520  0.7483 -0.0593
   57CHL1    H6 6634   1.006   2.397  10.038 -0.7147  0.4586 -0.4350
   57CHL1    C7 6635   1.062   2.387   9.822 -0.3770  0.0465 -0.2073
   57CHL1   H7A 6636   1.093   2.283   9.845  1.4044  0.7118  0.5145
   57CHL1   H7B 6637   0.959   2.389   9.780 -0.5892 -1.9524  0.1485
   57CHL1    C8 6638   1.178   2.449   9.741 -0.0707  0.0790  1.1031
   57CHL1    H8 6639   1.269   2.397   9.778  0.5174  1.1577  1.1711
   57CHL1   C14 6640   1.155   2.405   9.594 -0.1373 -0.0965  0.2515
   57CHL1   H14 6641   1.057   2.452   9.568  1.0638  1.4340 -1.6169
   57CHL1   C15 6642   1.134   2.255   9.566  0.6705 -0.4542  0.4788
   57CHL1  H15A 6643   1.210   2.193   9.618 -0.2071 -0.5550  1.6591
   57CHL1  H15B 6644   1.035   2.216   9.598  0.5743 -2.1173 -1.7208
   57CHL1   C16 6645   1.143   2.257   9.416 -0.7086  0.8405  0.6799
   57CHL1  H16A 6646   1.197   2.169   9.377 -0.1321  1.6221 -0.3255
   57CHL1  H16B 6647   1.047   2.258   9.361 -0.5746 -1.5521  0.3482
   57CHL1   C17 6648   1.209   2.390   9.369 -0.1660  0.4429  0.0957
   57CHL1   H17 6649   1.129   2.459   9.336 -2.6066 -2.1589  0.3719
   57CHL1   C13 6650   1.266   2.451   9.501 -1.0566  0.5113 -0.1651
   57CHL1   C18 6651   1.399   2.372   9.552 -0.3018  0.2129  0.1411
   57CHL1  H18A 6652   1.489   2.398   9.491 -0.2725 -2.1037 -0.8370
   57CHL1  H18B 6653   1.425   2.408   9.654 -0.0256 -1.6360  0.7289
   57CHL1  H18C 6654   1.398   2.261   9.546  1.8745  0.1960 -0.3173
   57CHL1   C12 6655   1.273   2.605   9.499 -0.3377 -0.3340 -0.0781
   57CHL1  H12A 6656   1.349   2.641   9.427 -0.3858 -2.3135 -1.1567
   57CHL1  H12B 6657   1.167   2.634   9.480 -0.1313  0.4294 -0.0975
   57CHL1   C11 6658   1.293   2.659   9.644  0.1032 -0.5987 -0.0561
   57CHL1  H11A 6659   1.400   2.643   9.670 -0.2030 -4.6372 -0.8289
   57CHL1  H11B 6660   1.270   2.767   9.644 -0.7230 -0.7693 -0.6383
   57CHL1    C9 6661   1.197   2.598   9.754 -0.4267 -0.3391  0.8073
   57CHL1    H9 6662   1.100   2.642   9.724  0.4097  0.4881 -0.7794
   57CHL1   C10 6663   1.226   2.638   9.900 -1.1965 -0.0750  0.3166
   57CHL1   C19 6664   1.382   2.628   9.933  0.3953  0.6292  0.2900
   57CHL1  H19A 6665   1.431   2.723   9.904  1.5748  0.5942  2.0689
   57CHL1  H19B 6666   1.405   2.613  10.041  2.7903 -1.7615 -0.4756
   57CHL1  H19C 6667   1.430   2.545   9.877  0.3562  0.4247  0.5537
   57CHL1    C1 6668   1.181   2.787   9.918  0.3275 -1.1970 -0.0459
   57CHL1   H1A 6669   1.246   2.836   9.843 -0.3718 -2.8862 -1.8007
   57CHL1   H1B 6670   1.075   2.790   9.886 -0.2996  0.0269  2.0637
   57CHL1    C2 6671   1.199   2.838  10.061 -0.5815 -0.2585 -0.5163
   57CHL1   H2A 6672   1.170   2.945  10.072  2.8764  0.6995 -0.3456
   57CHL1   H2B 6673   1.300   2.826  10.105 -1.2024 -1.6534  0.5804
   57CHL1   C20 6674   1.303   2.360   9.244  0.6305  0.2089  1.0782
   57CHL1   H20 6675   1.377   2.281   9.271  1.4041  0.8602  0.8692
   57CHL1   C21 6676   1.390   2.479   9.201  0.5911  0.4487 -0.4396
   57CHL1  H21A 6677   1.324   2.562   9.168  0.9018  0.8919  0.0380
   57CHL1  H21B 6678   1.460   2.445   9.121 -1.8132 -0.2262 -2.3016
   57CHL1  H21C 6679   1.460   2.510   9.282 -1.7306 -0.5754  2.0555
   57CHL1   C22 6680   1.227   2.295   9.121  0.0816  0.4339  0.5194
   57CHL1  H22A 6681   1.156   2.220   9.162 -1.0842  1.0741 -0.3276
   57CHL1  H22B 6682   1.166   2.378   9.081  0.5839  0.6244  0.1430
   57CHL1   C23 6683   1.311   2.233   9.008 -0.1047 -0.2963 -0.6317
   57CHL1  H23A 6684   1.362   2.321   8.963  0.3908 -0.4237 -0.3101
   57CHL1  H23B 6685   1.392   2.167   9.043  1.7138  2.6967  0.9618
   57CHL1   C24 6686   1.212   2.177   8.906 -0.2759 -0.1254  0.5661
   57CHL1  H24A 6687   1.187   2.074   8.939  0.5899 -0.3637  0.4821
   57CHL1  H24B 6688   1.121   2.241   8.916  0.4515  0.8777  0.9134
   57CHL1   C25 6689   1.272   2.175   8.766  0.2316 -0.1686 -0.8440
   57CHL1   H25 6690   1.333   2.268   8.765  1.6113 -1.0668 -2.7082
   57CHL1   C26 6691   1.365   2.054   8.766  0.5195  0.0290  0.4272
   57CHL1  H26A 6692   1.445   2.068   8.689  1.5251  1.5005  1.7044
   57CHL1  H26B 6693   1.402   2.031   8.868 -1.2694 -1.0953  0.8332
   57CHL1  H26C 6694   1.299   1.969   8.740  1.9080 -0.9402  0.0057
   57CHL1   C27 6695   1.171   2.162   8.646  0.9484 -0.0900  0.0084
   57CHL1  H27A 6696   1.104   2.250   8.641 -1.5788 -2.0355 -2.7923
   57CHL1  H27B 6697   1.223   2.141   8.549 -0.3441 -1.4696 -0.4112
   57CHL1  H27C 6698   1.104   2.075   8.665  1.1913 -0.7611 -2.0203
   58CHL1    C3 6699   3.547   0.802  10.116  0.8771  0.2084 -0.3817
   58CHL1    H3 6700   3.437   0.817  10.116  1.2517  3.3732 -0.5366
   58CHL1    O3 6701   3.581   0.756  10.247 -0.0307  0.1544 -0.3741
   58CHL1   H3' 6702   3.677   0.754  10.242  0.0223 -2.1314  0.9396
   58CHL1    C4 6703   3.585   0.695  10.016 -0.0487  1.0376 -0.7531
   58CHL1   H4A 6704   3.690   0.673  10.043 -1.4213 -1.4459  2.7696
   58CHL1   H4B 6705   3.519   0.609  10.039  2.8834 -1.3718 -1.0651
   58CHL1    C5 6706   3.572   0.726   9.869 -0.0129 -0.7159 -0.7692
   58CHL1    C6 6707   3.532   0.641   9.784 -0.6811  0.2957  0.1341
   58CHL1    H6 6708   3.505   0.538   9.814 -0.5276 -0.4705 -2.2340
   58CHL1    C7 6709   3.519   0.669   9.644 -0.1314 -0.0097 -0.0220
   58CHL1   H7A 6710   3.559   0.582   9.587 -0.8979 -0.3944  0.0200
   58CHL1   H7B 6711   3.413   0.680   9.615 -0.6928  2.2214  2.7354
   58CHL1    C8 6712   3.605   0.793   9.591 -0.0503 -0.2141 -0.4753
   58CHL1    H8 6713   3.707   0.752   9.602 -0.2654 -0.9320 -1.0989
   58CHL1   C14 6714   3.567   0.830   9.453 -0.1028 -0.2437  0.7123
   58CHL1   H14 6715   3.461   0.860   9.463  0.0498  0.3187  0.6803
   58CHL1   C15 6716   3.563   0.718   9.351 -0.1211  0.0841 -0.5090
   58CHL1  H15A 6717   3.650   0.649   9.358  0.2031  0.1712 -3.0204
   58CHL1  H15B 6718   3.461   0.674   9.356  0.2083 -0.4637  1.9555
   58CHL1   C16 6719   3.571   0.808   9.223  0.2906  0.6796  0.5908
   58CHL1  H16A 6720   3.642   0.762   9.151 -1.0027 -0.2724 -0.0903
   58CHL1  H16B 6721   3.473   0.809   9.170  1.1924 -1.4405 -1.2034
   58CHL1   C17 6722   3.600   0.956   9.256  0.3026  0.1773 -0.6451
   58CHL1   H17 6723   3.503   1.009   9.266 -0.8746 -2.4260  2.8496
   58CHL1   C13 6724   3.647   0.948   9.403  0.3212 -0.0298 -0.0503
   58CHL1   C18 6725   3.801   0.920   9.405  0.1488  0.4114 -0.0120
   58CHL1  H18A 6726   3.831   0.846   9.328  1.1774  0.7732  0.0292
   58CHL1  H18B 6727   3.863   1.009   9.380  0.3239  0.2682 -0.0954
   58CHL1  H18C 6728   3.836   0.874   9.499  2.9307 -1.6625 -1.9548
   58CHL1   C12 6729   3.607   1.076   9.488 -0.1867 -0.5611 -0.1173
   58CHL1  H12A 6730   3.652   1.170   9.449 -1.2316  0.9744  2.2541
   58CHL1  H12B 6731   3.496   1.084   9.489 -0.0949  1.0686  2.7601
   58CHL1   C11 6732   3.649   1.039   9.634 -0.8219  0.2518  0.4732
   58CHL1  H11A 6733   3.760   1.044   9.640 -0.7930  0.0951  0.0555
   58CHL1  H11B 6734   3.617   1.133   9.686 -0.4448  0.9887 -0.6140
   58CHL1    C9 6735   3.584   0.910   9.689  0.3306 -0.3206 -0.5005
   58CHL1    H9 6736   3.475   0.932   9.689  0.5759  0.9188  0.0057
   58CHL1   C10 6737   3.616   0.864   9.831 -0.0946 -0.3725  0.7421
   58CHL1   C19 6738   3.769   0.859   9.840 -0.3184  0.5627  0.4706
   58CHL1  H19A 6739   3.801   0.815   9.937 -3.3331  0.1402  1.3236
   58CHL1  H19B 6740   3.813   0.792   9.763 -1.9870  0.0656 -0.0637
   58CHL1  H19C 6741   3.816   0.959   9.830 -0.8209  0.6471 -1.1361
   58CHL1    C1 6742   3.579   0.969   9.934 -0.0589  0.4892 -0.0043
   58CHL1   H1A 6743   3.615   1.069   9.903  0.2744 -0.0551 -1.4338
   58CHL1   H1B 6744   3.468   0.972   9.929 -0.0249  1.3905 -0.3110
   58CHL1    C2 6745   3.617   0.936  10.079  0.3585 -0.8130 -0.0112
   58CHL1   H2A 6746   3.580   1.024  10.134  0.4275  0.6622 -2.2587
   58CHL1   H2B 6747   3.725   0.932  10.106  0.8034 -2.3365 -1.8302
   58CHL1   C20 6748   3.697   1.030   9.149  0.0663 -0.8101  0.3144
   58CHL1   H20 6749   3.792   0.973   9.154  0.0075 -1.0407 -1.0330
   58CHL1   C21 6750   3.713   1.183   9.186 -0.5867  1.4353  0.2831
   58CHL1  H21A 6751   3.622   1.246   9.193 -1.1694  0.6225  0.1129
   58CHL1  H21B 6752   3.760   1.240   9.103 -1.2876  1.4472 -0.1077
   58CHL1  H21C 6753   3.768   1.199   9.281 -2.6227 -1.1674  1.9608
   58CHL1   C22 6754   3.658   1.009   9.005  0.3521 -0.5279  0.2607
   58CHL1  H22A 6755   3.727   1.061   8.935 -2.8565  0.6545 -2.1481
   58CHL1  H22B 6756   3.659   0.901   8.978  1.6759 -0.3119 -0.5587
   58CHL1   C23 6757   3.522   1.075   8.980 -0.1130 -0.1522  0.3537
   58CHL1  H23A 6758   3.450   1.056   9.062  0.3636 -1.1711  0.5556
   58CHL1  H23B 6759   3.532   1.185   8.971 -0.6248 -0.0208  1.3369
   58CHL1   C24 6760   3.451   1.008   8.863 -0.4941  0.3656 -0.1426
   58CHL1  H24A 6761   3.513   1.014   8.771  0.2044  0.7229  0.3464
   58CHL1  H24B 6762   3.443   0.899   8.882  2.4265  0.4882  2.1484
   58CHL1   C25 6763   3.307   1.066   8.835 -0.2954  0.5588 -0.3805
   58CHL1   H25 6764   3.266   1.087   8.936  0.9836 -3.5709  1.0909
   58CHL1   C26 6765   3.311   1.205   8.765  1.1036 -0.5008 -0.6015
   58CHL1  H26A 6766   3.336   1.197   8.657 -2.3488  1.0462 -1.5964
   58CHL1  H26B 6767   3.212   1.255   8.773  1.9579  0.8303  2.6131
   58CHL1  H26C 6768   3.373   1.274   8.827  1.8675 -1.5399 -0.1996
   58CHL1   C27 6769   3.215   0.959   8.771  0.0297  0.1181  0.6569
   58CHL1  H27A 6770   3.255   0.903   8.684 -3.0793  2.3029 -2.2901
   58CHL1  H27B 6771   3.168   0.896   8.851  0.4863  0.3792  1.1327
   58CHL1  H27C 6772   3.120   1.009   8.742  1.7621  1.8758 -2.1683
   59CHL1    C3 6773   2.685   0.674  10.317 -0.3662  0.0140  0.1667
   59CHL1    H3 6774   2.791   0.646  10.300 -0.2267  1.0684 -0.7629
   59CHL1    O3 6775   2.679   0.700  10.456  0.7707 -0.2373 -0.0176
   59CHL1   H3' 6776   2.600   0.753  10.453 -0.8700 -2.5972  0.3248
   59CHL1    C4 6777   2.644   0.796  10.239 -0.3620 -0.4066  0.1567
   59CHL1   H4A 6778   2.546   0.842  10.264 -0.9214 -0.9063 -1.0988
   59CHL1   H4B 6779   2.710   0.880  10.270 -1.2800 -0.0862  1.2745
   59CHL1    C5 6780   2.645   0.784  10.087 -0.1085  0.8217  0.2585
   59CHL1    C6 6781   2.713   0.870  10.012 -0.3285 -0.1001 -0.4335
   59CHL1    H6 6782   2.771   0.949  10.064 -1.9158  1.3260 -0.7838
   59CHL1    C7 6783   2.691   0.886   9.866 -0.7823  0.6636  0.1040
   59CHL1   H7A 6784   2.662   0.990   9.838 -1.8716 -0.1529 -1.8900
   59CHL1   H7B 6785   2.777   0.851   9.804 -0.7894  1.3516 -0.3088
   59CHL1    C8 6786   2.573   0.793   9.809 -0.5390  0.4084 -0.9568
   59CHL1    H8 6787   2.474   0.844   9.819  0.3008  2.5482 -2.9345
   59CHL1   C14 6788   2.611   0.772   9.663  0.5710 -0.6472 -0.9948
   59CHL1   H14 6789   2.711   0.723   9.659  0.6467 -0.5945  0.1095
   59CHL1   C15 6790   2.615   0.888   9.567 -0.2269  0.1595  0.6629
   59CHL1  H15A 6791   2.519   0.939   9.591  0.0063  0.8748  0.0877
   59CHL1  H15B 6792   2.700   0.955   9.590  0.3156 -0.6323  0.9464
   59CHL1   C16 6793   2.610   0.829   9.424 -0.0447  1.0039  0.3850
   59CHL1  H16A 6794   2.531   0.882   9.366 -2.2991 -2.0321  0.5466
   59CHL1  H16B 6795   2.706   0.836   9.370  0.5277  0.3037  1.3110
   59CHL1   C17 6796   2.586   0.679   9.446 -0.3592  0.3892  0.4071
   59CHL1   H17 6797   2.681   0.622   9.452 -1.9032 -2.6007 -1.8706
   59CHL1   C13 6798   2.524   0.664   9.587 -1.0258 -0.3440 -0.3102
   59CHL1   C18 6799   2.382   0.703   9.584 -0.5556  0.2745 -0.4371
   59CHL1  H18A 6800   2.369   0.795   9.523 -0.0443 -0.8828 -2.3279
   59CHL1  H18B 6801   2.330   0.619   9.534 -1.7540  0.5450  0.3507
   59CHL1  H18C 6802   2.343   0.722   9.686  0.0697 -0.5587 -0.0322
   59CHL1   C12 6803   2.541   0.527   9.660  0.3679  0.7110  0.4591
   59CHL1  H12A 6804   2.476   0.446   9.619  0.4780  0.7818  0.1399
   59CHL1  H12B 6805   2.647   0.499   9.645  0.3762  1.2141 -0.4987
   59CHL1   C11 6806   2.513   0.538   9.813 -0.7465 -0.4896  0.0834
   59CHL1  H11A 6807   2.404   0.557   9.823 -0.9315 -0.5470 -1.6000
   59CHL1  H11B 6808   2.532   0.439   9.860  1.2991  1.3306  3.3000
   59CHL1    C9 6809   2.586   0.654   9.884  0.1393 -0.8162  0.2968
   59CHL1    H9 6810   2.693   0.628   9.870  0.9153  1.3507  1.8662
   59CHL1   C10 6811   2.562   0.666  10.038  1.0863  0.2492 -0.6219
   59CHL1   C19 6812   2.404   0.694  10.067 -0.7203 -0.4438  0.4918
   59CHL1  H19A 6813   2.375   0.795  10.032 -0.3026  0.2490  2.0891
   59CHL1  H19B 6814   2.328   0.628  10.022 -1.0666  0.1122  0.2562
   59CHL1  H19C 6815   2.376   0.689  10.175 -0.1959 -0.9795  0.6075
   59CHL1    C1 6816   2.602   0.537  10.120  0.4174  0.7644 -0.1218
   59CHL1   H1A 6817   2.525   0.463  10.088  1.6271 -0.5286 -0.0806
   59CHL1   H1B 6818   2.703   0.497  10.096  0.7015 -0.5636  2.9409
   59CHL1    C2 6819   2.596   0.555  10.277  0.0662  0.3206  0.0205
   59CHL1   H2A 6820   2.634   0.458  10.316 -2.3018 -0.7061 -0.0643
   59CHL1   H2B 6821   2.490   0.564  10.310 -0.4874 -0.5953 -1.4309
   59CHL1   C20 6822   2.519   0.608   9.324 -0.0938 -0.0852  0.3972
   59CHL1   H20 6823   2.416   0.647   9.314 -1.3036 -3.5887 -1.6394
   59CHL1   C21 6824   2.504   0.458   9.355  0.2445  0.5567  0.7752
   59CHL1  H21A 6825   2.582   0.407   9.416 -0.2995 -2.1419 -0.7103
   59CHL1  H21B 6826   2.514   0.397   9.263 -0.1220  0.2539  0.9324
   59CHL1  H21C 6827   2.400   0.449   9.394  0.4713 -0.5642  1.1441
   59CHL1   C22 6828   2.593   0.637   9.187  0.2201  0.0966  0.2775
   59CHL1  H22A 6829   2.675   0.712   9.196  1.3659 -1.3213  1.8817
   59CHL1  H22B 6830   2.655   0.548   9.162  0.9040 -0.3032  3.1612
   59CHL1   C23 6831   2.497   0.660   9.065 -0.0430  0.0383  0.2597
   59CHL1  H23A 6832   2.442   0.567   9.039 -4.3547  2.6770 -0.5614
   59CHL1  H23B 6833   2.419   0.733   9.097 -0.0432 -0.4113  1.3112
   59CHL1   C24 6834   2.574   0.716   8.942  0.4177  0.3230 -0.4159
   59CHL1  H24A 6835   2.607   0.821   8.955 -0.3052  0.4705  0.2018
   59CHL1  H24B 6836   2.660   0.646   8.932  0.0889 -0.2864  0.8760
   59CHL1   C25 6837   2.494   0.710   8.817 -0.8349  0.9043  0.9725
   59CHL1   H25 6838   2.562   0.736   8.734  0.0646 -0.2531  1.3349
   59CHL1   C26 6839   2.455   0.566   8.778 -0.5416 -0.2343  0.1828
   59CHL1  H26A 6840   2.543   0.499   8.771  0.9097  1.6037  0.4625
   59CHL1  H26B 6841   2.386   0.520   8.853 -1.1229  0.9022  0.3537
   59CHL1  H26C 6842   2.415   0.560   8.675  1.1005  1.7525 -0.5852
   59CHL1   C27 6843   2.375   0.801   8.833  0.0114 -0.3497 -0.4242
   59CHL1  H27A 6844   2.317   0.802   8.739 -2.4641  1.7377  1.0737
   59CHL1  H27B 6845   2.300   0.754   8.900  0.4313 -2.2987 -1.2642
   59CHL1  H27C 6846   2.406   0.904   8.859 -0.8685 -0.3227  0.5568
   60CHL1    C3 6847   2.607   6.417  10.348 -0.6375 -0.1021 -0.5897
   60CHL1    H3 6848   2.587   6.499  10.276 -1.4863 -1.0397 -1.4426
   60CHL1    O3 6849   2.674   6.455  10.468 -0.3391 -0.4484 -0.1515
   60CHL1   H3' 6850   2.740   6.521  10.446 -0.3286 -1.3435 -2.9855
   60CHL1    C4 6851   2.475   6.345  10.384  0.1632 -0.5940  0.0577
   60CHL1   H4A 6852   2.494   6.275  10.469 -2.1613 -0.4838  0.7042
   60CHL1   H4B 6853   2.407   6.418  10.433  1.0828 -0.7701  1.6386
   60CHL1    C5 6854   2.403   6.274  10.268  0.2308  0.1186 -0.1528
   60CHL1    C6 6855   2.273   6.302  10.250  0.1003 -0.6351 -0.2231
   60CHL1    H6 6856   2.225   6.373  10.319  0.1982 -0.5290 -0.2637
   60CHL1    C7 6857   2.190   6.250  10.136  0.2011  0.8580  0.0231
   60CHL1   H7A 6858   2.094   6.212  10.178  0.2862 -1.8498 -2.1563
   60CHL1   H7B 6859   2.164   6.332  10.066  1.4116 -0.2149 -1.7043
   60CHL1    C8 6860   2.265   6.134  10.060  0.1920  0.0868  0.0032
   60CHL1    H8 6861   2.264   6.038  10.116 -0.7264 -1.5029 -2.5924
   60CHL1   C14 6862   2.205   6.106   9.922  0.2898 -0.8667  0.2083
   60CHL1   H14 6863   2.222   6.198   9.862 -0.8813 -0.8982 -0.1792
   60CHL1   C15 6864   2.048   6.090   9.924 -0.2620 -0.7086 -0.0800
   60CHL1  H15A 6865   2.020   6.021  10.006  0.7997 -0.7463  0.2584
   60CHL1  H15B 6866   1.995   6.187   9.935  2.4630  0.8425 -0.1259
   60CHL1   C16 6867   2.022   6.035   9.780 -0.3659  0.1213  0.3236
   60CHL1  H16A 6868   1.950   5.951   9.769 -0.8768  1.0769 -5.0460
   60CHL1  H16B 6869   1.993   6.128   9.727  0.9348  0.7620  0.7089
   60CHL1   C17 6870   2.162   5.986   9.727  0.5408 -0.1482  0.1523
   60CHL1   H17 6871   2.205   6.064   9.660  3.1744  0.7028  2.7651
   60CHL1   C13 6872   2.256   5.990   9.849  0.6058 -0.0293 -0.0326
   60CHL1   C18 6873   2.242   5.854   9.918 -0.0355 -0.6321  0.0527
   60CHL1  H18A 6874   2.290   5.779   9.852  1.0221 -0.4831  0.6339
   60CHL1  H18B 6875   2.293   5.863  10.017 -1.1852  0.2438  0.5846
   60CHL1  H18C 6876   2.136   5.823   9.932 -0.0750 -0.4361  0.1876
   60CHL1   C12 6877   2.400   6.023   9.815  0.5725 -0.6511 -0.2524
   60CHL1  H12A 6878   2.445   5.939   9.758  2.7970 -0.5487  1.2847
   60CHL1  H12B 6879   2.395   6.118   9.758  0.7891  0.3568  1.3653
   60CHL1   C11 6880   2.481   6.051   9.945  0.5202  0.2873 -0.4298
   60CHL1  H11A 6881   2.492   5.954   9.998 -1.5840 -0.5116 -1.4242
   60CHL1  H11B 6882   2.586   6.076   9.916  0.7156  0.2187  0.2170
   60CHL1    C9 6883   2.418   6.159  10.045  0.6363  0.3050 -0.0570
   60CHL1    H9 6884   2.416   6.253   9.986 -0.1893  0.0635 -0.4228
   60CHL1   C10 6885   2.487   6.188  10.177  0.0511  0.3013 -0.4797
   60CHL1   C19 6886   2.526   6.057  10.256 -0.4962  0.0777  0.5560
   60CHL1  H19A 6887   2.558   6.074  10.361  0.6667 -1.2469  0.4286
   60CHL1  H19B 6888   2.445   5.981  10.247 -0.3394 -0.1071  0.7182
   60CHL1  H19C 6889   2.614   6.003  10.215  0.8127  0.3545  2.9262
   60CHL1    C1 6890   2.624   6.259  10.149 -0.5133 -0.9212  1.0970
   60CHL1   H1A 6891   2.694   6.206  10.081 -0.9464 -1.4611  1.0717
   60CHL1   H1B 6892   2.600   6.345  10.083  1.9562 -2.5885 -2.1115
   60CHL1    C2 6893   2.698   6.322  10.266  0.1352 -0.2537 -0.1263
   60CHL1   H2A 6894   2.789   6.375  10.231  1.1711 -2.0166 -0.1607
   60CHL1   H2B 6895   2.733   6.241  10.334 -0.1462  1.0740  1.6252
   60CHL1   C20 6896   2.143   5.860   9.639  0.3075  0.2493  0.3276
   60CHL1   H20 6897   2.118   5.776   9.708 -1.6733 -0.4488 -1.2014
   60CHL1   C21 6898   2.271   5.832   9.564  0.2145  0.4156 -0.9091
   60CHL1  H21A 6899   2.353   5.796   9.629 -1.9789 -1.5346  0.8661
   60CHL1  H21B 6900   2.304   5.918   9.502  1.7940 -0.4294 -1.2717
   60CHL1  H21C 6901   2.263   5.743   9.496 -0.6940 -0.7212  0.6532
   60CHL1   C22 6902   2.031   5.868   9.530 -0.2560  0.3419  0.3418
   60CHL1  H22A 6903   1.944   5.924   9.571  0.1288  1.3963 -0.2760
   60CHL1  H22B 6904   2.073   5.940   9.456  4.5969 -1.3149  1.3331
   60CHL1   C23 6905   1.980   5.738   9.469  0.2632 -0.0067 -0.0721
   60CHL1  H23A 6906   2.063   5.674   9.433  1.0629  0.7196  0.4539
   60CHL1  H23B 6907   1.935   5.678   9.551 -0.5823 -0.7933 -1.0995
   60CHL1   C24 6908   1.886   5.754   9.353  0.5865 -0.0581  0.1911
   60CHL1  H24A 6909   1.792   5.805   9.384 -0.8031 -2.3868 -0.0704
   60CHL1  H24B 6910   1.942   5.813   9.277  2.1744  0.8943  2.0550
   60CHL1   C25 6911   1.836   5.619   9.291 -0.3316  0.1530 -0.7208
   60CHL1   H25 6912   1.929   5.563   9.270 -0.1696  0.1463 -0.0038
   60CHL1   C26 6913   1.758   5.538   9.396  0.7307  0.2133 -0.2944
   60CHL1  H26A 6914   1.690   5.462   9.351  0.2805 -0.1569  0.9971
   60CHL1  H26B 6915   1.812   5.493   9.481 -0.2233 -1.2874 -0.4593
   60CHL1  H26C 6916   1.694   5.610   9.451 -2.7312 -0.0472 -3.7323
   60CHL1   C27 6917   1.757   5.629   9.159 -0.4715  0.1499  0.3334
   60CHL1  H27A 6918   1.718   5.536   9.114  1.4897 -1.2558  1.4624
   60CHL1  H27B 6919   1.676   5.702   9.179 -1.7024 -0.5505 -1.9510
   60CHL1  H27C 6920   1.821   5.673   9.079  0.7033  0.1142  1.2371
   61CHL1    C3 6921   6.353   5.614  10.438  0.8939 -0.5481 -0.2265
   61CHL1    H3 6922   6.363   5.506  10.416  1.0261 -0.4972 -0.4112
   61CHL1    O3 6923   6.342   5.638  10.573  0.4251 -0.6662  0.1019
   61CHL1   H3' 6924   6.331   5.734  10.570 -1.1701 -0.8270  0.4096
   61CHL1    C4 6925   6.479   5.686  10.379  0.2665  0.1581  0.4058
   61CHL1   H4A 6926   6.479   5.794  10.407 -0.0261  0.3516 -0.3320
   61CHL1   H4B 6927   6.560   5.639  10.438 -0.8597 -2.2450  0.1146
   61CHL1    C5 6928   6.490   5.669  10.230  0.0858 -1.1288  0.3853
   61CHL1    C6 6929   6.596   5.599  10.186 -0.2716  0.4110  0.8934
   61CHL1    H6 6930   6.671   5.563  10.258  1.6621  2.1821 -0.1846
   61CHL1    C7 6931   6.623   5.584  10.040 -0.1899 -0.2050 -0.2553
   61CHL1   H7A 6932   6.724   5.611  10.003 -1.9420  1.4675 -4.0600
   61CHL1   H7B 6933   6.593   5.479  10.022 -1.2697  0.0425  0.0725
   61CHL1    C8 6934   6.517   5.657   9.951 -0.1226  0.3356  0.1842
   61CHL1    H8 6935   6.555   5.761   9.948  0.2156  0.2436  1.1754
   61CHL1   C14 6936   6.519   5.606   9.805 -0.0142 -0.1783  0.4893
   61CHL1   H14 6937   6.489   5.499   9.815  1.4542 -0.7457 -0.9764
   61CHL1   C15 6938   6.649   5.595   9.729 -0.1704 -0.9403  0.4578
   61CHL1  H15A 6939   6.696   5.695   9.727  1.3102 -1.6133  0.7767
   61CHL1  H15B 6940   6.715   5.525   9.785 -0.3094 -1.3358  0.1365
   61CHL1   C16 6941   6.614   5.565   9.588  0.0406 -0.4552  0.3721
   61CHL1  H16A 6942   6.672   5.617   9.508 -1.1057 -1.3013 -1.0318
   61CHL1  H16B 6943   6.633   5.457   9.573 -0.3443 -0.8867  2.8321
   61CHL1   C17 6944   6.467   5.609   9.577 -0.1590 -0.3257  0.1394
   61CHL1   H17 6945   6.407   5.515   9.575 -0.1203 -0.3624  0.5826
   61CHL1   C13 6946   6.427   5.675   9.712 -0.1552 -0.1694  0.2510
   61CHL1   C18 6947   6.459   5.826   9.707  0.0597 -0.1666 -0.3666
   61CHL1  H18A 6948   6.556   5.829   9.652  0.9000 -1.6100  0.9917
   61CHL1  H18B 6949   6.383   5.893   9.662 -0.0924  0.4139  0.7268
   61CHL1  H18C 6950   6.467   5.875   9.807 -1.2090 -0.4199 -0.1361
   61CHL1   C12 6951   6.283   5.654   9.767  0.4126 -0.1663 -0.0305
   61CHL1  H12A 6952   6.200   5.684   9.699  0.3994 -1.5249 -0.6319
   61CHL1  H12B 6953   6.277   5.543   9.777 -1.6020 -0.2249 -1.4530
   61CHL1   C11 6954   6.269   5.713   9.908  0.5572 -0.2390 -0.0140
   61CHL1  H11A 6955   6.275   5.824   9.905 -1.3650 -0.1077  0.9049
   61CHL1  H11B 6956   6.171   5.682   9.948  0.4232  2.0569  1.4827
   61CHL1    C9 6957   6.380   5.657  10.008  0.8609  0.3640 -0.3262
   61CHL1    H9 6958   6.351   5.550  10.010  2.4196 -0.0684 -0.2251
   61CHL1   C10 6959   6.376   5.712  10.150  0.2302 -0.2873 -0.4831
   61CHL1   C19 6960   6.380   5.864  10.148  0.4938  0.4342  0.4315
   61CHL1  H19A 6961   6.472   5.896  10.094 -0.6772 -0.6115 -2.2539
   61CHL1  H19B 6962   6.289   5.895  10.093  1.4126  0.4807 -1.1201
   61CHL1  H19C 6963   6.378   5.902  10.252 -1.4248 -2.8977  1.6704
   61CHL1    C1 6964   6.243   5.667  10.214  0.3021  0.0830 -0.2120
   61CHL1   H1A 6965   6.173   5.740  10.167  0.5645  1.7050  1.8252
   61CHL1   H1B 6966   6.219   5.562  10.191  1.1432  0.0271 -0.8719
   61CHL1    C2 6967   6.229   5.679  10.373  0.7324 -0.2175  0.8190
   61CHL1   H2A 6968   6.134   5.630  10.404 -0.9711  1.6815 -1.2573
   61CHL1   H2B 6969   6.232   5.786  10.401 -2.0190  1.1523 -3.7877
   61CHL1   C20 6970   6.431   5.676   9.441 -0.0154  0.5458  0.2164
   61CHL1   H20 6971   6.501   5.763   9.442  1.4656 -0.6165 -0.0371
   61CHL1   C21 6972   6.285   5.725   9.433 -0.0646 -0.0893  0.8198
   61CHL1  H21A 6973   6.214   5.644   9.406 -1.1118  1.4993 -1.2677
   61CHL1  H21B 6974   6.282   5.801   9.352  1.1570 -0.2730  0.5861
   61CHL1  H21C 6975   6.263   5.782   9.525  0.5105  2.0258 -0.3338
   61CHL1   C22 6976   6.467   5.608   9.314  0.6731 -0.0821 -0.0925
   61CHL1  H22A 6977   6.566   5.556   9.319  0.2996 -0.6681  1.3001
   61CHL1  H22B 6978   6.404   5.518   9.296 -0.6628  1.1988 -2.0639
   61CHL1   C23 6979   6.463   5.694   9.187 -0.3511  0.2059  0.4721
   61CHL1  H23A 6980   6.367   5.746   9.169  0.2589  1.3669  0.5358
   61CHL1  H23B 6981   6.531   5.778   9.214  1.5699 -1.4236  0.8734
   61CHL1   C24 6982   6.534   5.625   9.066  0.2345 -0.4163 -0.0072
   61CHL1  H24A 6983   6.634   5.592   9.101  1.1386  2.1201 -0.0707
   61CHL1  H24B 6984   6.477   5.536   9.032 -0.5295  0.3905 -0.8519
   61CHL1   C25 6985   6.552   5.722   8.946 -0.0075 -0.4731 -0.3700
   61CHL1   H25 6986   6.465   5.789   8.932  1.0589  1.3189  1.3434
   61CHL1   C26 6987   6.681   5.806   8.968  0.4617  0.2445  0.5305
   61CHL1  H26A 6988   6.656   5.884   9.043  1.0497  0.7674  0.1917
   61CHL1  H26B 6989   6.768   5.743   8.996 -1.1907 -2.9472 -1.2820
   61CHL1  H26C 6990   6.708   5.854   8.872  0.1398 -0.6316 -0.0006
   61CHL1   C27 6991   6.562   5.636   8.813  0.1794 -0.5085 -0.2151
   61CHL1  H27A 6992   6.496   5.547   8.816  0.7442 -0.9167  0.1842
   61CHL1  H27B 6993   6.528   5.696   8.726  1.1396 -1.5985 -1.3605
   61CHL1  H27C 6994   6.668   5.604   8.801  0.9636  1.3243  1.5324
   62CHL1    C3 6995   0.494   2.239  10.031 -0.0173 -0.6481 -0.5627
   62CHL1    H3 6996   0.413   2.312  10.011  0.9688  0.0239 -2.1788
   62CHL1    O3 6997   0.485   2.195  10.169  0.1342 -0.3954 -0.1234
   62CHL1   H3' 6998   0.397   2.158  10.180  0.2110 -0.5199  0.0847
   62CHL1    C4 6999   0.467   2.118   9.947 -0.1553  1.0212 -0.3150
   62CHL1   H4A 7000   0.539   2.035   9.966 -1.1617  0.3226  0.5322
   62CHL1   H4B 7001   0.366   2.078   9.971  0.3761  0.7841  1.6370
   62CHL1    C5 7002   0.478   2.140   9.802 -0.8284  0.4726  0.1885
   62CHL1    C6 7003   0.386   2.098   9.721  0.8574 -0.2681  0.7209
   62CHL1    H6 7004   0.302   2.040   9.761  0.4010 -0.3567 -0.3616
   62CHL1    C7 7005   0.407   2.108   9.569  0.0433  0.5317  0.4980
   62CHL1   H7A 7006   0.389   2.006   9.529  0.5795  0.5189  0.2986
   62CHL1   H7B 7007   0.330   2.183   9.541 -1.2207 -0.7586  0.4333
   62CHL1    C8 7008   0.540   2.165   9.522 -0.2980 -0.2360 -0.0357
   62CHL1    H8 7009   0.618   2.085   9.517 -0.6451 -0.6331  0.8679
   62CHL1   C14 7010   0.532   2.214   9.383 -0.0728  0.1839 -0.5223
   62CHL1   H14 7011   0.487   2.316   9.393  0.5050  0.5291 -1.4231
   62CHL1   C15 7012   0.442   2.145   9.279 -0.6248 -0.1184 -0.2156
   62CHL1  H15A 7013   0.464   2.036   9.286 -0.3124 -0.3836 -3.9381
   62CHL1  H15B 7014   0.334   2.171   9.281 -0.5631 -0.0015  1.7593
   62CHL1   C16 7015   0.510   2.172   9.145  0.0678 -0.4795  0.1768
   62CHL1  H16A 7016   0.562   2.084   9.100 -1.2968  0.0771 -2.5890
   62CHL1  H16B 7017   0.434   2.210   9.073  0.5965  1.2098  0.5019
   62CHL1   C17 7018   0.618   2.284   9.171  0.1255  0.3470  0.1691
   62CHL1   H17 7019   0.556   2.376   9.174  1.0014  0.9550 -0.3115
   62CHL1   C13 7020   0.663   2.249   9.317 -0.4080  0.2212  0.0916
   62CHL1   C18 7021   0.749   2.116   9.309 -0.4340 -0.4461 -0.2709
   62CHL1  H18A 7022   0.841   2.143   9.252 -0.6273  1.6889  0.3699
   62CHL1  H18B 7023   0.784   2.076   9.407  0.3690  0.0327 -0.3545
   62CHL1  H18C 7024   0.694   2.038   9.252  0.1345  0.6623 -2.3895
   62CHL1   C12 7025   0.728   2.357   9.403 -0.4604 -0.0570 -0.7630
   62CHL1  H12A 7026   0.832   2.382   9.372 -0.7735  0.5774 -1.3307
   62CHL1  H12B 7027   0.669   2.451   9.398  0.0245  0.3333  0.7093
   62CHL1   C11 7028   0.743   2.322   9.553  0.8993 -0.0757  0.1652
   62CHL1  H11A 7029   0.815   2.237   9.562  1.7977  0.7977  1.3898
   62CHL1  H11B 7030   0.771   2.413   9.609 -0.8325  0.8285 -0.4082
   62CHL1    C9 7031   0.608   2.270   9.613  0.4387  0.2103 -0.0598
   62CHL1    H9 7032   0.543   2.360   9.620  0.6790  0.3534  0.3258
   62CHL1   C10 7033   0.608   2.216   9.761 -0.3721 -0.0335 -0.1362
   62CHL1   C19 7034   0.738   2.123   9.773 -0.4863 -0.3602 -0.4959
   62CHL1  H19A 7035   0.736   2.054   9.686  0.9331  0.1350 -0.9292
   62CHL1  H19B 7036   0.835   2.176   9.775 -0.7948  0.1841  0.3967
   62CHL1  H19C 7037   0.732   2.060   9.864 -0.4361  0.5136  0.1119
   62CHL1    C1 7038   0.637   2.339   9.860 -0.3633  0.0097  0.4267
   62CHL1   H1A 7039   0.741   2.369   9.833 -0.5201 -1.3518 -1.8034
   62CHL1   H1B 7040   0.565   2.421   9.839 -0.1867 -0.3653 -1.7767
   62CHL1    C2 7041   0.631   2.300  10.011  0.8436  0.1507 -0.2434
   62CHL1   H2A 7042   0.640   2.386  10.080 -1.8776  0.9323 -0.8149
   62CHL1   H2B 7043   0.719   2.235  10.029  1.9958  1.5266 -0.8200
   62CHL1   C20 7044   0.712   2.290   9.052 -0.5067  0.6538  0.4566
   62CHL1   H20 7045   0.747   2.187   9.032 -2.3875 -0.1284  1.0515
   62CHL1   C21 7046   0.834   2.372   9.096 -0.4739 -0.2082  0.1844
   62CHL1  H21A 7047   0.889   2.414   9.009  0.7717 -1.2164  0.4590
   62CHL1  H21B 7048   0.910   2.309   9.147  0.7006 -0.4215 -1.7445
   62CHL1  H21C 7049   0.814   2.458   9.162 -3.7283 -0.1820 -0.7661
   62CHL1   C22 7050   0.641   2.357   8.931 -0.0650 -0.1119 -0.1150
   62CHL1  H22A 7051   0.542   2.308   8.919  0.6686 -2.0349  1.4408
   62CHL1  H22B 7052   0.638   2.464   8.964  2.3892 -0.1963  0.4759
   62CHL1   C23 7053   0.718   2.362   8.796  1.1752  0.4831 -0.7760
   62CHL1  H23A 7054   0.823   2.394   8.816  0.7223  0.8028  1.1960
   62CHL1  H23B 7055   0.730   2.254   8.770 -1.4529  0.0949 -0.5127
   62CHL1   C24 7056   0.652   2.422   8.678  0.3471  0.4365  0.2611
   62CHL1  H24A 7057   0.550   2.381   8.660  0.4936 -0.4696  1.4550
   62CHL1  H24B 7058   0.633   2.530   8.693  0.8072  0.3603  1.4006
   62CHL1   C25 7059   0.736   2.422   8.551  0.2801 -0.0253  0.4538
   62CHL1   H25 7060   0.672   2.464   8.470 -0.0426  0.8064  1.1254
   62CHL1   C26 7061   0.853   2.517   8.565  0.2065  1.0464 -0.6322
   62CHL1  H26A 7062   0.882   2.529   8.459 -0.1236 -1.2694 -1.0050
   62CHL1  H26B 7063   0.821   2.614   8.609  0.9289  0.3605  1.5014
   62CHL1  H26C 7064   0.933   2.471   8.627 -0.3267  0.8418 -0.0810
   62CHL1   C27 7065   0.765   2.278   8.513 -0.1596  0.5106  0.6332
   62CHL1  H27A 7066   0.835   2.233   8.586 -0.8660 -0.9990  0.3962
   62CHL1  H27B 7067   0.669   2.224   8.507 -0.1001  0.5640 -1.1488
   62CHL1  H27C 7068   0.807   2.275   8.409 -0.6861  0.3621  0.4254
   63CHL1    C3 7069   1.829   3.754  10.225  0.4387 -0.3506  0.2194
   63CHL1    H3 7070   1.811   3.646  10.204  0.8472 -0.6244  1.2453
   63CHL1    O3 7071   1.778   3.789  10.353  0.5144  0.0227  0.2976
   63CHL1   H3' 7072   1.750   3.881  10.346 -0.9852 -0.3556  1.0577
   63CHL1    C4 7073   1.976   3.800  10.215 -0.5478 -0.8520  0.7862
   63CHL1   H4A 7074   1.988   3.905  10.247  0.3431 -0.3561 -1.1283
   63CHL1   H4B 7075   2.026   3.749  10.301  0.8814  0.4425  0.7273
   63CHL1    C5 7076   2.036   3.785  10.075 -0.4300  0.0641 -0.2892
   63CHL1    C6 7077   2.149   3.728  10.040  0.4257  0.1539 -0.5152
   63CHL1    H6 7078   2.213   3.695  10.123  1.8157  2.5618 -0.5896
   63CHL1    C7 7079   2.198   3.713   9.902 -0.9695  0.3292  0.4148
   63CHL1   H7A 7080   2.307   3.732   9.906 -0.9323  0.0077  1.0208
   63CHL1   H7B 7081   2.177   3.605   9.889 -0.0842  0.2574 -0.4511
   63CHL1    C8 7082   2.125   3.798   9.795  0.0146 -0.3052 -0.2239
   63CHL1    H8 7083   2.163   3.902   9.792  0.9446 -0.6876 -2.1472
   63CHL1   C14 7084   2.159   3.737   9.659 -0.7711 -0.1165 -0.3186
   63CHL1   H14 7085   2.133   3.630   9.674 -1.3201  0.0039 -0.3868
   63CHL1   C15 7086   2.306   3.734   9.608  0.3872 -0.7861  1.1736
   63CHL1  H15A 7087   2.356   3.833   9.618 -1.4989  0.1478  1.6631
   63CHL1  H15B 7088   2.377   3.662   9.653  0.9389 -2.1046 -1.6856
   63CHL1   C16 7089   2.287   3.702   9.461 -0.5737  0.1148  0.6825
   63CHL1  H16A 7090   2.341   3.774   9.396  0.7567 -1.3494  0.1405
   63CHL1  H16B 7091   2.315   3.596   9.443 -0.0936  0.3652 -0.0695
   63CHL1   C17 7092   2.140   3.706   9.430 -0.0410  0.0144 -0.2210
   63CHL1   H17 7093   2.085   3.610   9.443 -0.4496  0.5571  2.3003
   63CHL1   C13 7094   2.080   3.796   9.544 -0.2577 -0.2078 -0.7584
   63CHL1   C18 7095   2.114   3.941   9.521  0.0644  0.2557  0.0737
   63CHL1  H18A 7096   2.093   3.998   9.614  1.7568 -1.8126  1.7757
   63CHL1  H18B 7097   2.222   3.943   9.492 -0.0483 -2.8119 -0.7112
   63CHL1  H18C 7098   2.054   3.980   9.436  2.7028  3.1947 -0.5467
   63CHL1   C12 7099   1.932   3.798   9.574 -0.8789 -0.0492 -0.2422
   63CHL1  H12A 7100   1.865   3.852   9.503 -1.1369 -0.4087 -0.2695
   63CHL1  H12B 7101   1.913   3.689   9.561  3.3073 -0.7458 -1.1980
   63CHL1   C11 7102   1.893   3.850   9.709 -0.1909  0.1772 -0.7637
   63CHL1  H11A 7103   1.902   3.961   9.709 -0.0560  0.1722  1.4542
   63CHL1  H11B 7104   1.786   3.828   9.732 -0.2222  1.2674  0.1391
   63CHL1    C9 7105   1.977   3.785   9.823 -0.1409  0.1273  0.2814
   63CHL1    H9 7106   1.961   3.675   9.820  0.8869 -0.0398  0.7053
   63CHL1   C10 7107   1.946   3.842   9.967 -0.5054  0.0050 -0.4487
   63CHL1   C19 7108   1.950   3.998   9.968  0.2015  0.2428 -0.1829
   63CHL1  H19A 7109   2.043   4.039   9.922 -0.6093  0.3692 -1.7441
   63CHL1  H19B 7110   1.874   4.044   9.901 -0.9307 -0.2928  0.7105
   63CHL1  H19C 7111   1.941   4.041  10.070  1.5513 -0.3646  0.2020
   63CHL1    C1 7112   1.800   3.794   9.994 -0.2514  0.5130  0.3096
   63CHL1   H1A 7113   1.725   3.835   9.923 -2.5970 -0.4042  2.1714
   63CHL1   H1B 7114   1.792   3.684   9.979 -0.3776  0.7850 -1.8468
   63CHL1    C2 7115   1.752   3.832  10.130  0.3305 -0.3492  0.1658
   63CHL1   H2A 7116   1.645   3.801  10.135  0.4136 -1.2886 -2.6404
   63CHL1   H2B 7117   1.759   3.941  10.148 -0.7067 -0.5379  1.7802
   63CHL1   C20 7118   2.106   3.744   9.285 -0.0765  0.4490  0.3377
   63CHL1   H20 7119   2.130   3.852   9.279 -0.6022  0.6333  1.5281
   63CHL1   C21 7120   1.959   3.717   9.253  0.2854 -0.4639 -0.7884
   63CHL1  H21A 7121   1.891   3.783   9.312 -1.8234 -3.7504  0.5810
   63CHL1  H21B 7122   1.928   3.615   9.283 -1.8044  0.5112  0.4824
   63CHL1  H21C 7123   1.941   3.725   9.143 -2.7606  1.0407 -0.2413
   63CHL1   C22 7124   2.195   3.674   9.176  0.8875  1.3250  0.6392
   63CHL1  H22A 7125   2.164   3.717   9.077  2.5361  1.9917  0.3935
   63CHL1  H22B 7126   2.302   3.694   9.201  0.8787 -0.0758  1.7794
   63CHL1   C23 7127   2.185   3.513   9.169 -0.2862 -0.0086 -0.2843
   63CHL1  H23A 7128   2.227   3.481   9.266 -1.5015 -0.7598  0.0001
   63CHL1  H23B 7129   2.084   3.472   9.148  0.2626 -1.1890 -0.6685
   63CHL1   C24 7130   2.285   3.466   9.064 -0.4887  0.8124  0.7472
   63CHL1  H24A 7131   2.248   3.490   8.962 -0.8338  1.9926  1.1405
   63CHL1  H24B 7132   2.378   3.521   9.088  0.2313 -0.3669  0.6896
   63CHL1   C25 7133   2.308   3.310   9.071  0.3318 -0.2408 -0.5516
   63CHL1   H25 7134   2.337   3.280   9.174 -1.3827 -0.5242 -0.1322
   63CHL1   C26 7135   2.184   3.228   9.051  0.5575  0.1639  0.2192
   63CHL1  H26A 7136   2.114   3.238   9.137 -1.0505  0.2831 -1.0797
   63CHL1  H26B 7137   2.130   3.270   8.964  1.4902  0.1129 -0.3770
   63CHL1  H26C 7138   2.215   3.123   9.029  0.2743  0.9239 -4.2294
   63CHL1   C27 7139   2.419   3.264   8.973 -0.6091  0.2405 -0.8283
   63CHL1  H27A 7140   2.393   3.300   8.872  1.2645  1.6722 -0.8325
   63CHL1  H27B 7141   2.514   3.315   9.001 -2.2086  2.8204  0.1178
   63CHL1  H27C 7142   2.434   3.154   8.984 -0.5912  0.2961 -0.2721
   64CHL1    C3 7143   0.954   3.178  10.117 -0.3355 -0.0356 -0.1967
   64CHL1    H3 7144   0.968   3.068  10.128 -2.6074 -0.2724  0.4659
   64CHL1    O3 7145   0.881   3.215  10.230  0.0504 -0.0041  0.2973
   64CHL1   H3' 7146   0.883   3.309  10.251  1.9252 -0.3390  1.7043
   64CHL1    C4 7147   1.088   3.248  10.111  0.0553  0.1928 -0.4076
   64CHL1   H4A 7148   1.060   3.355  10.113  0.3251  0.2692 -0.7023
   64CHL1   H4B 7149   1.145   3.238  10.206 -0.2090  2.1683 -0.0362
   64CHL1    C5 7150   1.167   3.214   9.980  0.5522  0.3985 -0.5432
   64CHL1    C6 7151   1.289   3.171   9.994  0.8013  0.1886  0.2420
   64CHL1    H6 7152   1.346   3.170  10.088  0.4277 -0.4853  0.4655
   64CHL1    C7 7153   1.373   3.138   9.876 -0.2278  0.6218  0.2760
   64CHL1   H7A 7154   1.464   3.200   9.890 -0.3279  0.3559  2.2395
   64CHL1   H7B 7155   1.399   3.030   9.872 -2.0421  0.0957  1.8792
   64CHL1    C8 7156   1.311   3.169   9.735 -0.0497 -1.1191 -0.5674
   64CHL1    H8 7157   1.326   3.278   9.722 -1.5044 -0.6140  1.8110
   64CHL1   C14 7158   1.373   3.083   9.624  0.1610  0.2806  0.2559
   64CHL1   H14 7159   1.343   2.979   9.649  0.1695  0.4982  1.1642
   64CHL1   C15 7160   1.527   3.083   9.620 -0.2752  0.1127  0.8455
   64CHL1  H15A 7161   1.564   3.187   9.631  0.5934 -0.0866 -0.0611
   64CHL1  H15B 7162   1.558   3.016   9.703  0.2114  0.6811  1.1262
   64CHL1   C16 7163   1.560   3.046   9.481 -0.3716  0.0720 -0.3551
   64CHL1  H16A 7164   1.630   3.121   9.439  0.4666 -0.7090 -0.3775
   64CHL1  H16B 7165   1.617   2.951   9.492 -4.1522 -2.3959 -0.9870
   64CHL1   C17 7166   1.421   3.017   9.411  0.1629  0.0088  0.7148
   64CHL1   H17 7167   1.394   2.910   9.422 -1.7333  0.1975 -1.7863
   64CHL1   C13 7168   1.320   3.108   9.484  0.7658  0.2035 -0.3190
   64CHL1   C18 7169   1.348   3.259   9.449  0.1936 -0.2851 -0.3543
   64CHL1  H18A 7170   1.453   3.293   9.463  0.0152  1.6867 -3.2653
   64CHL1  H18B 7171   1.325   3.294   9.346 -0.3036  0.3000 -0.0522
   64CHL1  H18C 7172   1.293   3.332   9.512  1.7509  0.8277 -0.2412
   64CHL1   C12 7173   1.165   3.075   9.481 -0.4959  0.1505 -0.3810
   64CHL1  H12A 7174   1.128   3.112   9.383  0.7074  1.8286 -0.2251
   64CHL1  H12B 7175   1.137   2.968   9.479 -1.3094  0.3507 -0.0833
   64CHL1   C11 7176   1.096   3.152   9.592 -0.2012 -0.2779 -0.4084
   64CHL1  H11A 7177   1.110   3.258   9.562  0.6164  0.0266  0.9918
   64CHL1  H11B 7178   0.985   3.140   9.594 -0.2747  0.2607  2.9197
   64CHL1    C9 7179   1.159   3.142   9.733 -0.5741  0.6545  0.3773
   64CHL1    H9 7180   1.145   3.035   9.761  1.8816 -0.0160 -0.7747
   64CHL1   C10 7181   1.084   3.222   9.847  0.5650 -0.9367  0.0843
   64CHL1   C19 7182   1.067   3.377   9.804  0.6501  0.6562 -0.4344
   64CHL1  H19A 7183   1.167   3.406   9.766  0.0328  1.8929 -1.1338
   64CHL1  H19B 7184   0.990   3.385   9.724 -0.0499 -0.5815  0.0940
   64CHL1  H19C 7185   1.031   3.442   9.887  0.5801  1.1312 -0.8354
   64CHL1    C1 7186   0.948   3.159   9.870  0.3281 -0.1700 -0.3722
   64CHL1   H1A 7187   0.886   3.199   9.787 -0.7234 -0.6814  0.1616
   64CHL1   H1B 7188   0.947   3.048   9.865  1.1561 -0.2337  0.6966
   64CHL1    C2 7189   0.866   3.199   9.998 -0.5793 -0.5051  0.2285
   64CHL1   H2A 7190   0.775   3.136  10.002 -0.9413  0.1268  2.3897
   64CHL1   H2B 7191   0.824   3.301   9.979  0.6410  0.0758  0.5948
   64CHL1   C20 7192   1.439   3.042   9.256  0.5384 -0.9914  0.6230
   64CHL1   H20 7193   1.464   3.150   9.243 -1.2828 -0.3148  2.4736
   64CHL1   C21 7194   1.308   3.009   9.179 -0.2333  0.7322 -0.0940
   64CHL1  H21A 7195   1.294   2.899   9.185  0.3420  0.7816  2.9271
   64CHL1  H21B 7196   1.331   3.035   9.073  0.1712 -2.0458 -0.7057
   64CHL1  H21C 7197   1.215   3.061   9.209  0.3583  0.9097  1.4650
   64CHL1   C22 7198   1.565   2.966   9.191  0.5030 -0.1398  0.4000
   64CHL1  H22A 7199   1.655   3.025   9.220  0.2684  0.2788  0.2820
   64CHL1  H22B 7200   1.580   2.868   9.241 -1.5953  0.7506  2.8658
   64CHL1   C23 7201   1.571   2.944   9.038  1.0585  0.0328 -0.0418
   64CHL1  H23A 7202   1.520   2.847   9.020  1.1405 -0.1121  0.5067
   64CHL1  H23B 7203   1.513   3.021   8.983  4.0165  2.2697 -0.1276
   64CHL1   C24 7204   1.708   2.945   8.987 -0.7990  0.0328 -1.0350
   64CHL1  H24A 7205   1.734   3.053   8.992 -1.2614  0.1592 -1.3188
   64CHL1  H24B 7206   1.778   2.886   9.051 -0.8347 -0.0828 -1.1030
   64CHL1   C25 7207   1.727   2.881   8.846  0.2331  0.2579 -0.5727
   64CHL1   H25 7208   1.687   2.779   8.859  1.6132 -0.2477 -0.2062
   64CHL1   C26 7209   1.645   2.954   8.741  0.9253  0.4344  0.4367
   64CHL1  H26A 7210   1.660   2.899   8.646  0.4281 -1.8323  1.6258
   64CHL1  H26B 7211   1.538   2.967   8.768  0.9309  1.5324 -0.0410
   64CHL1  H26C 7212   1.691   3.053   8.723  0.8397  0.2406 -0.8936
   64CHL1   C27 7213   1.875   2.870   8.798 -0.0652 -0.2675 -0.0979
   64CHL1  H27A 7214   1.919   2.793   8.866  0.8763  0.6630  0.3507
   64CHL1  H27B 7215   1.897   2.821   8.701  1.8237 -0.3552  0.3480
   64CHL1  H27C 7216   1.926   2.968   8.803  0.5026 -0.6588  2.7228
   65CHL1    C3 7217   3.137   0.242  10.208  0.6479  0.2773  0.6687
   65CHL1    H3 7218   3.031   0.212  10.193 -0.2206  3.7155 -0.5199
   65CHL1    O3 7219   3.181   0.226  10.339 -0.6596  0.2537  0.2196
   65CHL1   H3' 7220   3.276   0.213  10.330 -0.8841 -0.7633 -0.8880
   65CHL1    C4 7221   3.225   0.161  10.117 -0.1917  0.2737  0.7003
   65CHL1   H4A 7222   3.333   0.180  10.130  0.4415 -1.4338 -1.8529
   65CHL1   H4B 7223   3.212   0.057  10.153  1.3539 -0.6865 -1.4660
   65CHL1    C5 7224   3.186   0.184   9.977 -0.7654  0.1887  0.7614
   65CHL1    C6 7225   3.154   0.081   9.897 -0.2225 -0.2440 -0.3090
   65CHL1    H6 7226   3.168  -0.023   9.932 -0.6772 -0.3820 -0.5267
   65CHL1    C7 7227   3.125   0.098   9.749  0.0338 -0.0489 -0.9276
   65CHL1   H7A 7228   3.180   0.020   9.693 -1.3865 -3.1321  1.8568
   65CHL1   H7B 7229   3.017   0.083   9.727  0.1944 -2.8382  0.0874
   65CHL1    C8 7230   3.166   0.235   9.702  0.5296 -0.5000  0.2502
   65CHL1    H8 7231   3.277   0.226   9.692  0.5354  0.3893 -0.5146
   65CHL1   C14 7232   3.106   0.251   9.556  0.0426  0.5283  0.3820
   65CHL1   H14 7233   2.998   0.235   9.575  0.5018  1.1203  3.6901
   65CHL1   C15 7234   3.153   0.155   9.443 -0.0913  0.7606 -0.0951
   65CHL1  H15A 7235   3.264   0.155   9.444 -0.0545 -2.2031 -0.8009
   65CHL1  H15B 7236   3.122   0.050   9.455 -0.7665  0.7435 -1.9019
   65CHL1   C16 7237   3.100   0.216   9.309 -0.5256  0.2832 -0.7269
   65CHL1  H16A 7238   3.171   0.221   9.224  0.8077 -1.0736  0.2624
   65CHL1  H16B 7239   3.017   0.156   9.267 -1.2831  0.1985  0.8535
   65CHL1   C17 7240   3.058   0.361   9.359  0.2605 -0.1069 -0.7357
   65CHL1   H17 7241   2.948   0.359   9.378  0.7284 -0.8113  2.1279
   65CHL1   C13 7242   3.123   0.388   9.496 -0.1194  0.1567 -0.7523
   65CHL1   C18 7243   3.273   0.418   9.476 -0.4821 -0.4843 -0.5527
   65CHL1  H18A 7244   3.317   0.366   9.388  0.9295  0.4445 -0.4018
   65CHL1  H18B 7245   3.297   0.524   9.452  0.9272 -1.0053 -1.5358
   65CHL1  H18C 7246   3.327   0.380   9.565  1.0538  0.2573 -1.1519
   65CHL1   C12 7247   3.058   0.491   9.595 -0.8602 -0.2351  0.2686
   65CHL1  H12A 7248   3.080   0.591   9.553  3.4369 -0.6847  1.2538
   65CHL1  H12B 7249   2.950   0.469   9.611 -1.1252  1.0957  0.3741
   65CHL1   C11 7250   3.130   0.481   9.735  0.1457  0.2534  0.1564
   65CHL1  H11A 7251   3.233   0.518   9.717 -0.0173 -0.2601 -1.9454
   65CHL1  H11B 7252   3.072   0.548   9.802  0.4524 -1.0490  1.7445
   65CHL1    C9 7253   3.117   0.344   9.794 -0.0426  0.2503 -0.6692
   65CHL1    H9 7254   3.010   0.320   9.808 -0.0769 -0.0363 -1.3739
   65CHL1   C10 7255   3.184   0.332   9.936  0.4025 -0.3743  0.2296
   65CHL1   C19 7256   3.334   0.366   9.931  0.3557 -0.0596  0.5299
   65CHL1  H19A 7257   3.341   0.472   9.899 -3.1368  0.3846  1.0699
   65CHL1  H19B 7258   3.387   0.340  10.025  1.3706 -0.5068 -0.1525
   65CHL1  H19C 7259   3.384   0.315   9.845 -1.3277  1.9386 -1.6751
   65CHL1    C1 7260   3.101   0.412  10.030  0.2000 -0.3452  0.8273
   65CHL1   H1A 7261   3.114   0.521  10.014 -1.6519 -0.0395  1.2073
   65CHL1   H1B 7262   2.995   0.383  10.013 -0.2662  0.9157  1.5236
   65CHL1    C2 7263   3.133   0.388  10.177 -0.6222 -0.0393  0.0601
   65CHL1   H2A 7264   3.052   0.428  10.242 -0.0555  2.0332 -0.4800
   65CHL1   H2B 7265   3.229   0.440  10.195 -1.0995  1.2145 -0.9511
   65CHL1   C20 7266   3.086   0.461   9.251  0.5599  0.0047  0.1877
   65CHL1   H20 7267   3.196   0.463   9.234  0.6617 -0.0055  0.8353
   65CHL1   C21 7268   3.026   0.606   9.287 -0.5591 -0.2718 -0.3120
   65CHL1  H21A 7269   2.925   0.596   9.331 -0.3741  0.4702  0.2848
   65CHL1  H21B 7270   3.041   0.670   9.197  2.0401  0.9075  0.9072
   65CHL1  H21C 7271   3.107   0.646   9.352 -0.1810 -0.4938 -0.6397
   65CHL1   C22 7272   3.011   0.421   9.122 -0.5954  0.6206  0.2032
   65CHL1  H22A 7273   3.044   0.319   9.091  0.4486  0.8697  0.4508
   65CHL1  H22B 7274   2.905   0.412   9.153 -0.2180  0.9064  1.6297
   65CHL1   C23 7275   3.032   0.508   8.996  0.0286 -0.8294  0.4619
   65CHL1  H23A 7276   3.008   0.612   9.024  0.8121  0.1561 -2.3625
   65CHL1  H23B 7277   3.141   0.493   8.980  0.1942 -0.5373  1.3006
   65CHL1   C24 7278   2.942   0.471   8.871  0.5129  0.3774 -0.1120
   65CHL1  H24A 7279   2.958   0.367   8.833 -2.7789 -0.7393  1.3263
   65CHL1  H24B 7280   2.837   0.488   8.902  1.2649  1.1941  2.0339
   65CHL1   C25 7281   2.961   0.575   8.752  0.7011  0.0900  0.0264
   65CHL1   H25 7282   2.932   0.672   8.797 -0.7906 -0.0136 -0.6703
   65CHL1   C26 7283   3.102   0.574   8.701 -0.4886  0.2266 -0.0172
   65CHL1  H26A 7284   3.096   0.618   8.599 -0.3312 -1.9214 -0.9849
   65CHL1  H26B 7285   3.168   0.636   8.766  0.3170 -0.7679  0.1353
   65CHL1  H26C 7286   3.148   0.473   8.688  2.2120  1.4171 -0.0649
   65CHL1   C27 7287   2.872   0.533   8.637  0.6153  0.5521 -0.5561
   65CHL1  H27A 7288   2.895   0.427   8.611  1.7594  0.3428  1.1674
   65CHL1  H27B 7289   2.765   0.525   8.664  0.4238 -0.6022 -1.6092
   65CHL1  H27C 7290   2.876   0.605   8.553 -3.9129 -0.3281 -1.6526
   66CHL1    C3 7291   1.300   4.974  10.620  0.6969  0.1376  0.5245
   66CHL1    H3 7292   1.321   4.869  10.590 -0.7092  0.2912 -1.0449
   66CHL1    O3 7293   1.337   4.998  10.754 -0.3080 -0.2227 -0.1308
   66CHL1   H3' 7294   1.290   5.079  10.776  1.2404  0.7013 -0.1339
   66CHL1    C4 7295   1.371   5.075  10.523 -0.0074  0.2614  0.5442
   66CHL1   H4A 7296   1.367   5.174  10.573  0.1295 -0.2277  1.5427
   66CHL1   H4B 7297   1.478   5.044  10.534  0.3077  0.2399 -2.2121
   66CHL1    C5 7298   1.325   5.056  10.377 -0.0117  0.0688  0.0616
   66CHL1    C6 7299   1.401   5.010  10.281 -0.5602  0.1214  0.2574
   66CHL1    H6 7300   1.508   4.989  10.292 -1.0026 -1.5012  1.7229
   66CHL1    C7 7301   1.361   4.973  10.141 -0.8917  0.9530  0.0582
   66CHL1   H7A 7302   1.440   4.998  10.067 -1.5465 -0.3952 -1.1190
   66CHL1   H7B 7303   1.348   4.862  10.141 -1.0065  0.9659  0.2037
   66CHL1    C8 7304   1.231   5.034  10.098  0.1801  0.3021  0.7475
   66CHL1    H8 7305   1.261   5.139  10.074 -0.5689  0.3435 -0.0676
   66CHL1   C14 7306   1.183   4.962   9.974 -0.4659 -0.7042 -0.4037
   66CHL1   H14 7307   1.141   4.865  10.009 -0.1281 -0.7676 -0.1787
   66CHL1   C15 7308   1.280   4.934   9.866  0.1594  0.5466 -0.3495
   66CHL1  H15A 7309   1.357   5.012   9.846 -0.6507  1.4114 -0.1715
   66CHL1  H15B 7310   1.332   4.837   9.881  0.3474  0.4129 -1.7891
   66CHL1   C16 7311   1.183   4.919   9.739  0.4672  0.0502 -0.2657
   66CHL1  H16A 7312   1.221   4.993   9.666 -0.6312 -0.3499 -1.2598
   66CHL1  H16B 7313   1.186   4.815   9.699  3.0972 -0.1840  0.4234
   66CHL1   C17 7314   1.040   4.945   9.780 -0.5212 -0.5832  0.1250
   66CHL1   H17 7315   0.993   4.849   9.810 -0.9550 -1.1783 -2.3783
   66CHL1   C13 7316   1.063   5.030   9.905  0.4688  0.1300  0.7146
   66CHL1   C18 7317   1.089   5.182   9.866 -1.1395  0.9896 -0.2368
   66CHL1  H18A 7318   0.996   5.243   9.859 -0.1918  2.5138  0.1181
   66CHL1  H18B 7319   1.140   5.240   9.947  0.4711  2.0647 -1.9867
   66CHL1  H18C 7320   1.136   5.201   9.768  0.3471  0.3699  0.3389
   66CHL1   C12 7321   0.946   5.031  10.010 -0.0509  1.0105  0.2310
   66CHL1  H12A 7322   0.863   5.095   9.973 -0.1799  0.4765 -0.4171
   66CHL1  H12B 7323   0.911   4.926  10.012  0.2206  0.8869 -0.8961
   66CHL1   C11 7324   0.984   5.077  10.152  0.5953  0.1277 -0.2346
   66CHL1  H11A 7325   0.984   5.187  10.138  0.3297  0.0328 -1.0004
   66CHL1  H11B 7326   0.909   5.045  10.228  0.3261  0.5797 -0.3068
   66CHL1    C9 7327   1.121   5.019  10.202 -0.5338  0.1310 -0.3258
   66CHL1    H9 7328   1.097   4.911  10.210 -1.1921  0.1477 -1.9797
   66CHL1   C10 7329   1.173   5.068  10.349  0.1177  0.1753 -0.1880
   66CHL1   C19 7330   1.133   5.217  10.377  0.5248  0.5578 -0.0100
   66CHL1  H19A 7331   1.162   5.247  10.480  1.7534  0.3217 -0.2752
   66CHL1  H19B 7332   1.191   5.289  10.315  0.4455  0.2932 -0.3952
   66CHL1  H19C 7333   1.023   5.229  10.362  0.1905 -0.2052  1.7305
   66CHL1    C1 7334   1.112   4.974  10.462 -0.6832 -0.2282 -0.4429
   66CHL1   H1A 7335   1.003   4.989  10.448 -0.7259  0.9122  0.9649
   66CHL1   H1B 7336   1.125   4.870  10.425 -0.9466 -0.9546  1.4683
   66CHL1    C2 7337   1.152   4.982  10.609  0.4511 -0.3930 -0.2244
   66CHL1   H2A 7338   1.097   4.901  10.663  1.4368  0.0961  1.5681
   66CHL1   H2B 7339   1.121   5.078  10.653  0.2634  0.5851 -2.4445
   66CHL1   C20 7340   0.951   5.004   9.671 -0.7885  0.5669 -0.4243
   66CHL1   H20 7341   0.986   5.104   9.637 -1.6501  1.4830  1.3327
   66CHL1   C21 7342   0.814   5.025   9.726  0.0929  0.2763  1.2223
   66CHL1  H21A 7343   0.737   5.006   9.648 -0.4799 -0.0170  1.8515
   66CHL1  H21B 7344   0.808   5.131   9.759 -0.5584  0.8262 -0.5930
   66CHL1  H21C 7345   0.778   4.958   9.806  0.9780 -0.3018  1.1473
   66CHL1   C22 7346   0.949   4.918   9.544 -0.0063 -0.5403 -0.2101
   66CHL1  H22A 7347   1.005   4.824   9.560 -0.7776 -1.6581 -3.6573
   66CHL1  H22B 7348   0.840   4.904   9.530  0.3958 -1.4143 -2.6308
   66CHL1   C23 7349   1.006   4.985   9.423 -0.2327  0.3107 -0.7850
   66CHL1  H23A 7350   0.968   5.088   9.409 -1.4495  0.0312  0.3606
   66CHL1  H23B 7351   1.116   4.995   9.436 -0.1212 -0.3436 -1.2131
   66CHL1   C24 7352   0.963   4.909   9.297  0.4624 -0.4206  0.2422
   66CHL1  H24A 7353   1.042   4.916   9.218 -0.3794  0.6543 -0.5151
   66CHL1  H24B 7354   0.936   4.802   9.305  2.3577 -1.0445 -1.4220
   66CHL1   C25 7355   0.832   4.952   9.228  0.3805  0.0351  0.3598
   66CHL1   H25 7356   0.861   5.050   9.185  0.6553 -1.1114 -2.1133
   66CHL1   C26 7357   0.803   4.854   9.110 -0.5303  0.2924 -0.2177
   66CHL1  H26A 7358   0.703   4.878   9.068  0.1457  1.7267 -1.0198
   66CHL1  H26B 7359   0.888   4.874   9.043 -0.6362 -0.4924 -0.5927
   66CHL1  H26C 7360   0.803   4.747   9.142  2.4217  0.6206  1.0261
   66CHL1   C27 7361   0.709   4.976   9.314 -0.4351  0.7200 -0.2260
   66CHL1  H27A 7362   0.620   4.983   9.248 -0.3448  1.3795 -0.2784
   66CHL1  H27B 7363   0.695   4.883   9.373  1.9105  0.4002 -0.1115
   66CHL1  H27C 7364   0.719   5.064   9.381  0.2671 -1.6370  2.8881
   67CHL1    C3 7365   5.498   5.587  10.302  0.4009  0.3446  0.1863
   67CHL1    H3 7366   5.592   5.645  10.306 -0.9863  2.6570  0.2653
   67CHL1    O3 7367   5.473   5.552  10.439  0.8553 -0.1931 -0.2404
   67CHL1   H3' 7368   5.551   5.502  10.464 -0.0603 -0.8998  1.2588
   67CHL1    C4 7369   5.383   5.676  10.245 -0.0655  0.6499 -0.2005
   67CHL1   H4A 7370   5.281   5.631  10.253  0.2465  0.4532  2.9626
   67CHL1   H4B 7371   5.386   5.768  10.306 -0.9214  0.5141  0.0565
   67CHL1    C5 7372   5.410   5.713  10.097 -0.2460 -0.5190 -0.3357
   67CHL1    C6 7373   5.418   5.839  10.048 -0.9293  0.4652  0.3622
   67CHL1    H6 7374   5.399   5.921  10.120 -0.3666 -0.6991  1.8635
   67CHL1    C7 7375   5.447   5.873   9.910  0.0120  0.3331 -0.5201
   67CHL1   H7A 7376   5.398   5.968   9.880  0.3573  1.1058  1.3070
   67CHL1   H7B 7377   5.557   5.889   9.902  0.1750 -1.4031 -2.4634
   67CHL1    C8 7378   5.416   5.755   9.805  0.3115 -0.5846  0.3588
   67CHL1    H8 7379   5.306   5.736   9.797  0.5561 -1.2403 -1.6421
   67CHL1   C14 7380   5.468   5.784   9.667  0.5539 -0.2973 -0.1440
   67CHL1   H14 7381   5.577   5.803   9.677  0.7734 -0.3733 -2.1996
   67CHL1   C15 7382   5.426   5.912   9.596  0.2844  0.6805  0.1404
   67CHL1  H15A 7383   5.317   5.935   9.600  0.2176  0.8445 -2.2732
   67CHL1  H15B 7384   5.474   6.003   9.637  0.8195  1.6945 -2.6364
   67CHL1   C16 7385   5.464   5.897   9.448  0.9559 -0.7581  0.1071
   67CHL1  H16A 7386   5.378   5.923   9.383  1.4318  0.6293  0.0334
   67CHL1  H16B 7387   5.543   5.971   9.423 -1.6433  2.5964  1.4316
   67CHL1   C17 7388   5.515   5.747   9.440 -0.3503 -0.4450 -0.3168
   67CHL1   H17 7389   5.623   5.737   9.463 -0.7679 -1.6052  1.2208
   67CHL1   C13 7390   5.454   5.676   9.563 -0.1744  0.0733 -0.0766
   67CHL1   C18 7391   5.311   5.635   9.532 -0.4629  0.3738  0.0851
   67CHL1  H18A 7392   5.260   5.613   9.629 -1.6365  1.3382 -0.2955
   67CHL1  H18B 7393   5.268   5.732   9.500 -0.8344 -0.2673 -1.3801
   67CHL1  H18C 7394   5.301   5.551   9.460 -1.9734 -0.9313  1.7690
   67CHL1   C12 7395   5.535   5.561   9.619 -0.5776 -0.0447  0.4445
   67CHL1  H12A 7396   5.537   5.474   9.550  0.4521  0.8153 -0.6303
   67CHL1  H12B 7397   5.643   5.583   9.631 -0.0199 -1.4573 -1.8471
   67CHL1   C11 7398   5.482   5.518   9.757  0.1401  0.0921  0.7819
   67CHL1  H11A 7399   5.381   5.474   9.748 -0.6363  1.6109  1.8936
   67CHL1  H11B 7400   5.551   5.441   9.799  0.0303 -0.1560  0.5094
   67CHL1    C9 7401   5.483   5.631   9.858  0.4573  0.1645  0.3234
   67CHL1    H9 7402   5.591   5.656   9.868  0.3709  0.7439 -0.1573
   67CHL1   C10 7403   5.435   5.593  10.005  0.1206  0.5871  0.3088
   67CHL1   C19 7404   5.296   5.518   9.993  0.4974  0.5769 -0.7275
   67CHL1  H19A 7405   5.219   5.575   9.936  0.6757  0.1398 -1.4062
   67CHL1  H19B 7406   5.305   5.420   9.942  0.0405  0.3948 -0.4576
   67CHL1  H19C 7407   5.242   5.504  10.089 -0.5906 -0.1728 -1.4314
   67CHL1    C1 7408   5.534   5.498  10.079  0.1191 -0.1897  0.2760
   67CHL1   H1A 7409   5.539   5.407  10.015  2.9990  0.3112 -0.3015
   67CHL1   H1B 7410   5.637   5.536  10.064  0.3634 -0.3768  1.4287
   67CHL1    C2 7411   5.521   5.456  10.222  0.8490  0.3858  0.5349
   67CHL1   H2A 7412   5.606   5.386  10.243  0.8744  0.6556  1.3458
   67CHL1   H2B 7413   5.431   5.394  10.239  1.0622 -0.1582 -0.2935
   67CHL1   C20 7414   5.499   5.682   9.302  0.0032 -0.1722  0.1660
   67CHL1   H20 7415   5.394   5.681   9.266  0.7776 -0.0337 -2.1713
   67CHL1   C21 7416   5.535   5.535   9.302  0.3198 -0.0342 -0.8939
   67CHL1  H21A 7417   5.637   5.528   9.346 -0.9495 -2.2424  1.8418
   67CHL1  H21B 7418   5.535   5.490   9.201  2.1898 -0.6715 -0.6338
   67CHL1  H21C 7419   5.461   5.477   9.362  0.1496  3.3916  2.4016
   67CHL1   C22 7420   5.563   5.768   9.187 -0.5972 -0.5711  1.0706
   67CHL1  H22A 7421   5.532   5.875   9.192  0.6187 -0.1566  0.0656
   67CHL1  H22B 7422   5.673   5.773   9.203 -0.5146 -1.5785  0.8040
   67CHL1   C23 7423   5.530   5.713   9.047  0.3448  0.5173 -0.2012
   67CHL1  H23A 7424   5.554   5.605   9.045  0.5427  0.5699 -1.0019
   67CHL1  H23B 7425   5.420   5.720   9.042  0.3632  1.0512  0.1094
   67CHL1   C24 7426   5.589   5.785   8.923 -0.6155  0.7204 -0.3510
   67CHL1  H24A 7427   5.591   5.895   8.941  1.3518  0.6885 -0.3353
   67CHL1  H24B 7428   5.695   5.752   8.921 -1.3104 -1.6191 -0.1011
   67CHL1   C25 7429   5.525   5.759   8.782 -0.3051 -0.7352  0.2882
   67CHL1   H25 7430   5.612   5.769   8.713  1.4601 -0.3814  2.5214
   67CHL1   C26 7431   5.483   5.616   8.774  0.1557  0.5542  0.1838
   67CHL1  H26A 7432   5.459   5.600   8.667  2.7670  1.2074 -0.5407
   67CHL1  H26B 7433   5.559   5.543   8.809 -1.3087  0.2527  2.8252
   67CHL1  H26C 7434   5.398   5.598   8.842 -1.4895  1.3265 -1.6076
   67CHL1   C27 7435   5.409   5.851   8.740  0.5210  0.6449 -0.9862
   67CHL1  H27A 7436   5.387   5.839   8.632  1.3271 -3.2337 -0.7629
   67CHL1  H27B 7437   5.320   5.820   8.799  1.7990 -0.2692  0.4928
   67CHL1  H27C 7438   5.438   5.956   8.762 -0.2907  0.6133  0.3077
   68CHL1    C3 7439   3.753   6.727  10.302  0.2768  0.2241 -0.3479
   68CHL1    H3 7440   3.779   6.823  10.252 -1.3612 -0.7602 -3.2639
   68CHL1    O3 7441   3.767   6.733  10.439  0.0953  0.4749  0.2270
   68CHL1   H3' 7442   3.760   6.639  10.460  3.3260  0.2545  0.6443
   68CHL1    C4 7443   3.607   6.692  10.271  0.0260  0.4342 -0.4889
   68CHL1   H4A 7444   3.581   6.604  10.334 -0.0502 -1.1975 -2.7573
   68CHL1   H4B 7445   3.549   6.780  10.307  0.5396  0.3048  0.6964
   68CHL1    C5 7446   3.582   6.676  10.121 -0.1337 -0.2088 -0.5441
   68CHL1    C6 7447   3.500   6.755  10.052 -0.3138 -0.5894 -0.2281
   68CHL1    H6 7448   3.450   6.834  10.110 -1.1145 -1.1158 -0.1828
   68CHL1    C7 7449   3.465   6.737   9.906 -0.0460  0.2513  0.1532
   68CHL1   H7A 7450   3.355   6.745   9.889 -0.0756  2.4160  1.2010
   68CHL1   H7B 7451   3.522   6.814   9.851 -0.2247 -0.6954 -1.3957
   68CHL1    C8 7452   3.505   6.599   9.851  0.1284 -0.9751 -0.1303
   68CHL1    H8 7453   3.437   6.520   9.890 -2.6908  1.7449  0.6775
   68CHL1   C14 7454   3.506   6.609   9.697 -0.5959 -0.3091 -0.6085
   68CHL1   H14 7455   3.576   6.692   9.675 -0.6003  0.3744  1.8576
   68CHL1   C15 7456   3.375   6.650   9.634  0.2820 -0.2661 -0.0045
   68CHL1  H15A 7457   3.284   6.613   9.686  0.1462  1.5545  1.0814
   68CHL1  H15B 7458   3.374   6.761   9.636  0.2588 -0.2715  0.6194
   68CHL1   C16 7459   3.389   6.596   9.492 -0.3919 -0.1713 -0.9118
   68CHL1  H16A 7460   3.305   6.525   9.482 -0.6205  0.1394 -1.1919
   68CHL1  H16B 7461   3.363   6.676   9.419  0.5565  1.0366  0.0391
   68CHL1   C17 7462   3.519   6.517   9.481  0.1470  0.4505  0.0895
   68CHL1   H17 7463   3.594   6.594   9.455  2.0038 -1.2980  0.1646
   68CHL1   C13 7464   3.557   6.479   9.627  0.1279 -0.2626  0.6431
   68CHL1   C18 7465   3.471   6.357   9.675 -0.3222  0.6620 -0.2348
   68CHL1  H18A 7466   3.524   6.266   9.640 -1.8119  0.4090 -1.8694
   68CHL1  H18B 7467   3.458   6.357   9.786  2.7008  2.6953  0.1683
   68CHL1  H18C 7468   3.381   6.361   9.609 -0.3403  0.8623 -0.1993
   68CHL1   C12 7469   3.707   6.468   9.664  0.0568  0.0724  0.0304
   68CHL1  H12A 7470   3.744   6.377   9.611  0.9651 -0.8262  2.1513
   68CHL1  H12B 7471   3.763   6.554   9.621  1.7807 -1.5691 -1.0714
   68CHL1   C11 7472   3.730   6.465   9.818 -0.4498  0.0962 -0.8865
   68CHL1  H11A 7473   3.688   6.370   9.855 -1.3795  1.3858  1.4826
   68CHL1  H11B 7474   3.839   6.466   9.840 -0.5768  1.1354 -0.2648
   68CHL1    C9 7475   3.655   6.573   9.899  0.3187 -0.4938 -1.1051
   68CHL1    H9 7476   3.705   6.671   9.883 -1.7955  1.0007  1.0846
   68CHL1   C10 7477   3.666   6.563  10.055 -0.4230  0.2141 -0.0956
   68CHL1   C19 7478   3.622   6.415  10.102  0.1652  0.7571  0.7945
   68CHL1  H19A 7479   3.593   6.412  10.210  0.9893  2.0004  1.0596
   68CHL1  H19B 7480   3.527   6.382  10.056  0.5186  1.5384 -0.4876
   68CHL1  H19C 7481   3.703   6.342  10.079  0.9493  2.0617 -0.6593
   68CHL1    C1 7482   3.814   6.582  10.102  0.0977 -0.2238  0.0493
   68CHL1   H1A 7483   3.873   6.493  10.074  0.1237 -0.1057 -0.2793
   68CHL1   H1B 7484   3.853   6.665  10.039 -1.5149  1.8099  1.6602
   68CHL1    C2 7485   3.837   6.610  10.254  0.0555  0.1713 -0.1065
   68CHL1   H2A 7486   3.941   6.640  10.281 -0.5793  1.8174  0.6223
   68CHL1   H2B 7487   3.811   6.515  10.303  1.9752 -0.9661 -1.2296
   68CHL1   C20 7488   3.526   6.405   9.373 -0.5011  0.4859 -0.7408
   68CHL1   H20 7489   3.475   6.323   9.429 -0.4819  1.3723  0.5937
   68CHL1   C21 7490   3.659   6.347   9.343  0.1369 -0.1135 -0.2109
   68CHL1  H21A 7491   3.663   6.258   9.276 -0.7433 -2.3809  2.6836
   68CHL1  H21B 7492   3.690   6.292   9.434 -3.3471  1.1369  1.7950
   68CHL1  H21C 7493   3.728   6.430   9.313 -0.3161 -0.0006 -0.9651
   68CHL1   C22 7494   3.447   6.443   9.246  0.1046  0.0233 -0.5978
   68CHL1  H22A 7495   3.420   6.358   9.180 -0.3253  1.2313 -2.0182
   68CHL1  H22B 7496   3.351   6.496   9.263  0.7626  0.9172  0.3876
   68CHL1   C23 7497   3.521   6.545   9.155  0.0060 -0.7366  0.4349
   68CHL1  H23A 7498   3.576   6.633   9.195 -1.9546  0.4298  0.5940
   68CHL1  H23B 7499   3.600   6.480   9.110  0.3761 -0.7256  1.0597
   68CHL1   C24 7500   3.413   6.602   9.067  0.0749  0.7095 -0.0808
   68CHL1  H24A 7501   3.364   6.520   9.010  2.4229 -0.1045 -0.9827
   68CHL1  H24B 7502   3.330   6.652   9.122 -0.2017  0.5961 -0.3872
   68CHL1   C25 7503   3.465   6.717   8.981 -0.3804 -0.6104  0.6829
   68CHL1   H25 7504   3.570   6.732   9.014 -0.1295  0.0293 -0.3662
   68CHL1   C26 7505   3.481   6.683   8.836 -0.6366  0.4231 -0.2285
   68CHL1  H26A 7506   3.389   6.630   8.805 -0.2502 -0.3770 -0.0075
   68CHL1  H26B 7507   3.496   6.774   8.773 -0.8877  1.8802  1.7690
   68CHL1  H26C 7508   3.557   6.606   8.811 -0.9983  0.2705 -0.8904
   68CHL1   C27 7509   3.391   6.848   9.010  0.0082 -0.6737  1.0540
   68CHL1  H27A 7510   3.283   6.856   8.988 -0.1274 -0.9598  1.5997
   68CHL1  H27B 7511   3.408   6.866   9.118 -0.4126 -0.0718  1.0219
   68CHL1  H27C 7512   3.447   6.929   8.958 -0.6570 -1.1894 -0.4813
   69CHL1    C3 7513   2.678   3.562   6.783 -0.0047 -0.1373  1.0191
   69CHL1    H3 7514   2.661   3.452   6.781  3.9116 -0.8431  2.0521
   69CHL1    O3 7515   2.668   3.612   6.649  0.1011 -0.0421 -0.3342
   69CHL1   H3' 7516   2.582   3.591   6.612 -0.3242 -0.2292  0.7401
   69CHL1    C4 7517   2.574   3.630   6.874 -0.0721  0.1440 -0.0369
   69CHL1   H4A 7518   2.586   3.739   6.855 -1.2236 -0.0332 -1.9553
   69CHL1   H4B 7519   2.477   3.602   6.829 -0.0704  1.9304 -1.2189
   69CHL1    C5 7520   2.601   3.609   7.022  0.0557  0.9779  0.9739
   69CHL1    C6 7521   2.507   3.573   7.103  0.2353  0.0949 -0.5031
   69CHL1    H6 7522   2.402   3.569   7.071 -0.7706  1.4413  2.3832
   69CHL1    C7 7523   2.520   3.561   7.254  0.0218 -0.3108  0.0712
   69CHL1   H7A 7524   2.437   3.618   7.302  1.1701  0.1463  1.5420
   69CHL1   H7B 7525   2.496   3.453   7.263 -0.5254 -0.2466 -0.6160
   69CHL1    C8 7526   2.656   3.585   7.304 -0.1090  0.4206 -0.4740
   69CHL1    H8 7527   2.670   3.693   7.330  0.6866  0.2168 -0.0474
   69CHL1   C14 7528   2.687   3.507   7.434  0.3881  0.2355 -0.0415
   69CHL1   H14 7529   2.676   3.401   7.404  0.7508  0.5346 -1.2835
   69CHL1   C15 7530   2.588   3.517   7.553  0.2665  0.1674  0.2717
   69CHL1  H15A 7531   2.551   3.621   7.571  1.4086  0.7718 -0.7165
   69CHL1  H15B 7532   2.500   3.457   7.523  0.5852 -0.1544 -0.0316
   69CHL1   C16 7533   2.659   3.470   7.679 -0.1327  0.2800 -0.3534
   69CHL1  H16A 7534   2.666   3.539   7.766 -0.2741  0.3476 -0.3950
   69CHL1  H16B 7535   2.623   3.371   7.713  0.9798  0.2171  0.6901
   69CHL1   C17 7536   2.809   3.440   7.629  0.3347 -0.1723  0.4496
   69CHL1   H17 7537   2.813   3.334   7.595  0.7887 -0.7506  2.2384
   69CHL1   C13 7538   2.826   3.528   7.498 -0.4151 -0.7908 -0.3878
   69CHL1   C18 7539   2.841   3.676   7.544 -0.1343 -0.0381  0.3510
   69CHL1  H18A 7540   2.765   3.718   7.614  0.4118  2.0017 -0.2359
   69CHL1  H18B 7541   2.944   3.694   7.580  0.1319  0.0456 -0.4378
   69CHL1  H18C 7542   2.833   3.747   7.459  2.8133  0.0386  0.0804
   69CHL1   C12 7543   2.930   3.489   7.394  0.3335  0.1649  0.2712
   69CHL1  H12A 7544   3.033   3.499   7.434 -0.6494 -0.6719  3.1023
   69CHL1  H12B 7545   2.917   3.383   7.366  1.4366  0.4756 -1.5146
   69CHL1   C11 7546   2.908   3.574   7.267  0.3649  0.2950  0.0637
   69CHL1  H11A 7547   2.931   3.681   7.283  0.0335  0.4784 -0.6587
   69CHL1  H11B 7548   2.987   3.545   7.194  0.8605  1.0766  0.2811
   69CHL1    C9 7549   2.764   3.553   7.206 -0.9076 -0.5660  0.1475
   69CHL1    H9 7550   2.750   3.444   7.193 -0.2945 -0.5074 -1.0158
   69CHL1   C10 7551   2.746   3.618   7.065  0.4960  0.0032 -0.9299
   69CHL1   C19 7552   2.807   3.765   7.074 -0.1720 -0.7712 -0.2648
   69CHL1  H19A 7553   2.808   3.808   6.972  1.6437  0.3080  0.1645
   69CHL1  H19B 7554   2.747   3.834   7.137 -0.6763 -0.1243 -1.4528
   69CHL1  H19C 7555   2.915   3.763   7.103 -0.3035 -2.0170  0.1473
   69CHL1    C1 7556   2.844   3.546   6.966 -0.4569  0.3352 -0.8171
   69CHL1   H1A 7557   2.948   3.579   6.989  0.0395 -2.3064  0.8638
   69CHL1   H1B 7558   2.840   3.436   6.980 -0.6686  0.6227  1.5899
   69CHL1    C2 7559   2.826   3.581   6.819 -0.3378  0.4169  0.0467
   69CHL1   H2A 7560   2.898   3.515   6.767 -1.7117 -1.4467  0.4548
   69CHL1   H2B 7561   2.862   3.685   6.803 -0.5137  0.3365 -0.8840
   69CHL1   C20 7562   2.909   3.454   7.742 -0.3435  0.3702 -0.5654
   69CHL1   H20 7563   2.914   3.561   7.770  0.9122  0.1446  0.1137
   69CHL1   C21 7564   3.047   3.412   7.684  0.3748 -0.2845 -0.2854
   69CHL1  H21A 7565   3.092   3.482   7.611 -1.3541  0.9464 -0.1929
   69CHL1  H21B 7566   3.041   3.317   7.627  0.4226 -0.4582  0.0002
   69CHL1  H21C 7567   3.118   3.416   7.770 -2.2215 -0.5757  1.9483
   69CHL1   C22 7568   2.878   3.352   7.856 -0.4554 -0.0531 -0.3867
   69CHL1  H22A 7569   2.775   3.371   7.892 -0.1323 -0.9800  1.0667
   69CHL1  H22B 7570   2.867   3.250   7.814 -1.3665 -0.7962  1.5854
   69CHL1   C23 7571   2.963   3.356   7.980  0.0625 -0.7004 -0.1635
   69CHL1  H23A 7572   2.935   3.264   8.035 -0.7690 -1.5348 -1.9375
   69CHL1  H23B 7573   3.066   3.353   7.938 -0.2339 -1.9539 -0.8391
   69CHL1   C24 7574   2.939   3.481   8.059 -0.1764  0.6156  0.2913
   69CHL1  H24A 7575   2.976   3.564   7.995  2.2103  0.2258  1.1282
   69CHL1  H24B 7576   2.830   3.501   8.074  0.0446  1.1970  1.1708
   69CHL1   C25 7577   3.011   3.476   8.197 -0.7510  0.0585 -0.2347
   69CHL1   H25 7578   3.109   3.428   8.178 -1.6564 -1.3031 -1.6548
   69CHL1   C26 7579   3.013   3.617   8.255 -0.3398  0.1900  0.0091
   69CHL1  H26A 7580   2.916   3.661   8.284 -1.0426 -2.5471  1.9757
   69CHL1  H26B 7581   3.073   3.600   8.347  1.7451  1.3755 -1.0905
   69CHL1  H26C 7582   3.074   3.688   8.196 -1.3870  1.1704  0.0984
   69CHL1   C27 7583   2.949   3.385   8.308 -0.1903 -0.2028  0.5479
   69CHL1  H27A 7584   2.874   3.438   8.372  1.2530  0.1652  1.9671
   69CHL1  H27B 7585   2.901   3.294   8.268 -1.6147  1.0362 -0.6279
   69CHL1  H27C 7586   3.024   3.361   8.386 -0.5426 -2.6531  0.1576
   70CHL1    C3 7587   2.256   1.521   6.994 -0.7337 -0.0461  0.5318
   70CHL1    H3 7588   2.307   1.606   7.044 -0.0573 -0.1432  0.0044
   70CHL1    O3 7589   2.212   1.566   6.864  0.5346 -0.1297  0.4082
   70CHL1   H3' 7590   2.153   1.495   6.837  0.8947 -0.0126 -0.7498
   70CHL1    C4 7591   2.355   1.415   6.968 -0.2464  0.6266  0.4375
   70CHL1   H4A 7592   2.311   1.330   6.912  1.9291 -1.3290  1.5817
   70CHL1   H4B 7593   2.442   1.463   6.918  0.6993 -1.0491  0.4509
   70CHL1    C5 7594   2.400   1.339   7.094 -0.5826  0.7759 -0.5675
   70CHL1    C6 7595   2.525   1.311   7.123  0.1675 -0.0822 -0.9815
   70CHL1    H6 7596   2.600   1.345   7.050  2.6735  0.2208  1.6567
   70CHL1    C7 7597   2.575   1.229   7.239 -0.4105 -0.3454  0.3072
   70CHL1   H7A 7598   2.652   1.155   7.209 -0.5308 -0.1328 -0.5312
   70CHL1   H7B 7599   2.627   1.300   7.307  1.3508  0.8617 -2.2043
   70CHL1    C8 7600   2.464   1.161   7.329 -0.0480 -0.9130 -0.1543
   70CHL1    H8 7601   2.416   1.073   7.281  0.4568 -0.5073 -1.4107
   70CHL1   C14 7602   2.506   1.124   7.465 -0.0846  1.2691 -0.1624
   70CHL1   H14 7603   2.532   1.217   7.521  2.3998 -0.5814  1.8746
   70CHL1   C15 7604   2.626   1.028   7.477 -0.2631 -0.4561 -0.8023
   70CHL1  H15A 7605   2.615   0.939   7.411 -1.4440 -0.3363 -0.7840
   70CHL1  H15B 7606   2.720   1.075   7.440 -0.6845  2.6557  1.8839
   70CHL1   C16 7607   2.621   0.983   7.630 -0.8278  0.2900 -0.3722
   70CHL1  H16A 7608   2.638   0.873   7.629 -4.1174 -0.2671 -0.8820
   70CHL1  H16B 7609   2.712   1.014   7.687  0.2758 -2.2703 -0.6644
   70CHL1   C17 7610   2.487   1.031   7.689 -0.2322 -0.3617  0.4457
   70CHL1   H17 7611   2.506   1.125   7.745  0.7625 -1.1316  1.4371
   70CHL1   C13 7612   2.400   1.062   7.563 -0.0476 -0.4583  0.3639
   70CHL1   C18 7613   2.357   0.928   7.495 -0.4101  0.2822  0.6682
   70CHL1  H18A 7614   2.310   0.946   7.396 -2.2431  0.7027  1.5829
   70CHL1  H18B 7615   2.444   0.859   7.493 -0.7202 -0.0637 -0.7300
   70CHL1  H18C 7616   2.282   0.864   7.547 -1.1841 -0.8214 -1.7656
   70CHL1   C12 7617   2.284   1.163   7.576 -0.1373 -0.0373  0.0874
   70CHL1  H12A 7618   2.194   1.124   7.630 -1.6144  0.5260 -1.8830
   70CHL1  H12B 7619   2.326   1.240   7.643 -0.1827 -0.8429  1.0630
   70CHL1   C11 7620   2.235   1.215   7.445  0.7500  0.3561  0.0589
   70CHL1  H11A 7621   2.155   1.149   7.405  0.5563  2.5358 -3.2916
   70CHL1  H11B 7622   2.178   1.309   7.460  1.8045  0.8618  0.9622
   70CHL1    C9 7623   2.345   1.257   7.342  0.0777  0.3733  0.4266
   70CHL1    H9 7624   2.383   1.341   7.404 -0.8543  0.6007  0.6971
   70CHL1   C10 7625   2.292   1.298   7.199 -0.2079 -0.9504 -0.5525
   70CHL1   C19 7626   2.213   1.177   7.138  0.2164 -0.2460  0.2254
   70CHL1  H19A 7627   2.235   1.168   7.029  1.1210 -3.0291  0.5986
   70CHL1  H19B 7628   2.251   1.081   7.177  1.8174  0.7460  1.1692
   70CHL1  H19C 7629   2.102   1.183   7.149  0.2331 -1.1537  0.9755
   70CHL1    C1 7630   2.195   1.416   7.215  0.5009 -0.2252 -0.5591
   70CHL1   H1A 7631   2.120   1.381   7.290 -1.5609 -1.1222 -2.9567
   70CHL1   H1B 7632   2.262   1.495   7.255  1.4103 -0.1649 -2.1752
   70CHL1    C2 7633   2.143   1.473   7.085 -0.0406  0.4790  0.4469
   70CHL1   H2A 7634   2.070   1.555   7.103  0.7473  1.1152  0.8010
   70CHL1   H2B 7635   2.083   1.395   7.033  1.4485  0.1893 -0.8666
   70CHL1   C20 7636   2.423   0.927   7.789  0.0523 -0.2140 -0.1122
   70CHL1   H20 7637   2.394   0.831   7.741  0.9550 -1.7522  2.3468
   70CHL1   C21 7638   2.291   0.977   7.851 -0.0026 -0.4197 -0.1684
   70CHL1  H21A 7639   2.211   0.963   7.776  0.1782  0.0336 -0.4489
   70CHL1  H21B 7640   2.293   1.087   7.867  2.2264 -0.2229 -1.5933
   70CHL1  H21C 7641   2.266   0.922   7.944 -3.1619  1.6652  0.3037
   70CHL1   C22 7642   2.523   0.885   7.902 -0.0955  0.1052  0.5114
   70CHL1  H22A 7643   2.622   0.864   7.857 -0.9563  0.3994 -1.5468
   70CHL1  H22B 7644   2.544   0.973   7.967 -2.1049  0.8414  0.2028
   70CHL1   C23 7645   2.484   0.764   7.981  0.3357  0.5278 -0.4248
   70CHL1  H23A 7646   2.395   0.785   8.043 -1.3690  0.2515 -2.7205
   70CHL1  H23B 7647   2.459   0.684   7.908  1.7250 -0.7549  0.4777
   70CHL1   C24 7648   2.596   0.699   8.068 -0.0352 -0.6765 -0.1604
   70CHL1  H24A 7649   2.675   0.669   7.997 -1.0362 -2.2579 -0.6404
   70CHL1  H24B 7650   2.632   0.778   8.138 -0.7059  0.8493 -1.4929
   70CHL1   C25 7651   2.557   0.560   8.137  0.0443  0.1255  0.4192
   70CHL1   H25 7652   2.446   0.556   8.150 -0.0801  0.0856 -0.5856
   70CHL1   C26 7653   2.597   0.444   8.048  0.8408 -0.7721  0.5434
   70CHL1  H26A 7654   2.554   0.448   7.946  1.8070 -0.2396  0.1465
   70CHL1  H26B 7655   2.708   0.446   8.046  0.8434 -0.8445  0.5817
   70CHL1  H26C 7656   2.559   0.356   8.105  1.2990 -0.5541  1.1901
   70CHL1   C27 7657   2.607   0.559   8.280 -0.5643 -0.1131 -0.5469
   70CHL1  H27A 7658   2.716   0.574   8.288 -0.3892 -1.7433  0.3993
   70CHL1  H27B 7659   2.549   0.631   8.342  0.6395 -0.6473  1.2276
   70CHL1  H27C 7660   2.599   0.464   8.338 -1.4613 -0.0329 -0.5244
   71CHL1    C3 7661   1.506   3.157   6.875 -0.2295  1.1640  0.3405
   71CHL1    H3 7662   1.404   3.120   6.899  0.0602 -0.5078 -0.9089
   71CHL1    O3 7663   1.504   3.141   6.728  0.2161  0.1506 -0.6958
   71CHL1   H3' 7664   1.541   3.224   6.697  1.9582 -0.8707 -1.4723
   71CHL1    C4 7665   1.536   3.299   6.905  0.1140  0.0918 -0.1496
   71CHL1   H4A 7666   1.631   3.336   6.860 -0.2257  1.3080  0.0936
   71CHL1   H4B 7667   1.452   3.351   6.853 -0.3597  0.3355  0.8486
   71CHL1    C5 7668   1.533   3.334   7.053  0.3195  0.4358  0.5564
   71CHL1    C6 7669   1.450   3.426   7.107 -0.1655 -0.1300 -0.1148
   71CHL1    H6 7670   1.385   3.484   7.040  1.1968  0.4065 -1.0070
   71CHL1    C7 7671   1.436   3.438   7.255  0.1037 -0.6016 -0.1579
   71CHL1   H7A 7672   1.413   3.544   7.283 -0.3859 -0.2836 -1.7583
   71CHL1   H7B 7673   1.339   3.391   7.280  0.7422 -1.2305  1.1880
   71CHL1    C8 7674   1.550   3.377   7.334  0.4107  0.3977  0.5137
   71CHL1    H8 7675   1.644   3.436   7.333  1.3160 -0.9907  0.6951
   71CHL1   C14 7676   1.510   3.369   7.487  0.0545  0.6933 -0.5021
   71CHL1   H14 7677   1.420   3.305   7.494  1.1293 -0.6056  2.0548
   71CHL1   C15 7678   1.474   3.500   7.560 -0.6219 -0.2861 -0.3816
   71CHL1  H15A 7679   1.555   3.574   7.542  0.5703 -1.2229  1.0331
   71CHL1  H15B 7680   1.375   3.530   7.519 -0.0283  0.4930 -1.2744
   71CHL1   C16 7681   1.474   3.465   7.710  0.4074  0.4458  0.0655
   71CHL1  H16A 7682   1.506   3.544   7.781  0.9732 -0.0018  0.3175
   71CHL1  H16B 7683   1.374   3.436   7.748  1.5615  1.1396  3.7432
   71CHL1   C17 7684   1.566   3.335   7.716 -0.3333 -0.0881  0.4810
   71CHL1   H17 7685   1.506   3.244   7.737  1.1062 -1.5453 -1.4848
   71CHL1   C13 7686   1.620   3.310   7.571 -0.7513 -0.3585 -0.3801
   71CHL1   C18 7687   1.755   3.389   7.560 -0.2612  0.2175 -0.3404
   71CHL1  H18A 7688   1.749   3.489   7.608  1.9196  0.1147  0.2081
   71CHL1  H18B 7689   1.837   3.337   7.615  0.4562  1.3129 -0.3642
   71CHL1  H18C 7690   1.795   3.393   7.457  0.0210  1.7446 -0.1771
   71CHL1   C12 7691   1.636   3.169   7.532 -0.6307  0.7392 -0.3273
   71CHL1  H12A 7692   1.702   3.115   7.602 -1.6914 -0.0209  0.1052
   71CHL1  H12B 7693   1.540   3.113   7.538  0.6494 -1.4368  0.2346
   71CHL1   C11 7694   1.681   3.161   7.384  0.1746  0.5065  0.0087
   71CHL1  H11A 7695   1.782   3.207   7.380 -0.4575  1.8972 -0.1562
   71CHL1  H11B 7696   1.697   3.052   7.368  1.7599  0.4465  1.8098
   71CHL1    C9 7697   1.582   3.233   7.287  0.0265 -0.1472 -0.3272
   71CHL1    H9 7698   1.488   3.173   7.290 -0.8797  1.1171 -2.3510
   71CHL1   C10 7699   1.619   3.235   7.138 -0.9800 -0.1877 -0.0366
   71CHL1   C19 7700   1.768   3.288   7.114 -0.1070  0.9454  0.3558
   71CHL1  H19A 7701   1.792   3.289   7.005  0.0132 -1.9738  0.3331
   71CHL1  H19B 7702   1.767   3.390   7.158  0.7272  1.2250 -0.2596
   71CHL1  H19C 7703   1.842   3.224   7.166 -0.5532  0.9521  1.0044
   71CHL1    C1 7704   1.609   3.089   7.091 -0.2658  0.7906 -0.3740
   71CHL1   H1A 7705   1.695   3.036   7.137 -0.0486  2.7532  1.5817
   71CHL1   H1B 7706   1.518   3.038   7.130 -0.2598  1.4722  0.5636
   71CHL1    C2 7707   1.615   3.064   6.936  0.2086 -0.1992  0.0765
   71CHL1   H2A 7708   1.586   2.960   6.909  0.4854  0.1100 -1.4755
   71CHL1   H2B 7709   1.714   3.089   6.892  1.6255 -3.4290  1.2454
   71CHL1   C20 7710   1.665   3.342   7.835  0.1715 -0.5472 -0.1199
   71CHL1   H20 7711   1.726   3.435   7.832  1.0511 -0.9327  3.3845
   71CHL1   C21 7712   1.736   3.210   7.843 -0.3938  0.5308  0.1090
   71CHL1  H21A 7713   1.813   3.219   7.763  0.1355  0.7210  0.6351
   71CHL1  H21B 7714   1.675   3.120   7.820 -0.4329  0.2962  1.0941
   71CHL1  H21C 7715   1.785   3.186   7.940  3.1485 -0.4120 -1.8456
   71CHL1   C22 7716   1.588   3.368   7.973  0.6656  0.1470 -0.8593
   71CHL1  H22A 7717   1.508   3.443   7.953 -1.0900 -1.4653 -0.0491
   71CHL1  H22B 7718   1.546   3.272   8.008  1.1342  0.0938 -0.4413
   71CHL1   C23 7719   1.681   3.424   8.077  0.0030 -0.1986  0.4999
   71CHL1  H23A 7720   1.761   3.348   8.089  1.6389  1.4030 -0.1018
   71CHL1  H23B 7721   1.737   3.512   8.039 -1.1164  0.2180 -0.2174
   71CHL1   C24 7722   1.621   3.457   8.214  0.1122 -0.0785  0.6962
   71CHL1  H24A 7723   1.543   3.530   8.184  0.9103  0.8107  0.7594
   71CHL1  H24B 7724   1.562   3.372   8.255 -0.8021  0.1258 -0.1856
   71CHL1   C25 7725   1.718   3.522   8.310 -0.2129 -0.2250  0.2838
   71CHL1   H25 7726   1.822   3.493   8.283 -0.1490  0.2943 -0.0308
   71CHL1   C26 7727   1.725   3.676   8.301 -0.3059 -0.2571  0.0655
   71CHL1  H26A 7728   1.797   3.729   8.367  0.0229 -0.3195 -0.2356
   71CHL1  H26B 7729   1.756   3.709   8.200 -1.5380 -3.1817 -1.3169
   71CHL1  H26C 7730   1.630   3.712   8.346  1.1788  1.0570  2.2506
   71CHL1   C27 7731   1.697   3.474   8.454 -0.0802 -0.8688  0.0592
   71CHL1  H27A 7732   1.587   3.477   8.474 -0.2369 -1.7894 -0.6112
   71CHL1  H27B 7733   1.744   3.373   8.461  4.6451  1.2370  0.0752
   71CHL1  H27C 7734   1.752   3.550   8.512 -0.4716 -0.8590  0.4233
   72CHL1    C3 7735   2.525   1.734   7.177  0.2106  0.2687 -0.7531
   72CHL1    H3 7736   2.496   1.630   7.149  0.6729 -0.1705  0.3676
   72CHL1    O3 7737   2.494   1.816   7.064  0.5865 -0.2818 -0.2869
   72CHL1   H3' 7738   2.533   1.902   7.080  0.5889 -0.5069  0.9905
   72CHL1    C4 7739   2.467   1.790   7.304  0.6713  0.0648 -0.8655
   72CHL1   H4A 7740   2.508   1.892   7.315  2.0727 -0.1498 -3.7570
   72CHL1   H4B 7741   2.358   1.802   7.283  0.0482 -0.5728  1.7189
   72CHL1    C5 7742   2.486   1.698   7.428  0.2177 -0.4706 -0.2992
   72CHL1    C6 7743   2.383   1.651   7.497  0.0115  0.2375  0.0251
   72CHL1    H6 7744   2.283   1.687   7.468 -0.0336 -1.2443 -1.7296
   72CHL1    C7 7745   2.398   1.558   7.614  0.5396  0.2827  0.1829
   72CHL1   H7A 7746   2.326   1.575   7.697  1.5896  0.5034  1.0558
   72CHL1   H7B 7747   2.396   1.452   7.579  0.5053 -0.1227  1.3830
   72CHL1    C8 7748   2.540   1.563   7.673  0.2466  0.0433  0.7489
   72CHL1    H8 7749   2.552   1.652   7.739 -0.1098  0.5207  0.1701
   72CHL1   C14 7750   2.569   1.437   7.759 -0.7424 -0.3287  0.5602
   72CHL1   H14 7751   2.565   1.349   7.691 -0.6355  0.6010 -0.6664
   72CHL1   C15 7752   2.463   1.406   7.863  0.9460 -0.0910 -0.4849
   72CHL1  H15A 7753   2.442   1.493   7.929  3.4295 -0.9018  1.4392
   72CHL1  H15B 7754   2.361   1.385   7.824 -0.1204  3.7411  0.0746
   72CHL1   C16 7755   2.532   1.299   7.946 -0.2623  0.5176 -0.2363
   72CHL1  H16A 7756   2.529   1.330   8.053  2.2230 -1.1248  0.3517
   72CHL1  H16B 7757   2.503   1.192   7.941 -1.8478  0.7695  2.6501
   72CHL1   C17 7758   2.686   1.295   7.907  0.3019 -0.7313  0.2802
   72CHL1   H17 7759   2.703   1.219   7.828 -0.3869 -1.3826  0.7493
   72CHL1   C13 7760   2.704   1.437   7.831 -0.4595 -0.0157 -0.3750
   72CHL1   C18 7761   2.723   1.554   7.929 -0.6689 -0.1335  1.1292
   72CHL1  H18A 7762   2.827   1.563   7.968 -0.3905 -2.5349  1.0429
   72CHL1  H18B 7763   2.691   1.651   7.886  0.2758 -0.1690  0.3413
   72CHL1  H18C 7764   2.657   1.549   8.019 -0.4115  1.6706  1.4340
   72CHL1   C12 7765   2.812   1.442   7.716  0.3847 -0.9561 -0.1788
   72CHL1  H12A 7766   2.917   1.425   7.749  0.4822 -1.1600 -0.5977
   72CHL1  H12B 7767   2.806   1.349   7.656 -1.2474 -1.5187  0.8336
   72CHL1   C11 7768   2.792   1.567   7.631 -0.0628 -0.1872  0.5525
   72CHL1  H11A 7769   2.796   1.657   7.697  0.5914 -1.0007  1.6332
   72CHL1  H11B 7770   2.869   1.578   7.552 -0.4937  1.7887  0.3894
   72CHL1    C9 7771   2.652   1.571   7.563  0.7482  0.5260 -0.3990
   72CHL1    H9 7772   2.641   1.469   7.518  0.8773 -0.1758  1.1330
   72CHL1   C10 7773   2.632   1.680   7.456  0.3838  0.2448 -0.3117
   72CHL1   C19 7774   2.689   1.816   7.507  0.0433 -0.0170 -0.9296
   72CHL1  H19A 7775   2.673   1.898   7.434 -1.3819  0.1256 -0.4760
   72CHL1  H19B 7776   2.634   1.838   7.601  1.2243  4.0217 -1.0763
   72CHL1  H19C 7777   2.797   1.807   7.531  0.0805 -1.2076 -1.5237
   72CHL1    C1 7778   2.710   1.638   7.323  0.2841  0.4333 -0.2491
   72CHL1   H1A 7779   2.819   1.649   7.338  0.4692 -1.0995 -0.3325
   72CHL1   H1B 7780   2.699   1.528   7.308  2.1605 -0.0655  1.7432
   72CHL1    C2 7781   2.677   1.721   7.196 -0.2659 -0.2429  0.2619
   72CHL1   H2A 7782   2.721   1.662   7.112  0.6216 -0.2082  0.6884
   72CHL1   H2B 7783   2.719   1.824   7.195  0.3635 -0.4918  0.5155
   72CHL1   C20 7784   2.779   1.266   8.025 -0.1061  0.1779 -0.1068
   72CHL1   H20 7785   2.775   1.351   8.096  0.0551  0.1847 -0.1043
   72CHL1   C21 7786   2.927   1.250   7.977  0.5327 -0.2256 -1.0016
   72CHL1  H21A 7787   2.960   1.341   7.922  0.7568 -0.3054 -1.0001
   72CHL1  H21B 7788   2.921   1.170   7.900 -3.0497 -1.3965  0.3761
   72CHL1  H21C 7789   3.005   1.235   8.054 -0.2573 -1.4566 -0.4321
   72CHL1   C22 7790   2.741   1.144   8.113  0.2928  0.2181  0.6370
   72CHL1  H22A 7791   2.633   1.122   8.131  0.6398 -2.7415 -0.6396
   72CHL1  H22B 7792   2.779   1.053   8.063  1.5219  0.5214  1.0044
   72CHL1   C23 7793   2.794   1.158   8.254  0.2953  0.3253  0.1830
   72CHL1  H23A 7794   2.899   1.195   8.245  0.1726  0.6708  0.1743
   72CHL1  H23B 7795   2.743   1.245   8.301  1.8435  0.2549  2.0205
   72CHL1   C24 7796   2.793   1.027   8.335  0.0562 -0.1747 -0.4207
   72CHL1  H24A 7797   2.703   0.966   8.313 -0.6654  0.1367  1.5131
   72CHL1  H24B 7798   2.868   0.965   8.283 -0.3192 -0.7829 -0.2418
   72CHL1   C25 7799   2.821   1.046   8.490  0.6191  0.4104  0.4122
   72CHL1   H25 7800   2.744   1.111   8.537  2.5355  1.0577  2.7658
   72CHL1   C26 7801   2.811   0.910   8.562 -0.5274  0.4179 -0.3473
   72CHL1  H26A 7802   2.843   0.919   8.668  0.8263  3.4009 -0.9519
   72CHL1  H26B 7803   2.706   0.875   8.558 -0.3554 -0.1576  0.1616
   72CHL1  H26C 7804   2.884   0.836   8.522 -0.7014  1.0672 -1.8975
   72CHL1   C27 7805   2.961   1.103   8.516 -0.1263  0.3256 -0.0041
   72CHL1  H27A 7806   2.973   1.103   8.626 -2.2024  0.2355  0.2391
   72CHL1  H27B 7807   3.039   1.042   8.466  0.1628  1.6707 -1.2353
   72CHL1  H27C 7808   2.969   1.205   8.473  1.0128  1.0374  1.8817
   73CHL1    C3 7809   2.131   4.870   6.895  0.3462 -0.1286  0.0968
   73CHL1    H3 7810   2.024   4.857   6.922  0.0199  0.3904 -0.9243
   73CHL1    O3 7811   2.143   4.921   6.758  0.3769  1.1060 -0.5319
   73CHL1   H3' 7812   2.236   4.926   6.735  0.9567 -2.3225  0.7235
   73CHL1    C4 7813   2.210   4.960   6.997 -0.3020 -0.5408  0.1571
   73CHL1   H4A 7814   2.308   4.979   6.949 -1.0495 -0.7296 -1.4873
   73CHL1   H4B 7815   2.162   5.060   7.008  1.8716  0.4488  0.9434
   73CHL1    C5 7816   2.227   4.897   7.128  0.6929  0.3024 -0.0991
   73CHL1    C6 7817   2.190   4.950   7.242 -0.1197 -0.4563 -0.5663
   73CHL1    H6 7818   2.132   5.043   7.245 -1.1958 -1.1545  1.3116
   73CHL1    C7 7819   2.203   4.888   7.382  0.0143  0.2055  0.3007
   73CHL1   H7A 7820   2.241   4.962   7.456 -1.7635  2.3454 -0.8642
   73CHL1   H7B 7821   2.103   4.854   7.416 -1.4032  0.4164 -3.4029
   73CHL1    C8 7822   2.295   4.763   7.386  0.1931 -0.1822 -0.5171
   73CHL1    H8 7823   2.401   4.798   7.387  0.3194 -0.5333 -1.3198
   73CHL1   C14 7824   2.269   4.685   7.509  0.1343 -0.5674  0.3598
   73CHL1   H14 7825   2.163   4.653   7.496  0.1639  0.1451 -1.8268
   73CHL1   C15 7826   2.262   4.759   7.645  0.2651 -0.1443  0.2790
   73CHL1  H15A 7827   2.332   4.845   7.653  2.2460 -1.5620 -1.3249
   73CHL1  H15B 7828   2.155   4.779   7.664  0.8186  1.9889  1.3322
   73CHL1   C16 7829   2.304   4.650   7.746  0.4107 -0.0693  0.5893
   73CHL1  H16A 7830   2.390   4.692   7.802  0.0400  0.4137  0.8002
   73CHL1  H16B 7831   2.227   4.631   7.824  0.2471 -0.4813  0.3306
   73CHL1   C17 7832   2.322   4.520   7.668 -0.2385 -1.2300  0.0528
   73CHL1   H17 7833   2.219   4.480   7.674 -0.6210 -0.2533 -0.0193
   73CHL1   C13 7834   2.358   4.568   7.531 -0.2762 -0.1030  0.0367
   73CHL1   C18 7835   2.510   4.603   7.520  0.4403  0.2650  0.4577
   73CHL1  H18A 7836   2.547   4.658   7.430  1.5644  0.2377  0.8871
   73CHL1  H18B 7837   2.555   4.653   7.608  1.4926 -1.1356  0.7377
   73CHL1  H18C 7838   2.575   4.513   7.508 -0.0112 -0.1044  0.7869
   73CHL1   C12 7839   2.320   4.471   7.414 -0.2540  0.1610  0.1727
   73CHL1  H12A 7840   2.386   4.381   7.406  0.6840  1.0006 -1.9352
   73CHL1  H12B 7841   2.213   4.448   7.428 -0.4412  0.6823 -0.3811
   73CHL1   C11 7842   2.334   4.536   7.267  0.0050 -0.2542 -0.9667
   73CHL1  H11A 7843   2.443   4.536   7.244  0.0158 -2.2819 -1.0201
   73CHL1  H11B 7844   2.283   4.461   7.202  0.6948 -1.3138 -0.2967
   73CHL1    C9 7845   2.269   4.680   7.260  0.3397  0.0580 -0.5617
   73CHL1    H9 7846   2.162   4.652   7.273  0.4283 -0.4754 -0.9704
   73CHL1   C10 7847   2.288   4.753   7.128  0.1438 -0.2372  0.0415
   73CHL1   C19 7848   2.434   4.753   7.090  0.3293 -0.0773 -0.6377
   73CHL1  H19A 7849   2.460   4.804   6.994 -1.4953 -0.2333 -1.2490
   73CHL1  H19B 7850   2.498   4.802   7.166 -0.3828  0.1457 -0.1762
   73CHL1  H19C 7851   2.461   4.647   7.072  0.1180  0.2950 -3.3768
   73CHL1    C1 7852   2.208   4.670   7.026  0.3120  0.1197  0.2193
   73CHL1   H1A 7853   2.256   4.572   7.009  1.9401  0.8135  0.7403
   73CHL1   H1B 7854   2.108   4.644   7.066  0.9798 -3.0238 -0.0165
   73CHL1    C2 7855   2.196   4.737   6.890 -0.0894 -0.0764 -0.2203
   73CHL1   H2A 7856   2.141   4.675   6.816  1.5023 -2.0660  0.2108
   73CHL1   H2B 7857   2.300   4.734   6.850  0.3637  1.1377  0.8420
   73CHL1   C20 7858   2.410   4.422   7.744 -0.8924 -0.4853  0.2590
   73CHL1   H20 7859   2.513   4.464   7.741 -0.0207 -2.6340 -2.2500
   73CHL1   C21 7860   2.407   4.278   7.661  0.0670 -0.2102  0.4571
   73CHL1  H21A 7861   2.432   4.187   7.719 -0.2975  0.1847  1.2280
   73CHL1  H21B 7862   2.483   4.281   7.580  0.3765  0.2081  0.7617
   73CHL1  H21C 7863   2.305   4.253   7.625  0.7015 -3.5496  0.7957
   73CHL1   C22 7864   2.367   4.395   7.887 -0.7273 -0.4315 -0.5899
   73CHL1  H22A 7865   2.345   4.491   7.937 -1.3090 -1.3812  1.0182
   73CHL1  H22B 7866   2.276   4.331   7.888 -0.9468 -0.1153 -0.5138
   73CHL1   C23 7867   2.466   4.325   7.974  0.0881 -0.2314 -0.5743
   73CHL1  H23A 7868   2.488   4.224   7.936  2.9844 -0.6286  1.9331
   73CHL1  H23B 7869   2.563   4.378   7.970 -0.7228  1.4937  1.4344
   73CHL1   C24 7870   2.422   4.299   8.123  0.5993 -0.0217  0.0695
   73CHL1  H24A 7871   2.341   4.224   8.129 -1.1605  1.8927  0.7174
   73CHL1  H24B 7872   2.507   4.255   8.179  1.2152  1.7239  0.5479
   73CHL1   C25 7873   2.372   4.430   8.199 -0.3630  0.3962 -0.3084
   73CHL1   H25 7874   2.289   4.470   8.137  0.1628 -0.9470 -1.9212
   73CHL1   C26 7875   2.329   4.383   8.338  0.2590  0.5515 -0.4313
   73CHL1  H26A 7876   2.295   4.466   8.404  0.5576 -0.1285  0.5839
   73CHL1  H26B 7877   2.248   4.307   8.348  1.4239 -1.0328 -2.7159
   73CHL1  H26C 7878   2.421   4.350   8.390  0.2710 -2.5742 -2.2843
   73CHL1   C27 7879   2.467   4.546   8.209  0.3884  0.4054  0.7660
   73CHL1  H27A 7880   2.561   4.512   8.258  1.5738 -0.5168 -2.0439
   73CHL1  H27B 7881   2.506   4.598   8.118  1.5602 -1.7501 -0.0077
   73CHL1  H27C 7882   2.421   4.632   8.263 -2.4764 -1.0136  0.6770
   74CHL1    C3 7883   1.140   3.230   7.057  0.2644 -0.2066  0.3903
   74CHL1    H3 7884   1.246   3.255   7.078  0.8827  0.2910 -3.0861
   74CHL1    O3 7885   1.127   3.193   6.927 -0.6788 -0.5427  0.4383
   74CHL1   H3' 7886   1.045   3.145   6.913 -0.6460 -0.5851  0.3954
   74CHL1    C4 7887   1.108   3.116   7.154 -0.0612 -0.6742 -0.6895
   74CHL1   H4A 7888   1.006   3.090   7.117 -1.8004 -1.2354  4.1411
   74CHL1   H4B 7889   1.180   3.034   7.131  1.6400 -0.0995  2.2755
   74CHL1    C5 7890   1.091   3.157   7.302  0.4118  0.2885  0.0742
   74CHL1    C6 7891   1.162   3.093   7.395  0.9347  0.6061  0.1007
   74CHL1    H6 7892   1.239   3.020   7.365  0.6757  1.1133 -1.8780
   74CHL1    C7 7893   1.169   3.135   7.536  0.0985  0.2547 -0.0928
   74CHL1   H7A 7894   1.164   3.038   7.590  1.4679  1.2401  1.8598
   74CHL1   H7B 7895   1.269   3.178   7.556  0.5870 -1.2285  0.7302
   74CHL1    C8 7896   1.057   3.242   7.572 -0.5844  0.3606 -0.1503
   74CHL1    H8 7897   0.969   3.176   7.578  0.1239 -0.5045  0.8842
   74CHL1   C14 7898   1.072   3.298   7.712  0.4474  0.4355 -0.2662
   74CHL1   H14 7899   1.173   3.343   7.717 -0.0972  1.6057  0.3970
   74CHL1   C15 7900   1.086   3.190   7.820 -0.5630 -0.8694  0.3055
   74CHL1  H15A 7901   1.015   3.108   7.799  2.5934 -4.0447  1.4229
   74CHL1  H15B 7902   1.191   3.153   7.823 -0.2701 -0.0269  0.8850
   74CHL1   C16 7903   1.045   3.263   7.949  0.1122 -0.0356 -0.1679
   74CHL1  H16A 7904   0.968   3.199   7.997  0.1153 -1.4003 -1.8851
   74CHL1  H16B 7905   1.132   3.276   8.017 -0.5339 -1.4625  0.9444
   74CHL1   C17 7906   0.995   3.406   7.904 -0.2785  0.0216 -0.6346
   74CHL1   H17 7907   1.090   3.463   7.898  0.2402 -0.6798  0.8092
   74CHL1   C13 7908   0.963   3.387   7.758  0.5673 -0.3615 -0.5516
   74CHL1   C18 7909   0.826   3.320   7.746  0.3926 -0.1486  0.9673
   74CHL1  H18A 7910   0.749   3.395   7.772 -0.0345 -0.1111 -0.3602
   74CHL1  H18B 7911   0.805   3.282   7.644 -1.5617 -0.2197  1.3720
   74CHL1  H18C 7912   0.814   3.239   7.822  0.1915 -1.0348  0.0070
   74CHL1   C12 7913   0.983   3.509   7.660 -0.2509  0.4705  0.2433
   74CHL1  H12A 7914   0.911   3.589   7.689 -1.1266  0.1825 -1.0772
   74CHL1  H12B 7915   1.085   3.549   7.674  0.3767 -1.4055  1.1815
   74CHL1   C11 7916   0.959   3.465   7.510 -0.0804  0.0894 -0.1586
   74CHL1  H11A 7917   0.851   3.443   7.493 -0.1739  0.2235  0.2530
   74CHL1  H11B 7918   0.983   3.553   7.446 -2.3547  0.5630 -0.4076
   74CHL1    C9 7919   1.051   3.347   7.468 -0.6511 -0.4991 -0.0377
   74CHL1    H9 7920   1.151   3.391   7.446 -1.4016  0.7389 -1.0608
   74CHL1   C10 7921   1.013   3.289   7.328  0.0679 -0.4003  0.0546
   74CHL1   C19 7922   0.861   3.251   7.314  0.0638 -0.4331 -0.5034
   74CHL1  H19A 7923   0.837   3.204   7.217  3.8127 -1.9510 -0.7841
   74CHL1  H19B 7924   0.830   3.179   7.393 -1.1027  0.2660 -0.3127
   74CHL1  H19C 7925   0.795   3.340   7.317  1.9825  1.0314 -0.6132
   74CHL1    C1 7926   1.042   3.403   7.222 -0.3968 -0.2335  0.0508
   74CHL1   H1A 7927   0.958   3.476   7.221  1.6910  2.2701  0.3258
   74CHL1   H1B 7928   1.129   3.471   7.235 -1.0322  0.3795  1.1549
   74CHL1    C2 7929   1.041   3.348   7.078 -0.6493  0.3987 -0.0563
   74CHL1   H2A 7930   1.075   3.428   7.009 -0.3715  0.6729  0.3953
   74CHL1   H2B 7931   0.939   3.309   7.058 -0.0991  0.0504 -2.2676
   74CHL1   C20 7932   0.893   3.476   7.998  0.3677 -0.5553  0.8576
   74CHL1   H20 7933   0.793   3.428   7.990 -0.1389  0.0770  2.9622
   74CHL1   C21 7934   0.870   3.623   7.969  0.2157 -0.5037 -0.2727
   74CHL1  H21A 7935   0.960   3.668   7.921 -0.6377  1.3600 -0.1479
   74CHL1  H21B 7936   0.844   3.674   8.065 -1.4482 -1.6354 -0.1050
   74CHL1  H21C 7937   0.777   3.620   7.909 -0.0206  1.5542 -0.0519
   74CHL1   C22 7938   0.934   3.461   8.155  0.5578 -0.1460  0.6465
   74CHL1  H22A 7939   0.849   3.515   8.202  0.9254 -0.6383  1.9027
   74CHL1  H22B 7940   0.938   3.350   8.165 -1.2761 -0.2740  0.2337
   74CHL1   C23 7941   1.070   3.512   8.200  0.0967  0.0415  0.3562
   74CHL1  H23A 7942   1.153   3.475   8.136  0.6614 -1.1624  1.7467
   74CHL1  H23B 7943   1.069   3.623   8.193 -2.1686 -0.1043 -2.6693
   74CHL1   C24 7944   1.100   3.468   8.343 -0.3574 -0.3965  0.7520
   74CHL1  H24A 7945   1.018   3.495   8.413 -2.6568 -3.2455 -0.7178
   74CHL1  H24B 7946   1.087   3.358   8.343 -1.0846 -0.3161  1.0203
   74CHL1   C25 7947   1.234   3.510   8.403  0.1669 -0.2095  0.2016
   74CHL1   H25 7948   1.308   3.471   8.329 -0.6278  0.1040 -0.7711
   74CHL1   C26 7949   1.248   3.662   8.413  0.0174  0.8188 -0.0379
   74CHL1  H26A 7950   1.244   3.715   8.315  0.6716  1.4799  0.2879
   74CHL1  H26B 7951   1.166   3.704   8.477  1.5341  1.5030  1.4974
   74CHL1  H26C 7952   1.350   3.673   8.455 -0.1583  0.0475  0.6058
   74CHL1   C27 7953   1.259   3.441   8.536  0.2888  0.2010 -0.1072
   74CHL1  H27A 7954   1.361   3.471   8.570  0.7540 -0.3824 -0.9819
   74CHL1  H27B 7955   1.192   3.492   8.609 -2.1291 -0.3393 -1.8837
   74CHL1  H27C 7956   1.239   3.332   8.526  0.2724  0.3878 -2.3052
   75CHL1    C3 7957   3.977   4.418   6.696  0.2941 -0.4243 -0.3277
   75CHL1    H3 7958   3.874   4.458   6.700  1.7286  3.4124  0.1465
   75CHL1    O3 7959   4.003   4.380   6.565 -0.1618  0.5245 -0.0098
   75CHL1   H3' 7960   4.012   4.285   6.565  1.3274  0.6586  0.2587
   75CHL1    C4 7961   4.080   4.527   6.730  0.1540  0.6421  0.0196
   75CHL1   H4A 7962   4.179   4.479   6.721  0.6163  1.6684 -0.4618
   75CHL1   H4B 7963   4.063   4.611   6.659 -0.4904 -0.9598 -1.7398
   75CHL1    C5 7964   4.065   4.564   6.874  0.5996  0.0908 -0.6464
   75CHL1    C6 7965   4.037   4.697   6.911 -0.8523  0.0790 -0.1666
   75CHL1    H6 7966   4.032   4.783   6.843 -1.3317  0.8008  0.7548
   75CHL1    C7 7967   4.023   4.739   7.055 -0.3044 -0.9399 -0.3629
   75CHL1   H7A 7968   4.086   4.830   7.065  1.6134 -2.2272 -0.7278
   75CHL1   H7B 7969   3.916   4.762   7.078 -0.0784 -0.1127 -0.1362
   75CHL1    C8 7970   4.062   4.632   7.159  0.1962 -0.7226 -0.5168
   75CHL1    H8 7971   4.173   4.629   7.162  0.1907 -0.9961 -0.5215
   75CHL1   C14 7972   4.001   4.668   7.296 -0.3531  0.3558 -0.1904
   75CHL1   H14 7973   3.893   4.688   7.278 -0.4147  2.8664  2.5951
   75CHL1   C15 7974   4.045   4.804   7.361 -0.2759 -0.1076 -0.7335
   75CHL1  H15A 7975   4.155   4.794   7.353 -0.3200  1.2783 -3.5541
   75CHL1  H15B 7976   4.005   4.888   7.301 -0.5691  0.2597 -0.0393
   75CHL1   C16 7977   4.006   4.801   7.508 -0.2404  0.4027  0.1698
   75CHL1  H16A 7978   4.091   4.841   7.567 -1.2778  2.5386  0.2692
   75CHL1  H16B 7979   3.915   4.863   7.521 -0.6438 -0.7503  3.4561
   75CHL1   C17 7980   3.960   4.648   7.533  0.3419  0.5739  0.1646
   75CHL1   H17 7981   3.851   4.661   7.517 -0.1986 -1.2596  2.1436
   75CHL1   C13 7982   4.015   4.565   7.410  0.0221 -0.5786 -0.3065
   75CHL1   C18 7983   4.163   4.533   7.443 -0.4719  0.3790 -0.7812
   75CHL1  H18A 7984   4.209   4.625   7.484  1.1105  0.4310 -2.6130
   75CHL1  H18B 7985   4.178   4.444   7.508  1.0028  0.1740 -1.3814
   75CHL1  H18C 7986   4.218   4.507   7.350 -0.2948 -0.9061 -0.3312
   75CHL1   C12 7987   3.940   4.435   7.363  0.2773  0.2269  0.5386
   75CHL1  H12A 7988   3.950   4.359   7.444  0.3166  0.3640  0.6607
   75CHL1  H12B 7989   3.835   4.457   7.335  0.6666  1.6165  0.1457
   75CHL1   C11 7990   4.008   4.383   7.236 -0.0923 -0.5557 -0.3846
   75CHL1  H11A 7991   4.115   4.358   7.252 -0.3012 -0.1152  1.9689
   75CHL1  H11B 7992   3.950   4.292   7.208  0.8182 -0.5380 -2.3386
   75CHL1    C9 7993   4.004   4.493   7.119 -0.2702  0.6690 -0.4505
   75CHL1    H9 7994   3.896   4.512   7.103 -0.5692  0.6028  1.2967
   75CHL1   C10 7995   4.059   4.447   6.983  0.1916  0.0066 -0.2550
   75CHL1   C19 7996   4.199   4.388   7.017 -0.2664 -0.3131  0.7939
   75CHL1  H19A 7997   4.207   4.292   7.072  2.7717 -0.6397 -0.1068
   75CHL1  H19B 7998   4.249   4.374   6.919  0.2854  1.7527  0.7450
   75CHL1  H19C 7999   4.254   4.468   7.072 -1.8199  0.4887  1.2061
   75CHL1    C1 8000   3.971   4.326   6.924  0.1097  0.1448  0.2553
   75CHL1   H1A 8001   3.994   4.236   6.984  2.5478 -0.4874 -1.5334
   75CHL1   H1B 8002   3.868   4.367   6.934  0.5004  1.1828  0.1154
   75CHL1    C2 8003   3.991   4.290   6.779  0.3241 -0.2925  0.2126
   75CHL1   H2A 8004   3.931   4.209   6.733 -0.7684  1.2586 -1.1480
   75CHL1   H2B 8005   4.100   4.266   6.782  0.4520  0.3326  0.6807
   75CHL1   C20 8006   3.975   4.589   7.677  0.2534 -0.3710  0.8742
   75CHL1   H20 8007   4.085   4.571   7.686  0.0999 -2.3788 -0.9309
   75CHL1   C21 8008   3.906   4.453   7.690  0.4712 -0.0273  0.2085
   75CHL1  H21A 8009   3.891   4.423   7.796  0.9251 -1.1324 -0.0344
   75CHL1  H21B 8010   3.957   4.365   7.646  0.1983  0.5232 -1.2271
   75CHL1  H21C 8011   3.801   4.458   7.655  0.7324 -2.0923 -0.9158
   75CHL1   C22 8012   3.925   4.692   7.785  0.0538  0.4156 -0.1897
   75CHL1  H22A 8013   3.948   4.796   7.753 -1.1827  0.9366  0.5351
   75CHL1  H22B 8014   3.816   4.679   7.806  0.4824 -0.9515  1.2318
   75CHL1   C23 8015   3.994   4.685   7.921  0.6341 -0.3544 -0.0560
   75CHL1  H23A 8016   4.001   4.577   7.946  0.8607 -0.3956 -0.2939
   75CHL1  H23B 8017   4.094   4.725   7.892 -0.2835  3.3345  1.5881
   75CHL1   C24 8018   3.926   4.758   8.035 -0.1979  0.1874  0.1965
   75CHL1  H24A 8019   3.917   4.866   8.010  1.4494  0.1954 -0.4292
   75CHL1  H24B 8020   3.823   4.717   8.033 -0.0133 -0.2421 -1.2328
   75CHL1   C25 8021   3.999   4.745   8.164 -0.0570  0.0650  0.1094
   75CHL1   H25 8022   3.998   4.635   8.182  0.4578 -0.4332 -2.7468
   75CHL1   C26 8023   4.146   4.792   8.167  0.0952  0.1566  0.3016
   75CHL1  H26A 8024   4.188   4.753   8.262  0.8252  0.0217 -0.0708
   75CHL1  H26B 8025   4.205   4.754   8.080 -0.2678 -1.9865  0.9740
   75CHL1  H26C 8026   4.153   4.903   8.174  1.0825  0.0467  1.1450
   75CHL1   C27 8027   3.919   4.815   8.269 -0.2521  0.6842 -0.5073
   75CHL1  H27A 8028   3.918   4.924   8.249 -1.8261  0.6311 -0.7504
   75CHL1  H27B 8029   3.817   4.772   8.264 -0.5876  1.3680  0.2556
   75CHL1  H27C 8030   3.954   4.798   8.373 -1.7987  0.6342  0.0232
   76CHL1    C3 8031   1.340   0.072   7.291  0.2233 -0.2345 -0.1977
   76CHL1    H3 8032   1.375   0.170   7.331 -0.0164 -0.8848  1.6466
   76CHL1    O3 8033   1.357   0.056   7.155  0.1715  0.1478 -0.0185
   76CHL1   H3' 8034   1.322  -0.030   7.132  0.3144  0.4106 -1.2666
   76CHL1    C4 8035   1.415  -0.035   7.367 -0.0605  0.6023 -0.0651
   76CHL1   H4A 8036   1.393  -0.138   7.332 -2.0176  1.1978 -0.6585
   76CHL1   H4B 8037   1.524  -0.020   7.351  0.3303 -0.4919  1.4781
   76CHL1    C5 8038   1.388  -0.017   7.520  0.1188 -0.2234  0.2099
   76CHL1    C6 8039   1.484   0.005   7.606 -0.0227 -0.1367  0.8582
   76CHL1    H6 8040   1.588   0.023   7.575 -0.2053  0.8325  0.7924
   76CHL1    C7 8041   1.460   0.007   7.755 -0.2006  0.2383 -0.0762
   76CHL1   H7A 8042   1.528  -0.058   7.814 -1.3938 -2.8321 -1.9728
   76CHL1   H7B 8043   1.466   0.112   7.792 -2.9249  0.9547 -1.5108
   76CHL1    C8 8044   1.325  -0.051   7.791  0.3240 -0.1507 -0.0150
   76CHL1    H8 8045   1.326  -0.161   7.771  1.5596 -0.1722  0.1560
   76CHL1   C14 8046   1.298  -0.021   7.936 -0.5405  0.3098 -0.0347
   76CHL1   H14 8047   1.293   0.089   7.952  0.5886  0.3609  0.0342
   76CHL1   C15 8048   1.404  -0.053   8.038  0.3867 -0.0613  0.3807
   76CHL1  H15A 8049   1.439  -0.158   8.026  0.0681  0.1592 -3.2926
   76CHL1  H15B 8050   1.493   0.014   8.040 -1.1712  2.0217  1.5644
   76CHL1   C16 8051   1.323  -0.048   8.163  0.1911  0.0916 -1.1394
   76CHL1  H16A 8052   1.331  -0.145   8.218 -2.6222  1.5314  2.0152
   76CHL1  H16B 8053   1.345   0.041   8.226 -1.3681 -1.8242  2.3120
   76CHL1   C17 8054   1.173  -0.029   8.134  0.2588  0.0690  0.6569
   76CHL1   H17 8055   1.145   0.078   8.118  0.8184 -0.0978 -1.5529
   76CHL1   C13 8056   1.163  -0.071   7.985 -0.0595 -0.5347  0.2444
   76CHL1   C18 8057   1.163  -0.228   7.978  0.1881  0.1951 -0.6866
   76CHL1  H18A 8058   1.245  -0.270   8.040 -0.0071  0.0142 -0.5518
   76CHL1  H18B 8059   1.072  -0.262   8.030  0.3065  0.9297  0.0143
   76CHL1  H18C 8060   1.155  -0.264   7.873  0.9547 -1.8384 -0.0555
   76CHL1   C12 8061   1.049  -0.015   7.901  0.2819  0.1212  0.4002
   76CHL1  H12A 8062   0.951  -0.056   7.932 -0.4720  2.5459  1.2877
   76CHL1  H12B 8063   1.058   0.095   7.909  1.5043  0.0759 -0.2517
   76CHL1   C11 8064   1.069  -0.038   7.753 -0.9907  0.1593  0.1767
   76CHL1  H11A 8065   1.050  -0.147   7.742 -0.2091 -0.0191  0.5285
   76CHL1  H11B 8066   1.000   0.011   7.680 -0.2156  0.9162 -0.0632
   76CHL1    C9 8067   1.211   0.006   7.700  0.0149  0.1475 -0.7555
   76CHL1    H9 8068   1.212   0.117   7.703  0.6092  0.1938 -2.1679
   76CHL1   C10 8069   1.236  -0.022   7.553 -0.1999  0.5704  0.5128
   76CHL1   C19 8070   1.187  -0.173   7.521  0.3235 -0.3081  0.6108
   76CHL1  H19A 8071   1.076  -0.177   7.518  0.2112  0.3348  2.8914
   76CHL1  H19B 8072   1.224  -0.210   7.423 -0.3348 -1.1741  0.6792
   76CHL1  H19C 8073   1.211  -0.237   7.608  0.4392 -0.8927  0.1501
   76CHL1    C1 8074   1.160   0.078   7.468  0.4402  0.1242  0.2491
   76CHL1   H1A 8075   1.053   0.048   7.474  0.4181  0.5292  2.1170
   76CHL1   H1B 8076   1.179   0.185   7.493 -2.4332  1.2729 -2.1759
   76CHL1    C2 8077   1.187   0.074   7.312  0.1130  0.2580  0.1345
   76CHL1   H2A 8078   1.142   0.162   7.262  0.7303 -0.2603 -1.3751
   76CHL1   H2B 8079   1.152  -0.022   7.270  0.4279  0.4557 -0.5845
   76CHL1   C20 8080   1.082  -0.095   8.235  0.0345  0.9658  0.1386
   76CHL1   H20 8081   1.104  -0.203   8.242  0.2463  0.8857 -1.4880
   76CHL1   C21 8082   0.936  -0.066   8.192 -0.5633  0.0188 -0.0646
   76CHL1  H21A 8083   0.861  -0.074   8.273 -1.0652 -1.5010 -0.6666
   76CHL1  H21B 8084   0.893  -0.138   8.118 -1.8691  0.8513 -0.1285
   76CHL1  H21C 8085   0.925   0.038   8.153 -0.5406  0.4872  1.1771
   76CHL1   C22 8086   1.112  -0.018   8.367  0.5951 -0.1575 -0.1856
   76CHL1  H22A 8087   1.207  -0.043   8.418 -0.2658  1.2595  2.2004
   76CHL1  H22B 8088   1.107   0.093   8.357  2.8013  0.0565  0.8586
   76CHL1   C23 8089   1.008  -0.052   8.473  0.1356  0.2465  0.1480
   76CHL1  H23A 8090   1.034  -0.006   8.571  1.5520  0.0324 -0.1186
   76CHL1  H23B 8091   0.914   0.002   8.448 -0.3803 -0.6041  0.2165
   76CHL1   C24 8092   0.978  -0.203   8.494 -0.1479  0.3924  0.1878
   76CHL1  H24A 8093   0.923  -0.239   8.405  1.7394 -2.3011  0.0533
   76CHL1  H24B 8094   1.078  -0.252   8.497 -0.5527 -0.4341  0.3030
   76CHL1   C25 8095   0.891  -0.237   8.619  0.2866 -0.3480 -0.4070
   76CHL1   H25 8096   0.804  -0.168   8.612  1.2601  0.6844 -2.9792
   76CHL1   C26 8097   0.830  -0.370   8.599 -0.4294  0.0748  0.9905
   76CHL1  H26A 8098   0.741  -0.398   8.660  0.3846 -0.2341  2.0643
   76CHL1  H26B 8099   0.803  -0.372   8.492  3.6469 -0.1248 -0.1039
   76CHL1  H26C 8100   0.904  -0.451   8.616 -2.4243 -1.6000  2.0000
   76CHL1   C27 8101   0.967  -0.221   8.759 -0.4082  0.1907 -0.3912
   76CHL1  H27A 8102   0.977  -0.110   8.762  2.3058 -0.0246 -0.7699
   76CHL1  H27B 8103   0.912  -0.245   8.853  2.1434 -2.1310  0.5691
   76CHL1  H27C 8104   1.056  -0.287   8.758 -0.9775 -0.5811 -2.3592
   77CHL1    C3 8105   1.826   5.365   6.951 -0.5025 -0.1420 -0.4194
   77CHL1    H3 8106   1.903   5.364   7.031 -1.5802 -2.1051  0.6568
   77CHL1    O3 8107   1.892   5.384   6.822  0.1362  0.4975  0.1450
   77CHL1   H3' 8108   1.972   5.330   6.828 -0.5807 -0.3766  2.0806
   77CHL1    C4 8109   1.764   5.227   6.954 -0.5232  0.0589  0.7173
   77CHL1   H4A 8110   1.698   5.226   6.865 -0.7365  1.1798  0.8571
   77CHL1   H4B 8111   1.844   5.149   6.950  0.5743  1.2042 -0.1854
   77CHL1    C5 8112   1.684   5.208   7.085  0.1168  0.2454 -0.1907
   77CHL1    C6 8113   1.707   5.102   7.162 -0.2143 -1.0070  0.3194
   77CHL1    H6 8114   1.767   5.022   7.115 -1.3832  0.5222 -4.0022
   77CHL1    C7 8115   1.655   5.080   7.300 -0.6241  0.5332 -0.4956
   77CHL1   H7A 8116   1.614   4.977   7.293  0.9977 -0.0663 -1.5247
   77CHL1   H7B 8117   1.744   5.076   7.366 -1.4065 -0.8601  0.5136
   77CHL1    C8 8118   1.543   5.178   7.347  0.4450  0.5171 -0.6682
   77CHL1    H8 8119   1.442   5.150   7.310  0.1675 -2.7429  2.3039
   77CHL1   C14 8120   1.534   5.182   7.503  0.1714  0.0398 -0.4214
   77CHL1   H14 8121   1.636   5.214   7.532 -0.7572  1.4406  1.4027
   77CHL1   C15 8122   1.512   5.053   7.585  0.0589  0.7460  0.1745
   77CHL1  H15A 8123   1.427   4.996   7.541  0.1744  0.6782  0.0426
   77CHL1  H15B 8124   1.609   4.999   7.582 -0.5106 -0.2437 -0.5268
   77CHL1   C16 8125   1.471   5.110   7.724 -0.1492 -0.5037 -0.5164
   77CHL1  H16A 8126   1.374   5.070   7.761  1.1048 -1.9036  1.3781
   77CHL1  H16B 8127   1.550   5.083   7.797  1.3770  0.0499 -1.9517
   77CHL1   C17 8128   1.449   5.267   7.712 -0.3815 -0.5050 -0.0424
   77CHL1   H17 8129   1.552   5.298   7.737 -1.0263  1.0517  0.7266
   77CHL1   C13 8130   1.438   5.288   7.564  0.4112  0.0979  0.1795
   77CHL1   C18 8131   1.283   5.254   7.524 -1.0670 -0.2157  0.2395
   77CHL1  H18A 8132   1.273   5.248   7.413  3.2755 -0.0852 -0.2126
   77CHL1  H18B 8133   1.243   5.158   7.563  0.2700 -0.8386  0.0725
   77CHL1  H18C 8134   1.222   5.344   7.550 -0.8424 -0.6386  2.2410
   77CHL1   C12 8135   1.473   5.420   7.505  0.3743 -0.6014  0.4759
   77CHL1  H12A 8136   1.406   5.506   7.528  3.9077  2.9779 -1.9194
   77CHL1  H12B 8137   1.574   5.451   7.541  0.7716 -1.5594  0.1967
   77CHL1   C11 8138   1.483   5.424   7.352 -0.6376  0.7781  0.3784
   77CHL1  H11A 8139   1.384   5.427   7.301 -0.5515 -0.2124  0.1527
   77CHL1  H11B 8140   1.531   5.523   7.339  0.4065 -0.0171 -2.3032
   77CHL1    C9 8141   1.572   5.314   7.291  0.0595  0.3301  0.0101
   77CHL1    H9 8142   1.672   5.340   7.332 -0.9735  0.3300  2.5596
   77CHL1   C10 8143   1.592   5.320   7.140  0.1458 -0.3569  0.1516
   77CHL1   C19 8144   1.455   5.310   7.066 -0.1473  0.1428 -0.4532
   77CHL1  H19A 8145   1.463   5.346   6.961 -1.3266  2.6346  0.2566
   77CHL1  H19B 8146   1.409   5.209   7.067  0.7650 -0.2830  1.8904
   77CHL1  H19C 8147   1.381   5.378   7.114 -0.9822 -1.3550  0.4051
   77CHL1    C1 8148   1.649   5.468   7.107 -0.0174  0.5793  0.0981
   77CHL1   H1A 8149   1.564   5.538   7.117 -0.9111 -0.5161  0.3248
   77CHL1   H1B 8150   1.726   5.501   7.179 -1.6917  1.7640  1.3648
   77CHL1    C2 8151   1.718   5.474   6.968  0.1024  0.7083 -0.0341
   77CHL1   H2A 8152   1.767   5.573   6.952  1.8911 -0.2823 -0.9026
   77CHL1   H2B 8153   1.642   5.452   6.891  1.2003  0.4511 -1.0584
   77CHL1   C20 8154   1.351   5.339   7.811 -0.3851  0.7224  0.0873
   77CHL1   H20 8155   1.253   5.288   7.800  0.2613 -0.6615  0.5656
   77CHL1   C21 8156   1.325   5.488   7.786  0.3097  0.6270 -0.3161
   77CHL1  H21A 8157   1.255   5.502   7.700 -0.8666  1.2560  0.7384
   77CHL1  H21B 8158   1.424   5.535   7.768  0.9116 -0.3751  0.3952
   77CHL1  H21C 8159   1.268   5.534   7.869 -0.4811 -1.5465  0.3687
   77CHL1   C22 8160   1.388   5.305   7.958 -0.0136  0.1567  0.1172
   77CHL1  H22A 8161   1.307   5.347   8.022 -1.6843 -0.3986 -1.5762
   77CHL1  H22B 8162   1.389   5.194   7.973 -1.0672  0.0242 -0.7393
   77CHL1   C23 8163   1.522   5.366   8.004  0.1334  0.4309 -0.0418
   77CHL1  H23A 8164   1.609   5.320   7.952  1.2190  1.2553  0.9829
   77CHL1  H23B 8165   1.524   5.473   7.975  0.9966  0.3361 -0.3370
   77CHL1   C24 8166   1.538   5.337   8.157  0.1256 -0.4478  0.0351
   77CHL1  H24A 8167   1.439   5.361   8.203  1.0205 -0.3711  1.9684
   77CHL1  H24B 8168   1.561   5.229   8.165 -3.7217 -1.3376  0.1898
   77CHL1   C25 8169   1.648   5.412   8.237 -0.3694  0.4043  0.2651
   77CHL1   H25 8170   1.642   5.520   8.211 -2.1189  0.1588 -0.4144
   77CHL1   C26 8171   1.644   5.384   8.388  0.1202 -0.6807 -0.2074
   77CHL1  H26A 8172   1.657   5.276   8.408 -0.3229 -0.7988 -0.5383
   77CHL1  H26B 8173   1.716   5.447   8.444 -2.2034  0.0833  2.0050
   77CHL1  H26C 8174   1.544   5.408   8.430  0.8288 -1.6020  2.1137
   77CHL1   C27 8175   1.782   5.367   8.173 -0.0613  0.0657 -0.9694
   77CHL1  H27A 8176   1.871   5.412   8.223 -1.5612 -0.1886  2.0427
   77CHL1  H27B 8177   1.805   5.259   8.163 -0.8878 -0.0381 -1.7917
   77CHL1  H27C 8178   1.796   5.403   8.069 -1.4984  4.0599  0.1395
   78CHL1    C3 8179   4.687   6.267   6.734 -0.2382  0.4346 -0.6114
   78CHL1    H3 8180   4.731   6.166   6.750 -1.5743 -0.0525  0.0228
   78CHL1    O3 8181   4.698   6.294   6.597 -0.4477  0.2275 -0.9811
   78CHL1   H3' 8182   4.700   6.390   6.597  0.2109  0.2251 -0.0391
   78CHL1    C4 8183   4.528   6.260   6.768 -0.1942  0.1302 -0.4086
   78CHL1   H4A 8184   4.476   6.334   6.703 -0.4501  1.1957  0.9813
   78CHL1   H4B 8185   4.487   6.170   6.717  0.9166 -1.2649  1.1358
   78CHL1    C5 8186   4.493   6.249   6.914 -0.9072 -0.3419 -0.2613
   78CHL1    C6 8187   4.430   6.139   6.967 -0.1524 -0.4898 -0.2573
   78CHL1    H6 8188   4.408   6.052   6.903 -0.6734 -1.5275  1.3022
   78CHL1    C7 8189   4.401   6.122   7.113  0.1789 -0.4425 -0.3261
   78CHL1   H7A 8190   4.302   6.072   7.125 -1.0622  2.0894  0.3743
   78CHL1   H7B 8191   4.479   6.052   7.148 -0.1334 -1.0532 -0.8509
   78CHL1    C8 8192   4.414   6.257   7.187 -0.6350 -0.0523 -0.1826
   78CHL1    H8 8193   4.325   6.312   7.151 -0.3555 -0.8615 -2.1517
   78CHL1   C14 8194   4.406   6.236   7.343  0.7294  0.3192  0.5692
   78CHL1   H14 8195   4.498   6.178   7.369  0.8887  1.3281  2.2718
   78CHL1   C15 8196   4.286   6.161   7.401 -0.0350  0.3680 -0.7934
   78CHL1  H15A 8197   4.193   6.191   7.350 -0.4540 -1.1367 -0.9435
   78CHL1  H15B 8198   4.293   6.051   7.383  0.3398 -0.0363  1.5608
   78CHL1   C16 8199   4.291   6.194   7.553  0.4020  0.1871 -0.3810
   78CHL1  H16A 8200   4.186   6.216   7.579  0.4095 -0.2528  0.0445
   78CHL1  H16B 8201   4.331   6.103   7.603 -0.3928 -0.6812 -1.3175
   78CHL1   C17 8202   4.392   6.310   7.571  0.4280  0.0307 -0.0552
   78CHL1   H17 8203   4.487   6.264   7.605 -0.6281 -1.5636  0.7730
   78CHL1   C13 8204   4.413   6.365   7.422  0.2682  0.3203 -0.2982
   78CHL1   C18 8205   4.299   6.460   7.393  0.2036  0.0134 -0.0499
   78CHL1  H18A 8206   4.315   6.558   7.444 -1.0441  1.0030 -1.4922
   78CHL1  H18B 8207   4.292   6.475   7.283 -0.9015 -0.2855 -0.0286
   78CHL1  H18C 8208   4.194   6.437   7.424  0.5784  3.5357  4.3881
   78CHL1   C12 8209   4.548   6.428   7.387 -0.0287 -0.4995 -0.3162
   78CHL1  H12A 8210   4.571   6.521   7.443  1.5558 -0.1813 -1.4586
   78CHL1  H12B 8211   4.635   6.367   7.420  1.6852  1.7233 -0.6746
   78CHL1   C11 8212   4.558   6.455   7.232  0.3177 -0.2899  0.6307
   78CHL1  H11A 8213   4.483   6.535   7.214  1.1676  0.5649  0.8473
   78CHL1  H11B 8214   4.654   6.507   7.212 -1.0368  2.6545  1.4329
   78CHL1    C9 8215   4.541   6.330   7.146 -0.1489 -0.2982  0.1935
   78CHL1    H9 8216   4.633   6.270   7.165  1.5076  2.5569  1.6648
   78CHL1   C10 8217   4.553   6.364   6.994 -0.1063  0.5078 -0.2013
   78CHL1   C19 8218   4.474   6.489   6.941  0.2427 -0.5672  0.3514
   78CHL1  H19A 8219   4.364   6.475   6.949 -0.0738  1.2133 -0.6261
   78CHL1  H19B 8220   4.493   6.579   7.004  0.9327 -0.2398 -0.3203
   78CHL1  H19C 8221   4.497   6.504   6.834 -2.3909  2.7491  0.1487
   78CHL1    C1 8222   4.704   6.366   6.960 -0.2819 -0.2104  0.3380
   78CHL1   H1A 8223   4.747   6.452   7.015 -2.3144 -0.5115  2.4815
   78CHL1   H1B 8224   4.758   6.272   6.987 -3.3157 -2.7739 -2.2440
   78CHL1    C2 8225   4.742   6.378   6.813 -0.6181 -0.2193  0.5504
   78CHL1   H2A 8226   4.851   6.363   6.798 -0.2602  1.5592  1.3587
   78CHL1   H2B 8227   4.710   6.480   6.785  0.7137 -0.1159 -0.6636
   78CHL1   C20 8228   4.350   6.400   7.683  0.5699  0.3477  0.5503
   78CHL1   H20 8229   4.264   6.461   7.650  0.2907 -1.5826 -2.5296
   78CHL1   C21 8230   4.452   6.509   7.700  0.6567 -0.0984  0.5966
   78CHL1  H21A 8231   4.440   6.584   7.618  0.7531 -2.7295 -1.9185
   78CHL1  H21B 8232   4.556   6.475   7.687  0.9353  1.0765 -0.3678
   78CHL1  H21C 8233   4.443   6.558   7.799 -0.0318  1.4869 -0.2204
   78CHL1   C22 8234   4.327   6.329   7.820  0.1563 -0.0182 -0.0911
   78CHL1  H22A 8235   4.289   6.415   7.879  0.8639  0.6342 -0.5787
   78CHL1  H22B 8236   4.249   6.250   7.806  0.4707 -0.1708 -1.0137
   78CHL1   C23 8237   4.452   6.271   7.881 -0.7706 -0.2556 -0.8388
   78CHL1  H23A 8238   4.499   6.194   7.816 -1.3420 -1.3154 -0.0171
   78CHL1  H23B 8239   4.524   6.355   7.894 -0.6059 -0.5440  0.1809
   78CHL1   C24 8240   4.427   6.202   8.016  0.0206 -0.0320 -0.0150
   78CHL1  H24A 8241   4.343   6.130   7.998  0.3175 -0.7064  1.1854
   78CHL1  H24B 8242   4.511   6.138   8.051 -1.5188 -1.3988  1.3431
   78CHL1   C25 8243   4.363   6.288   8.126  0.4052 -0.6470 -0.1998
   78CHL1   H25 8244   4.292   6.356   8.074  0.3369  1.4363  2.5009
   78CHL1   C26 8245   4.278   6.209   8.220 -0.6940 -0.0161  0.4116
   78CHL1  H26A 8246   4.204   6.150   8.160  0.1955 -0.0077 -0.6994
   78CHL1  H26B 8247   4.331   6.142   8.290  0.6743 -0.0780 -0.6596
   78CHL1  H26C 8248   4.213   6.274   8.283 -0.8432 -0.5571  0.8203
   78CHL1   C27 8249   4.463   6.366   8.220 -0.1241  0.2330 -0.6415
   78CHL1  H27A 8250   4.523   6.437   8.159  1.5183 -1.0065 -0.5283
   78CHL1  H27B 8251   4.410   6.426   8.297  2.3782 -1.9361  2.9455
   78CHL1  H27C 8252   4.536   6.299   8.272 -2.9592 -0.9648  1.8987
   79CHL1    C3 8253   2.599   6.628   7.261 -0.8356 -0.0148  0.4082
   79CHL1    H3 8254   2.611   6.519   7.277 -1.6601 -0.3331 -1.1187
   79CHL1    O3 8255   2.630   6.663   7.127  0.5368  0.6070 -0.1911
   79CHL1   H3' 8256   2.581   6.605   7.068  1.5758 -1.0857  0.5731
   79CHL1    C4 8257   2.451   6.657   7.298  0.0725  0.4987 -0.0384
   79CHL1   H4A 8258   2.431   6.760   7.262  0.4001  0.1512 -1.2444
   79CHL1   H4B 8259   2.385   6.601   7.228  1.3397  0.1552 -0.9953
   79CHL1    C5 8260   2.418   6.638   7.447 -0.2024 -0.2693 -0.2073
   79CHL1    C6 8261   2.324   6.557   7.489  0.0189 -0.3383  0.1807
   79CHL1    H6 8262   2.270   6.511   7.405 -0.0285 -2.5863  1.4126
   79CHL1    C7 8263   2.290   6.524   7.629  0.0406 -0.0351 -0.0557
   79CHL1   H7A 8264   2.180   6.521   7.644  0.0351 -0.3528 -0.1392
   79CHL1   H7B 8265   2.329   6.423   7.652 -1.1764 -0.3335  0.7473
   79CHL1    C8 8266   2.349   6.625   7.725  0.1896 -0.2518  0.6053
   79CHL1    H8 8267   2.295   6.720   7.708 -1.0337 -1.2289 -1.1785
   79CHL1   C14 8268   2.332   6.584   7.869 -0.6062  0.7452  0.1106
   79CHL1   H14 8269   2.383   6.486   7.877  0.4970  1.3947  1.1215
   79CHL1   C15 8270   2.191   6.558   7.919  0.0884 -0.1284 -0.2225
   79CHL1  H15A 8271   2.122   6.636   7.882 -0.6816 -1.0964 -0.8344
   79CHL1  H15B 8272   2.151   6.459   7.889 -1.5941  0.3961  0.2799
   79CHL1   C16 8273   2.203   6.570   8.074  0.8192  0.3761 -0.6300
   79CHL1  H16A 8274   2.135   6.655   8.100  0.7966  0.5711 -1.3322
   79CHL1  H16B 8275   2.174   6.474   8.121  3.1282  0.0562  0.1778
   79CHL1   C17 8276   2.354   6.600   8.104 -0.2909 -0.5038  0.6293
   79CHL1   H17 8277   2.395   6.497   8.102 -0.0566 -0.3824 -0.9415
   79CHL1   C13 8278   2.399   6.673   7.974  0.9140  0.1178 -0.1832
   79CHL1   C18 8279   2.343   6.811   7.965 -0.6297  0.4072 -0.1550
   79CHL1  H18A 8280   2.380   6.869   8.051  2.5550  1.4563 -2.1407
   79CHL1  H18B 8281   2.383   6.853   7.870  0.2432 -3.4405 -1.6061
   79CHL1  H18C 8282   2.233   6.815   7.952 -0.5106 -1.7360 -2.2302
   79CHL1   C12 8283   2.550   6.675   7.944  0.0213  0.1973 -0.0131
   79CHL1  H12A 8284   2.586   6.753   8.015  0.4740 -0.8321  0.8961
   79CHL1  H12B 8285   2.587   6.577   7.981  1.4782  1.1795  1.1637
   79CHL1   C11 8286   2.584   6.715   7.798  0.0432 -0.4935  0.0999
   79CHL1  H11A 8287   2.566   6.824   7.798  1.2291 -0.2929 -0.3851
   79CHL1  H11B 8288   2.690   6.689   7.776 -0.0660 -1.3022  0.5055
   79CHL1    C9 8289   2.494   6.645   7.692 -0.8016  0.3403  0.2068
   79CHL1    H9 8290   2.531   6.540   7.687  1.3088  1.0353  0.6297
   79CHL1   C10 8291   2.518   6.699   7.547 -0.3234  0.6211 -0.3328
   79CHL1   C19 8292   2.501   6.857   7.530 -0.5445  0.0902 -0.4187
   79CHL1  H19A 8293   2.587   6.916   7.569  0.3798  0.2922 -2.6911
   79CHL1  H19B 8294   2.497   6.896   7.427 -2.8821 -1.8317 -1.1149
   79CHL1  H19C 8295   2.408   6.898   7.575  0.1158  0.4972  0.6075
   79CHL1    C1 8296   2.661   6.658   7.507 -0.3404 -0.0728 -0.7063
   79CHL1   H1A 8297   2.736   6.717   7.564 -0.7594 -1.7052  1.5817
   79CHL1   H1B 8298   2.682   6.552   7.531  0.0599  0.2646  0.4542
   79CHL1    C2 8299   2.690   6.698   7.362 -0.6155 -0.0686  0.0163
   79CHL1   H2A 8300   2.789   6.658   7.331 -0.8510  0.3803 -1.3289
   79CHL1   H2B 8301   2.703   6.808   7.356 -0.7358 -0.2120 -3.2424
   79CHL1   C20 8302   2.397   6.660   8.236  0.1744 -0.3099 -1.2361
   79CHL1   H20 8303   2.487   6.723   8.224  1.1954 -1.2054  1.4054
   79CHL1   C21 8304   2.447   6.555   8.333 -0.2930 -0.3283 -0.1737
   79CHL1  H21A 8305   2.504   6.472   8.286 -2.1337 -1.7839  0.0625
   79CHL1  H21B 8306   2.371   6.518   8.407  1.9088 -0.6441  1.9890
   79CHL1  H21C 8307   2.520   6.598   8.404  1.1214 -4.7894  1.2618
   79CHL1   C22 8308   2.293   6.747   8.301 -0.0083  0.3457 -0.3996
   79CHL1  H22A 8309   2.245   6.814   8.225 -1.0154 -0.2743 -0.3229
   79CHL1  H22B 8310   2.214   6.680   8.340 -0.5102  2.4602  2.3517
   79CHL1   C23 8311   2.343   6.845   8.406  0.0647 -0.2569  0.2060
   79CHL1  H23A 8312   2.411   6.797   8.479  0.1354  0.4253  0.5844
   79CHL1  H23B 8313   2.401   6.927   8.360  1.3230 -2.1378 -1.6723
   79CHL1   C24 8314   2.220   6.906   8.483  0.6415 -0.2331 -0.2003
   79CHL1  H24A 8315   2.161   6.962   8.407  0.3678  1.0572  0.9390
   79CHL1  H24B 8316   2.156   6.825   8.522 -0.7733  0.5469 -0.8732
   79CHL1   C25 8317   2.247   7.009   8.592 -0.1423  0.1420  0.1345
   79CHL1   H25 8318   2.312   6.978   8.677  0.2872 -1.0866 -0.6297
   79CHL1   C26 8319   2.309   7.136   8.528  0.6166  0.8991  0.0949
   79CHL1  H26A 8320   2.320   7.214   8.606  0.5606  1.7176 -0.7153
   79CHL1  H26B 8321   2.410   7.105   8.495  0.5473  1.3608 -0.5548
   79CHL1  H26C 8322   2.248   7.177   8.445  2.0577  1.1260 -0.8629
   79CHL1   C27 8323   2.116   7.039   8.667  0.0350  0.3044  0.4200
   79CHL1  H27A 8324   2.024   7.056   8.608  1.1951 -0.1888 -1.5916
   79CHL1  H27B 8325   2.107   6.955   8.739  0.5702 -0.0855  0.0348
   79CHL1  H27C 8326   2.124   7.139   8.715 -1.9587  0.3089  0.7556
   80CHL1    C3 8327   0.628   3.879   7.229 -0.0903 -0.0682  0.2107
   80CHL1    H3 8328   0.519   3.899   7.216  0.2004  1.5523  0.0674
   80CHL1    O3 8329   0.685   3.862   7.102 -0.4330  0.1888  0.2280
   80CHL1   H3' 8330   0.683   3.951   7.067 -1.0234  0.4240  0.8419
   80CHL1    C4 8331   0.687   3.999   7.297 -0.3911 -0.6004 -1.0947
   80CHL1   H4A 8332   0.797   3.993   7.310 -0.6058  0.2847  1.3343
   80CHL1   H4B 8333   0.685   4.089   7.231  0.3162 -0.8928 -1.5173
   80CHL1    C5 8334   0.620   4.043   7.437 -0.2814 -0.2108  0.7038
   80CHL1    C6 8335   0.556   4.157   7.459 -0.6119  0.0776  0.6711
   80CHL1    H6 8336   0.545   4.234   7.382 -1.0582  0.0589  0.7189
   80CHL1    C7 8337   0.480   4.184   7.585  0.0590  0.3120 -0.2380
   80CHL1   H7A 8338   0.505   4.283   7.627  0.8115 -0.2877  0.7481
   80CHL1   H7B 8339   0.369   4.181   7.578 -0.0522  1.7263  0.8345
   80CHL1    C8 8340   0.529   4.086   7.699 -0.0953 -0.2746 -0.0723
   80CHL1    H8 8341   0.633   4.116   7.724  0.7601 -1.4683 -2.0796
   80CHL1   C14 8342   0.437   4.104   7.821 -0.1723 -0.7252 -0.2739
   80CHL1   H14 8343   0.333   4.081   7.790 -0.5360  0.0109  0.3561
   80CHL1   C15 8344   0.426   4.244   7.876 -0.4340 -0.4470 -0.6792
   80CHL1  H15A 8345   0.523   4.296   7.890 -0.5155 -1.1212  2.8875
   80CHL1  H15B 8346   0.357   4.307   7.816 -1.3145 -0.3976  0.3645
   80CHL1   C16 8347   0.359   4.221   8.020 -0.2163  0.1939  0.2978
   80CHL1  H16A 8348   0.413   4.281   8.096  2.0664  0.0707 -1.1772
   80CHL1  H16B 8349   0.254   4.254   8.008  0.7829  2.8887 -1.4831
   80CHL1   C17 8350   0.358   4.065   8.038  0.3085 -0.2689 -0.0129
   80CHL1   H17 8351   0.260   4.026   8.005  0.6958 -0.4468 -0.9812
   80CHL1   C13 8352   0.463   4.016   7.942  0.1862 -0.7245 -0.0775
   80CHL1   C18 8353   0.606   4.044   7.993  0.4705 -0.8423 -0.0848
   80CHL1  H18A 8354   0.689   4.043   7.918 -0.4117 -2.7354 -1.0814
   80CHL1  H18B 8355   0.603   4.144   8.041  1.4849 -0.3816 -0.9426
   80CHL1  H18C 8356   0.636   3.976   8.075 -2.6480 -2.1356  0.0587
   80CHL1   C12 8357   0.450   3.871   7.889 -0.0738 -0.3425  0.6601
   80CHL1  H12A 8358   0.471   3.796   7.969 -0.5518 -1.4392 -0.2206
   80CHL1  H12B 8359   0.349   3.836   7.858  0.0353  0.5268 -0.7274
   80CHL1   C11 8360   0.547   3.843   7.771 -0.3704  0.6843 -0.0573
   80CHL1  H11A 8361   0.652   3.853   7.805 -0.7991  0.6645  1.2865
   80CHL1  H11B 8362   0.534   3.741   7.729  1.6342  0.4846 -0.2469
   80CHL1    C9 8363   0.530   3.940   7.650  0.1261 -0.2367 -0.8780
   80CHL1    H9 8364   0.427   3.919   7.615 -0.4885 -0.8751  1.2639
   80CHL1   C10 8365   0.627   3.918   7.533  0.1855  0.5526 -0.0135
   80CHL1   C19 8366   0.770   3.899   7.584  0.0407 -0.2068  0.4083
   80CHL1  H19A 8367   0.808   3.988   7.639 -1.1364  0.5474  0.0101
   80CHL1  H19B 8368   0.775   3.816   7.658  0.9281 -0.1252  0.4468
   80CHL1  H19C 8369   0.839   3.880   7.499  1.6078 -0.5611  1.7243
   80CHL1    C1 8370   0.579   3.791   7.455 -0.4328  0.5497 -0.4581
   80CHL1   H1A 8371   0.599   3.701   7.516 -1.3228  0.3130 -0.5152
   80CHL1   H1B 8372   0.470   3.807   7.439 -1.3027 -3.7412  0.7496
   80CHL1    C2 8373   0.650   3.759   7.321 -0.5924 -0.1857  0.0897
   80CHL1   H2A 8374   0.609   3.667   7.274  3.6870 -1.2705 -1.7258
   80CHL1   H2B 8375   0.760   3.756   7.334 -0.5149  1.2151 -0.1286
   80CHL1   C20 8376   0.369   4.030   8.188  0.4957  0.5512  0.8191
   80CHL1   H20 8377   0.472   4.061   8.218  1.1872 -0.4414 -0.4720
   80CHL1   C21 8378   0.363   3.875   8.198  0.7925 -0.4611  0.6858
   80CHL1  H21A 8379   0.271   3.853   8.139 -1.9368  4.9606  2.5603
   80CHL1  H21B 8380   0.362   3.837   8.302  1.3996  1.7680  1.5232
   80CHL1  H21C 8381   0.454   3.832   8.151 -0.0286  0.9254 -2.2666
   80CHL1   C22 8382   0.270   4.094   8.278  0.5080  0.1096  0.0778
   80CHL1  H22A 8383   0.242   4.193   8.236 -2.7527 -0.7321  0.1438
   80CHL1  H22B 8384   0.171   4.042   8.279  0.4828  0.1603  0.2238
   80CHL1   C23 8385   0.323   4.129   8.415  0.2313  0.1275  0.0516
   80CHL1  H23A 8386   0.330   4.044   8.486 -0.1430 -1.7857 -2.1420
   80CHL1  H23B 8387   0.427   4.168   8.418  1.5539 -3.2931  0.5491
   80CHL1   C24 8388   0.235   4.242   8.492  0.8479  0.6887 -0.0130
   80CHL1  H24A 8389   0.279   4.251   8.594 -0.1843 -1.5539  0.6585
   80CHL1  H24B 8390   0.253   4.332   8.429 -0.1819 -0.4174 -1.9341
   80CHL1   C25 8391   0.091   4.212   8.515 -0.2178  0.5432  0.3646
   80CHL1   H25 8392   0.041   4.188   8.419 -1.5164  0.0484  1.1470
   80CHL1   C26 8393   0.085   4.090   8.616 -0.2025 -0.5153  0.5423
   80CHL1  H26A 8394   0.110   3.999   8.557  0.8381 -0.5444  1.0262
   80CHL1  H26B 8395   0.159   4.093   8.699  0.6526 -4.5975  0.0575
   80CHL1  H26C 8396  -0.016   4.083   8.663  0.6089 -0.5403  2.3133
   80CHL1   C27 8397   0.028   4.336   8.576  0.1367  0.2494  0.0142
   80CHL1  H27A 8398  -0.080   4.320   8.593 -0.2741 -0.1236 -2.7069
   80CHL1  H27B 8399   0.079   4.363   8.671  1.1750  0.2044 -0.5115
   80CHL1  H27C 8400   0.036   4.418   8.501 -0.1088  0.1731 -0.0934
   81CHL1    C3 8401   5.024   4.118   6.854  0.6940 -0.1984 -0.2061
   81CHL1    H3 8402   5.113   4.056   6.876 -0.0825 -1.7357 -1.3194
   81CHL1    O3 8403   5.005   4.098   6.716 -0.1413 -0.8822  0.1993
   81CHL1   H3' 8404   4.919   4.131   6.688 -0.8003 -2.3337  0.4585
   81CHL1    C4 8405   4.894   4.072   6.931 -0.7676 -0.0679 -0.3406
   81CHL1   H4A 8406   4.808   4.121   6.880 -0.5764  0.1217 -0.4810
   81CHL1   H4B 8407   4.884   3.962   6.918 -2.5989 -0.1079  1.1672
   81CHL1    C5 8408   4.903   4.118   7.078  0.3898  0.8292  0.0482
   81CHL1    C6 8409   4.888   4.025   7.173  0.0690  0.0122 -0.4412
   81CHL1    H6 8410   4.881   3.921   7.137  1.1089  1.0740 -3.9391
   81CHL1    C7 8411   4.890   4.057   7.316  0.5597  0.9441 -0.6507
   81CHL1   H7A 8412   4.806   4.010   7.372 -0.1272  1.1566 -1.4837
   81CHL1   H7B 8413   4.980   4.010   7.362 -0.6456 -0.6429  0.1402
   81CHL1    C8 8414   4.887   4.207   7.352  0.6749 -0.3922  0.2364
   81CHL1    H8 8415   4.780   4.234   7.348  0.6794 -0.1201  1.7371
   81CHL1   C14 8416   4.930   4.230   7.495 -0.0685  0.2657  0.2617
   81CHL1   H14 8417   5.033   4.189   7.504 -0.7398 -0.9829  2.8618
   81CHL1   C15 8418   4.857   4.160   7.605  0.9173  0.0635  0.3262
   81CHL1  H15A 8419   4.751   4.191   7.600  0.8912 -0.0037  0.4576
   81CHL1  H15B 8420   4.869   4.050   7.613 -0.7966  0.0100  2.8160
   81CHL1   C16 8421   4.893   4.247   7.728 -0.3895  0.0225 -0.5125
   81CHL1  H16A 8422   4.800   4.290   7.770  1.4248  3.1004  0.5134
   81CHL1  H16B 8423   4.950   4.185   7.800 -1.4539 -0.8287 -0.3924
   81CHL1   C17 8424   4.974   4.376   7.682 -0.2715  0.1068 -0.2115
   81CHL1   H17 8425   5.081   4.349   7.698 -0.7277 -0.8654  1.2595
   81CHL1   C13 8426   4.943   4.380   7.532  0.0308  0.3848  0.3496
   81CHL1   C18 8427   4.805   4.441   7.504 -0.4862 -0.2676 -0.0250
   81CHL1  H18A 8428   4.722   4.382   7.549  1.2643 -3.3212 -0.6263
   81CHL1  H18B 8429   4.800   4.545   7.543  2.8531  0.1047 -0.4933
   81CHL1  H18C 8430   4.768   4.439   7.399 -3.2790 -0.7007  0.9048
   81CHL1   C12 8431   5.049   4.446   7.436  0.2615 -0.7640 -0.7245
   81CHL1  H12A 8432   5.061   4.556   7.448 -1.3482 -0.4115 -2.1493
   81CHL1  H12B 8433   5.149   4.400   7.453  0.3263 -0.4288 -0.1806
   81CHL1   C11 8434   5.005   4.426   7.289  0.4371  0.1463  0.3041
   81CHL1  H11A 8435   4.913   4.485   7.271 -0.9766 -1.6724  1.3200
   81CHL1  H11B 8436   5.090   4.471   7.234  0.8977 -0.3036  0.6396
   81CHL1    C9 8437   4.979   4.281   7.252 -0.4344 -0.1900 -0.2525
   81CHL1    H9 8438   5.078   4.232   7.262 -0.3613  0.1876  1.0604
   81CHL1   C10 8439   4.939   4.264   7.104 -0.2425  0.1540  0.4295
   81CHL1   C19 8440   4.812   4.342   7.068  0.6132  0.4592  0.3171
   81CHL1  H19A 8441   4.833   4.451   7.062  0.7447  0.2940 -3.3743
   81CHL1  H19B 8442   4.769   4.329   6.966  1.6493 -0.5928 -0.0010
   81CHL1  H19C 8443   4.729   4.330   7.140  0.4188 -1.0170 -0.1302
   81CHL1    C1 8444   5.061   4.306   7.019  0.1180  0.3259 -0.0500
   81CHL1   H1A 8445   5.075   4.415   7.001  4.3201  0.0193  0.7226
   81CHL1   H1B 8446   5.156   4.267   7.061 -0.3119 -1.7246 -0.9588
   81CHL1    C2 8447   5.046   4.269   6.869 -0.0999 -0.1922 -0.5833
   81CHL1   H2A 8448   5.125   4.309   6.802  0.3509 -1.4485 -0.8126
   81CHL1   H2B 8449   4.958   4.329   6.839  0.5292  1.4746  0.7484
   81CHL1   C20 8450   4.959   4.506   7.774 -0.0630  0.0946 -0.1930
   81CHL1   H20 8451   4.851   4.532   7.784  0.0388  0.7569 -0.8222
   81CHL1   C21 8452   5.022   4.631   7.706  0.3260  0.6855 -0.0834
   81CHL1  H21A 8453   5.018   4.722   7.770  0.2169  0.7767 -0.2176
   81CHL1  H21B 8454   4.973   4.639   7.607  0.2083 -1.3812 -0.2159
   81CHL1  H21C 8455   5.130   4.610   7.690  0.9768  1.6907  2.7272
   81CHL1   C22 8456   5.002   4.487   7.921 -0.6338  0.4552 -0.4291
   81CHL1  H22A 8457   4.944   4.402   7.962  0.9916  0.8844  2.9444
   81CHL1  H22B 8458   5.111   4.463   7.924 -0.9693 -0.9864  0.2959
   81CHL1   C23 8459   4.981   4.607   8.017  0.0233 -0.2466 -1.0060
   81CHL1  H23A 8460   5.024   4.699   7.973  1.3533 -1.7361 -2.9252
   81CHL1  H23B 8461   4.872   4.628   8.027  0.3596  0.6164  0.9546
   81CHL1   C24 8462   5.030   4.592   8.162  1.0803 -0.5720 -0.6946
   81CHL1  H24A 8463   5.001   4.490   8.193 -1.4592 -0.2107 -1.7883
   81CHL1  H24B 8464   5.141   4.600   8.165  1.0118  0.1614  0.2831
   81CHL1   C25 8465   4.981   4.704   8.265 -0.8773  0.1263 -0.0303
   81CHL1   H25 8466   5.009   4.804   8.226 -1.2071  0.3453  0.3002
   81CHL1   C26 8467   4.827   4.709   8.289 -0.7670 -0.1738 -0.1997
   81CHL1  H26A 8468   4.780   4.803   8.326 -0.4020  0.7535 -1.9976
   81CHL1  H26B 8469   4.770   4.702   8.193 -2.1433 -1.0156  0.6544
   81CHL1  H26C 8470   4.792   4.621   8.347 -0.6592 -0.8664 -1.1638
   81CHL1   C27 8471   5.043   4.669   8.404 -0.2062  0.0364  0.5590
   81CHL1  H27A 8472   5.006   4.749   8.471  3.1059  0.2872  2.2042
   81CHL1  H27B 8473   5.000   4.572   8.439 -3.0022  0.9918 -0.1498
   81CHL1  H27C 8474   5.153   4.673   8.394 -0.4082  2.1603 -1.0159
   82CHL1    C3 8475   6.011   4.660   7.076  0.2352 -0.0792 -0.3191
   82CHL1    H3 8476   6.003   4.770   7.088  0.8097 -0.0577 -0.1172
   82CHL1    O3 8477   5.998   4.628   6.944 -0.5325 -0.0686 -0.1300
   82CHL1   H3' 8478   5.972   4.537   6.955  1.0930 -0.5262  0.0430
   82CHL1    C4 8479   6.138   4.602   7.132  0.4268 -0.1389  0.4198
   82CHL1   H4A 8480   6.140   4.494   7.106  3.1361  0.1868 -0.8781
   82CHL1   H4B 8481   6.217   4.654   7.073  0.9652  0.4086  1.6021
   82CHL1    C5 8482   6.163   4.618   7.281  0.1092  0.0461  0.7660
   82CHL1    C6 8483   6.280   4.675   7.321 -0.4099 -0.1852  0.2801
   82CHL1    H6 8484   6.357   4.687   7.243 -0.6392 -2.6559 -0.3708
   82CHL1    C7 8485   6.321   4.695   7.462  0.5891 -0.5857  0.1154
   82CHL1   H7A 8486   6.424   4.654   7.476  0.6617 -0.0835  1.1630
   82CHL1   H7B 8487   6.334   4.802   7.490 -0.9472 -0.6855  1.2338
   82CHL1    C8 8488   6.227   4.613   7.553  0.4820  0.6399 -0.0895
   82CHL1    H8 8489   6.255   4.508   7.534  0.3000  0.1666  2.0565
   82CHL1   C14 8490   6.247   4.657   7.702 -0.1480  0.1584 -0.0464
   82CHL1   H14 8491   6.219   4.764   7.702 -2.9171 -0.5021 -2.4974
   82CHL1   C15 8492   6.387   4.644   7.756 -0.2712  0.2947  0.0846
   82CHL1  H15A 8493   6.424   4.544   7.723 -1.5336 -0.5478  1.1361
   82CHL1  H15B 8494   6.447   4.723   7.707  0.2203  0.5800  1.1277
   82CHL1   C16 8495   6.371   4.656   7.907  0.3938  0.8147 -1.2396
   82CHL1  H16A 8496   6.430   4.574   7.952  0.2191  0.3857 -1.8008
   82CHL1  H16B 8497   6.403   4.756   7.943  2.0462  0.1146 -0.7424
   82CHL1   C17 8498   6.213   4.643   7.936 -0.4257  0.1303  0.3720
   82CHL1   H17 8499   6.185   4.751   7.937 -0.4613  0.1387 -0.8310
   82CHL1   C13 8500   6.152   4.585   7.800  0.4839  1.1448 -0.7123
   82CHL1   C18 8501   6.178   4.429   7.795 -0.2606  0.4327 -0.6029
   82CHL1  H18A 8502   6.100   4.375   7.852  1.1713 -1.0823 -0.0183
   82CHL1  H18B 8503   6.160   4.393   7.691  0.1373 -0.7369 -0.2835
   82CHL1  H18C 8504   6.278   4.397   7.832  0.3445 -1.6889 -3.7964
   82CHL1   C12 8505   6.009   4.619   7.750  0.2413  0.4928  0.3204
   82CHL1  H12A 8506   5.943   4.568   7.822  0.8174 -0.1755  0.3817
   82CHL1  H12B 8507   5.981   4.727   7.754 -0.6160  0.3665 -1.9287
   82CHL1   C11 8508   5.986   4.557   7.613 -0.5639  0.0287 -0.9545
   82CHL1  H11A 8509   5.988   4.446   7.617 -1.2724  0.0143 -0.8785
   82CHL1  H11B 8510   5.881   4.575   7.582 -1.2596 -1.1093  0.6446
   82CHL1    C9 8511   6.081   4.620   7.506  0.7624  0.4644  0.4701
   82CHL1    H9 8512   6.059   4.728   7.499 -2.5058 -0.1554  0.3140
   82CHL1   C10 8513   6.056   4.570   7.364 -0.2314  0.1686 -0.9962
   82CHL1   C19 8514   6.053   4.412   7.361 -0.1380 -0.6009 -0.1313
   82CHL1  H19A 8515   6.120   4.367   7.437  1.2510 -0.1929 -1.0904
   82CHL1  H19B 8516   5.952   4.376   7.388  0.9286 -1.9540  2.1820
   82CHL1  H19C 8517   6.070   4.374   7.258  2.3269  1.2984 -0.4913
   82CHL1    C1 8518   5.925   4.636   7.307  0.0604  0.5707 -0.7237
   82CHL1   H1A 8519   5.848   4.588   7.371  0.5204  3.0444  1.8111
   82CHL1   H1B 8520   5.926   4.745   7.330 -0.7599  0.5768 -0.6674
   82CHL1    C2 8521   5.892   4.608   7.156  0.0717 -0.1567 -0.8838
   82CHL1   H2A 8522   5.802   4.669   7.137  0.3893  1.0292  1.2582
   82CHL1   H2B 8523   5.872   4.498   7.155 -1.4206  0.1062 -1.1136
   82CHL1   C20 8524   6.180   4.578   8.064  0.5334  0.7461  0.5769
   82CHL1   H20 8525   6.215   4.473   8.056 -1.4327  0.1250 -0.0391
   82CHL1   C21 8526   6.030   4.565   8.083  0.0414 -0.0881 -0.0538
   82CHL1  H21A 8527   6.011   4.542   8.190 -2.2010  1.5286 -0.0913
   82CHL1  H21B 8528   5.973   4.489   8.026  2.4187 -1.4487 -0.7284
   82CHL1  H21C 8529   5.983   4.665   8.078 -2.7380 -1.3534 -0.0079
   82CHL1   C22 8530   6.247   4.650   8.187  0.1312  0.0277  1.2183
   82CHL1  H22A 8531   6.351   4.686   8.174 -0.7052  1.3766 -2.3299
   82CHL1  H22B 8532   6.193   4.745   8.207  0.0578  0.8752 -2.5495
   82CHL1   C23 8533   6.243   4.566   8.318  0.2197 -0.4227  0.2565
   82CHL1  H23A 8534   6.139   4.537   8.343 -0.0895  1.4563  1.2222
   82CHL1  H23B 8535   6.292   4.469   8.293  0.6590  0.2816 -1.7958
   82CHL1   C24 8536   6.313   4.630   8.440  0.3803 -0.3021  1.0215
   82CHL1  H24A 8537   6.416   4.663   8.414 -0.5441  2.3372  0.5788
   82CHL1  H24B 8538   6.269   4.724   8.479  0.3638  0.9126 -1.7850
   82CHL1   C25 8539   6.322   4.536   8.565  0.2825  0.7965  0.6358
   82CHL1   H25 8540   6.230   4.474   8.570  1.2068 -0.5096  2.1740
   82CHL1   C26 8541   6.431   4.424   8.558 -0.0700  0.4589 -0.1976
   82CHL1  H26A 8542   6.444   4.386   8.454 -1.1077 -1.7130  0.4398
   82CHL1  H26B 8543   6.526   4.472   8.590 -0.6504  2.4228 -1.3513
   82CHL1  H26C 8544   6.427   4.341   8.631  1.1861 -0.3825 -1.0552
   82CHL1   C27 8545   6.316   4.619   8.683 -0.4241  0.2611 -0.0144
   82CHL1  H27A 8546   6.342   4.543   8.760  1.1718  1.3207  0.5041
   82CHL1  H27B 8547   6.390   4.701   8.681 -0.7173  0.5553  1.0972
   82CHL1  H27C 8548   6.218   4.659   8.717 -1.3492 -0.9883 -1.1424
   83CHL1    C3 8549   2.745   6.027   6.870  0.0948 -0.8523  0.4438
   83CHL1    H3 8550   2.709   6.118   6.922  1.4613 -1.9650  3.4586
   83CHL1    O3 8551   2.802   6.066   6.739  0.5916  0.0283 -0.0157
   83CHL1   H3' 8552   2.896   6.073   6.757  0.5114 -1.8960  1.3200
   83CHL1    C4 8553   2.852   5.949   6.951 -0.0314 -0.1869 -1.0164
   83CHL1   H4A 8554   2.872   5.858   6.892 -1.1371  1.6001 -4.2576
   83CHL1   H4B 8555   2.953   5.993   6.964 -0.9320  1.4515  0.7397
   83CHL1    C5 8556   2.793   5.920   7.091 -0.3395 -0.0081 -0.1244
   83CHL1    C6 8557   2.854   5.957   7.200 -0.1518  0.5156 -0.3231
   83CHL1    H6 8558   2.944   6.019   7.196 -0.8575  1.6105  0.5523
   83CHL1    C7 8559   2.812   5.914   7.340  1.3185 -0.8455 -0.5699
   83CHL1   H7A 8560   2.897   5.900   7.411 -0.3389 -0.1451  1.6012
   83CHL1   H7B 8561   2.764   6.009   7.373 -0.6476 -1.8325 -0.5211
   83CHL1    C8 8562   2.712   5.790   7.340  0.1047  0.3039 -0.1859
   83CHL1    H8 8563   2.760   5.694   7.311 -1.8058 -1.1391  1.2504
   83CHL1   C14 8564   2.645   5.777   7.480 -0.7405  0.0311 -0.3132
   83CHL1   H14 8565   2.596   5.876   7.498  1.0416  0.5229  2.0415
   83CHL1   C15 8566   2.741   5.752   7.605  0.4936  0.5290 -0.5820
   83CHL1  H15A 8567   2.822   5.679   7.582 -0.7014 -1.1293  0.4116
   83CHL1  H15B 8568   2.784   5.851   7.633 -1.4172  0.9172  1.0718
   83CHL1   C16 8569   2.649   5.701   7.714  0.1572  0.3753 -0.6446
   83CHL1  H16A 8570   2.687   5.604   7.753  0.0509  0.2342 -0.8851
   83CHL1  H16B 8571   2.659   5.774   7.797  0.2443 -1.6686  1.1866
   83CHL1   C17 8572   2.505   5.689   7.646 -0.2114 -0.8352  0.4249
   83CHL1   H17 8573   2.456   5.788   7.655 -1.6124 -1.3833 -0.9739
   83CHL1   C13 8574   2.537   5.677   7.493  0.3899 -0.3049 -0.9331
   83CHL1   C18 8575   2.582   5.532   7.464  0.4943  0.1762  0.2326
   83CHL1  H18A 8576   2.655   5.498   7.541  1.5139 -0.5952 -1.0455
   83CHL1  H18B 8577   2.493   5.467   7.470  1.2511 -0.9744 -0.7020
   83CHL1  H18C 8578   2.637   5.529   7.368  0.9361  0.3211  0.4787
   83CHL1   C12 8579   2.423   5.716   7.395  0.0528  0.4993  0.6344
   83CHL1  H12A 8580   2.341   5.641   7.387  1.3736 -1.1334  1.9978
   83CHL1  H12B 8581   2.374   5.810   7.429 -0.7709  0.0612  0.6906
   83CHL1   C11 8582   2.484   5.720   7.252  0.2875  0.0751  0.1614
   83CHL1  H11A 8583   2.508   5.617   7.218  1.0334 -0.0578  1.0669
   83CHL1  H11B 8584   2.403   5.760   7.187 -0.1195 -0.1040  0.5562
   83CHL1    C9 8585   2.607   5.821   7.236 -0.0416  0.2035 -0.5071
   83CHL1    H9 8586   2.566   5.917   7.274  0.0518 -0.0001  0.1179
   83CHL1   C10 8587   2.662   5.834   7.094  0.0093  0.0720 -0.4457
   83CHL1   C19 8588   2.698   5.695   7.035  0.7001  1.0218  0.1649
   83CHL1  H19A 8589   2.605   5.634   7.032  0.6635  0.9885  1.7324
   83CHL1  H19B 8590   2.728   5.705   6.929  0.5918 -0.6498 -0.0321
   83CHL1  H19C 8591   2.776   5.646   7.097 -0.9248 -2.0565 -0.0835
   83CHL1    C1 8592   2.565   5.900   6.988  0.0966 -0.0551 -0.5515
   83CHL1   H1A 8593   2.478   5.832   6.972 -0.0230  0.4429 -2.1124
   83CHL1   H1B 8594   2.522   5.990   7.036  1.7246  1.1954 -1.3989
   83CHL1    C2 8595   2.621   5.945   6.849  0.4001  0.2037  0.1803
   83CHL1   H2A 8596   2.540   6.004   6.802  0.0087 -0.8950 -0.5645
   83CHL1   H2B 8597   2.634   5.861   6.777 -2.4716  1.3835 -1.8129
   83CHL1   C20 8598   2.420   5.581   7.717  0.4201  0.4577 -0.3068
   83CHL1   H20 8599   2.482   5.490   7.707  1.1890  0.8512  0.7927
   83CHL1   C21 8600   2.286   5.569   7.651  0.1236 -0.6826  0.0480
   83CHL1  H21A 8601   2.248   5.672   7.636 -0.9695 -0.9941  0.7124
   83CHL1  H21B 8602   2.209   5.508   7.702  0.8328 -0.6849  1.1207
   83CHL1  H21C 8603   2.290   5.513   7.555 -3.5742 -1.7051  0.4382
   83CHL1   C22 8604   2.403   5.610   7.869 -0.1531  0.2778  0.5269
   83CHL1  H22A 8605   2.502   5.638   7.911 -0.2019  0.6616  0.3886
   83CHL1  H22B 8606   2.352   5.709   7.878  1.4912  1.0955  1.1071
   83CHL1   C23 8607   2.323   5.512   7.961  0.7643  0.3310  0.8078
   83CHL1  H23A 8608   2.231   5.483   7.907  0.7884 -1.4410  1.6885
   83CHL1  H23B 8609   2.385   5.420   7.964 -0.3854 -0.4475  0.5086
   83CHL1   C24 8610   2.287   5.583   8.098 -0.0148 -0.5825  0.7108
   83CHL1  H24A 8611   2.386   5.608   8.143  0.4069 -0.4166 -0.2775
   83CHL1  H24B 8612   2.239   5.681   8.075 -2.0871 -1.8445 -0.4873
   83CHL1   C25 8613   2.184   5.510   8.179  0.1582 -0.3744 -0.2932
   83CHL1   H25 8614   2.091   5.495   8.120 -0.2943  0.9931  0.0458
   83CHL1   C26 8615   2.228   5.376   8.235 -0.7155  0.1957  0.1423
   83CHL1  H26A 8616   2.150   5.321   8.293  1.3082 -0.5338  2.2498
   83CHL1  H26B 8617   2.257   5.315   8.147 -1.1978  0.7475 -0.4009
   83CHL1  H26C 8618   2.325   5.386   8.288 -0.8682  3.6789 -0.1272
   83CHL1   C27 8619   2.145   5.600   8.304 -0.0534 -0.0287 -0.3611
   83CHL1  H27A 8620   2.046   5.566   8.340  0.2835  1.7850  2.3960
   83CHL1  H27B 8621   2.226   5.585   8.378  1.4756  3.4849 -1.2401
   83CHL1  H27C 8622   2.134   5.706   8.273 -2.6099 -0.6498 -1.7558
   84CHL1    C3 8623   4.787   2.637   6.959  0.6399 -0.5137  0.2854
   84CHL1    H3 8624   4.708   2.715   6.962  0.6646 -0.5322  2.0640
   84CHL1    O3 8625   4.856   2.635   6.831 -0.1623  0.6541 -0.1648
   84CHL1   H3' 8626   4.795   2.646   6.758 -2.0659  1.5507  1.5095
   84CHL1    C4 8627   4.895   2.670   7.063  0.0951 -0.2120  0.2340
   84CHL1   H4A 8628   4.978   2.597   7.050  0.0208 -0.0802 -1.0458
   84CHL1   H4B 8629   4.937   2.770   7.039  2.3614 -1.0905  0.3616
   84CHL1    C5 8630   4.830   2.666   7.197  0.7920 -0.2305  0.6040
   84CHL1    C6 8631   4.841   2.763   7.289 -0.7320  0.1235  0.4366
   84CHL1    H6 8632   4.905   2.848   7.260  1.0902 -1.0497  0.8920
   84CHL1    C7 8633   4.796   2.753   7.431  0.1260  0.2220  0.4756
   84CHL1   H7A 8634   4.862   2.809   7.501  0.2401 -1.2583  1.5662
   84CHL1   H7B 8635   4.696   2.796   7.452  0.2330  1.5852 -1.6034
   84CHL1    C8 8636   4.774   2.604   7.476  0.2800 -0.0916 -0.6126
   84CHL1    H8 8637   4.872   2.556   7.496 -0.4648 -0.7719  1.5315
   84CHL1   C14 8638   4.688   2.610   7.606  0.5025  0.2317  0.2958
   84CHL1   H14 8639   4.596   2.661   7.570  0.7540  0.0408 -0.6192
   84CHL1   C15 8640   4.750   2.684   7.727 -0.4651 -0.5164  0.0776
   84CHL1  H15A 8641   4.855   2.654   7.751  0.1022  0.0460 -1.6628
   84CHL1  H15B 8642   4.744   2.793   7.712 -0.4244 -0.4118  0.7848
   84CHL1   C16 8643   4.670   2.642   7.847  0.2994  0.9299  0.0414
   84CHL1  H16A 8644   4.732   2.588   7.921  1.9959  1.3648 -1.0482
   84CHL1  H16B 8645   4.601   2.715   7.894 -0.4429  0.2322  0.0618
   84CHL1   C17 8646   4.579   2.528   7.799 -0.4379 -0.6630 -0.3713
   84CHL1   H17 8647   4.484   2.562   7.753 -0.3520 -0.8331 -0.6769
   84CHL1   C13 8648   4.649   2.481   7.666  0.4152  0.6417  0.4690
   84CHL1   C18 8649   4.769   2.395   7.716 -0.2717  0.0536  0.4915
   84CHL1  H18A 8650   4.812   2.429   7.813 -0.7466 -0.7872  1.0013
   84CHL1  H18B 8651   4.729   2.295   7.742 -1.8883  0.2845 -1.0011
   84CHL1  H18C 8652   4.861   2.393   7.654 -1.0081  2.0667 -0.7368
   84CHL1   C12 8653   4.565   2.397   7.561  0.0228 -0.0003 -0.3437
   84CHL1  H12A 8654   4.530   2.302   7.608 -0.5697  0.1537 -0.4824
   84CHL1  H12B 8655   4.474   2.459   7.553  1.2695  1.7318 -1.3026
   84CHL1   C11 8656   4.638   2.392   7.426  0.0322  0.0095  0.3518
   84CHL1  H11A 8657   4.722   2.322   7.443  1.0979  1.4442  1.1476
   84CHL1  H11B 8658   4.564   2.347   7.356  0.8512 -1.8619  0.6740
   84CHL1    C9 8659   4.690   2.526   7.373 -0.2335 -0.2608 -0.5521
   84CHL1    H9 8660   4.598   2.586   7.361 -2.3924 -2.6067  3.1482
   84CHL1   C10 8661   4.755   2.530   7.235  0.4620 -0.7786  0.6823
   84CHL1   C19 8662   4.870   2.429   7.231  0.3152  0.2485  0.1616
   84CHL1  H19A 8663   4.838   2.327   7.260  0.9655  0.5254  1.9216
   84CHL1  H19B 8664   4.907   2.418   7.126 -0.9151  1.1178 -0.3759
   84CHL1  H19C 8665   4.953   2.447   7.303 -0.1020 -1.0763  0.9899
   84CHL1    C1 8666   4.652   2.498   7.123 -0.1210 -0.4397  0.3235
   84CHL1   H1A 8667   4.615   2.394   7.138 -1.6580  0.2309  1.1957
   84CHL1   H1B 8668   4.559   2.552   7.149 -0.9639 -1.5808 -0.2444
   84CHL1    C2 8669   4.710   2.510   6.979 -0.2563  0.3392 -0.3053
   84CHL1   H2A 8670   4.620   2.515   6.914  0.2366  0.6881 -0.9639
   84CHL1   H2B 8671   4.766   2.418   6.951  1.0870  0.4880  1.7779
   84CHL1   C20 8672   4.541   2.439   7.914 -0.6378 -0.3470  0.4553
   84CHL1   H20 8673   4.632   2.393   7.959 -0.4898  0.5407  1.0904
   84CHL1   C21 8674   4.449   2.320   7.869 -0.0995  0.1167 -0.4956
   84CHL1  H21A 8675   4.353   2.342   7.818  0.4176  1.5182 -0.8937
   84CHL1  H21B 8676   4.428   2.275   7.968  0.3728 -0.0060 -0.4487
   84CHL1  H21C 8677   4.507   2.247   7.808 -0.5997 -1.5860  1.0188
   84CHL1   C22 8678   4.474   2.525   8.031 -0.6388  0.1186  0.5748
   84CHL1  H22A 8679   4.424   2.455   8.102 -1.6266  1.9659  1.7638
   84CHL1  H22B 8680   4.544   2.587   8.091  1.2338 -1.5604  0.1745
   84CHL1   C23 8681   4.356   2.603   7.990 -0.6117 -0.1001 -0.2988
   84CHL1  H23A 8682   4.373   2.682   7.915  0.6899 -1.1774 -1.1619
   84CHL1  H23B 8683   4.282   2.532   7.945  1.5618 -2.5740 -0.0987
   84CHL1   C24 8684   4.289   2.665   8.110 -0.5213 -0.1121 -0.2042
   84CHL1  H24A 8685   4.248   2.581   8.170 -1.8733  0.7710  0.1346
   84CHL1  H24B 8686   4.371   2.702   8.174 -1.2721 -1.3006  1.4930
   84CHL1   C25 8687   4.192   2.780   8.079  0.8797 -0.2035  0.1045
   84CHL1   H25 8688   4.239   2.850   8.006 -2.9626  0.7466 -1.5881
   84CHL1   C26 8689   4.060   2.733   8.008 -0.5630 -0.1075 -0.3052
   84CHL1  H26A 8690   3.985   2.685   8.074 -1.0506  1.4851  0.2967
   84CHL1  H26B 8691   4.017   2.826   7.966  1.5957  1.4027  0.7163
   84CHL1  H26C 8692   4.089   2.673   7.918  1.8716  0.6794 -0.0759
   84CHL1   C27 8693   4.159   2.868   8.202 -0.3175  0.3008  0.2876
   84CHL1  H27A 8694   4.088   2.947   8.168 -1.6867 -2.3211 -3.2553
   84CHL1  H27B 8695   4.111   2.805   8.280 -1.4637  0.9382  0.1086
   84CHL1  H27C 8696   4.252   2.913   8.244 -0.0269  0.8369 -0.9280
   85CHL1    C3 8697   4.894   5.736   6.844 -0.0349 -0.0525 -0.1629
   85CHL1    H3 8698   4.897   5.627   6.863  1.0202 -0.1309 -0.7061
   85CHL1    O3 8699   4.903   5.763   6.705  0.5420 -0.4594 -0.3235
   85CHL1   H3' 8700   4.915   5.858   6.701  0.6307 -0.3250  2.2551
   85CHL1    C4 8701   4.759   5.789   6.890 -0.7153 -0.5602  0.0937
   85CHL1   H4A 8702   4.753   5.894   6.853  1.3039 -1.1702 -2.0857
   85CHL1   H4B 8703   4.677   5.741   6.832  0.4693 -0.6136 -1.5736
   85CHL1    C5 8704   4.719   5.794   7.033  0.6529 -0.2878  0.1585
   85CHL1    C6 8705   4.606   5.743   7.084 -0.1945  0.2928 -0.3158
   85CHL1    H6 8706   4.531   5.687   7.026 -1.1031  1.1602 -0.0013
   85CHL1    C7 8707   4.563   5.751   7.229 -0.3636 -0.5403  0.4881
   85CHL1   H7A 8708   4.460   5.789   7.246 -1.1030 -1.0970 -2.4869
   85CHL1   H7B 8709   4.552   5.642   7.251 -0.1717 -0.5691  0.4454
   85CHL1    C8 8710   4.665   5.834   7.312  0.6567  0.2351 -0.1758
   85CHL1    H8 8711   4.636   5.940   7.300 -1.2794 -0.1320  1.0860
   85CHL1   C14 8712   4.650   5.809   7.464  0.1247  0.2704  0.3159
   85CHL1   H14 8713   4.686   5.706   7.486  1.3967  0.9493  1.5521
   85CHL1   C15 8714   4.510   5.833   7.523 -0.0840 -0.4249  0.2815
   85CHL1  H15A 8715   4.472   5.932   7.490  0.9276  0.8491  2.8094
   85CHL1  H15B 8716   4.431   5.762   7.490 -0.5709 -0.1636  0.8886
   85CHL1   C16 8717   4.536   5.842   7.675 -0.3376  0.1141 -0.0975
   85CHL1  H16A 8718   4.487   5.926   7.728  0.2509  0.7746 -0.5972
   85CHL1  H16B 8719   4.498   5.747   7.720  1.5634 -0.7906 -0.3841
   85CHL1   C17 8720   4.689   5.849   7.697  0.5049  0.3188 -0.9723
   85CHL1   H17 8721   4.736   5.749   7.711 -0.4304  0.1997  1.5515
   85CHL1   C13 8722   4.745   5.888   7.555  0.2186  0.2233  0.4086
   85CHL1   C18 8723   4.725   6.039   7.538 -0.4527 -0.2892  0.1288
   85CHL1  H18A 8724   4.758   6.071   7.438 -0.5977 -0.9141 -0.1243
   85CHL1  H18B 8725   4.619   6.071   7.548 -1.1431 -2.8354  1.4110
   85CHL1  H18C 8726   4.786   6.096   7.611  2.8516 -1.3994 -1.6863
   85CHL1   C12 8727   4.889   5.851   7.522 -0.0280 -0.1959 -0.6534
   85CHL1  H12A 8728   4.966   5.906   7.580 -0.5065  2.0640 -2.0807
   85CHL1  H12B 8729   4.902   5.743   7.544  1.8994  0.1341 -0.0865
   85CHL1   C11 8730   4.918   5.873   7.374  0.7703 -0.2900 -0.1293
   85CHL1  H11A 8731   4.922   5.983   7.363  0.1783 -0.1142  1.2310
   85CHL1  H11B 8732   5.023   5.842   7.355  0.8214 -0.3170  0.1805
   85CHL1    C9 8733   4.816   5.816   7.266 -0.5021  0.2589  0.3410
   85CHL1    H9 8734   4.840   5.707   7.274 -1.6858 -0.1237 -1.1303
   85CHL1   C10 8735   4.838   5.855   7.114 -0.5575  0.2537 -0.9425
   85CHL1   C19 8736   4.815   6.011   7.098  0.6048 -0.5789 -0.2461
   85CHL1  H19A 8737   4.843   6.047   6.997 -0.4222  0.6880 -0.1030
   85CHL1  H19B 8738   4.711   6.048   7.114  0.9615  0.2165  0.2796
   85CHL1  H19C 8739   4.876   6.064   7.175 -1.2231  1.5478 -0.2067
   85CHL1    C1 8740   4.975   5.802   7.068  0.0762 -0.1183 -0.1494
   85CHL1   H1A 8741   5.057   5.863   7.112 -0.3469  1.5417 -1.5661
   85CHL1   H1B 8742   4.985   5.695   7.096  2.0351 -0.0408 -0.5146
   85CHL1    C2 8743   4.998   5.817   6.914 -0.5272  0.1314 -0.6406
   85CHL1   H2A 8744   5.100   5.782   6.889 -1.0828 -2.4094  0.4212
   85CHL1   H2B 8745   4.985   5.924   6.889 -0.7193  0.3301  0.2830
   85CHL1   C20 8746   4.722   5.936   7.819 -0.5534  0.9267 -0.5979
   85CHL1   H20 8747   4.699   6.044   7.806 -1.1743  1.0081  1.0603
   85CHL1   C21 8748   4.872   5.938   7.855  0.7353 -0.0156  0.1794
   85CHL1  H21A 8749   4.925   5.972   7.763 -2.0688 -0.3680 -1.6238
   85CHL1  H21B 8750   4.910   5.841   7.895 -1.3765 -1.3496 -0.9930
   85CHL1  H21C 8751   4.895   6.015   7.932  0.0685 -0.2778  0.6436
   85CHL1   C22 8752   4.642   5.891   7.944 -0.1539  0.1834 -0.0245
   85CHL1  H22A 8753   4.663   5.965   8.025 -1.6707  0.8894 -0.2594
   85CHL1  H22B 8754   4.533   5.887   7.924 -0.6283 -0.5469  2.5619
   85CHL1   C23 8755   4.677   5.755   8.009  0.4166  0.0803 -0.2148
   85CHL1  H23A 8756   4.591   5.696   7.972 -0.4198  1.3617 -0.3336
   85CHL1  H23B 8757   4.776   5.715   7.977  1.1978  1.9594 -0.2054
   85CHL1   C24 8758   4.651   5.757   8.166  0.4121  0.0639 -0.0095
   85CHL1  H24A 8759   4.709   5.840   8.211  0.4290  0.1396 -0.1676
   85CHL1  H24B 8760   4.545   5.787   8.184  0.5817 -0.2704  1.6168
   85CHL1   C25 8761   4.681   5.625   8.237 -0.5071  0.2180  0.2275
   85CHL1   H25 8762   4.618   5.554   8.179  0.5256 -0.1258 -0.4758
   85CHL1   C26 8763   4.826   5.570   8.235 -0.5764 -0.0106 -0.2295
   85CHL1  H26A 8764   4.852   5.536   8.132  1.3358  0.0585  0.2169
   85CHL1  H26B 8765   4.901   5.650   8.254  0.1224 -0.5722 -0.6033
   85CHL1  H26C 8766   4.831   5.480   8.300 -0.3916 -0.7948 -1.3141
   85CHL1   C27 8767   4.618   5.624   8.376  0.2312  0.1167 -0.4249
   85CHL1  H27A 8768   4.677   5.678   8.452 -1.7125 -2.6188  3.1606
   85CHL1  H27B 8769   4.517   5.670   8.366  0.2128 -0.0063 -0.8449
   85CHL1  H27C 8770   4.611   5.521   8.415  0.1102  0.5487  0.7101
   86CHL1    C3 8771   0.117   3.814   7.135  0.8179  0.5293 -0.7520
   86CHL1    H3 8772   0.206   3.752   7.159  0.2515  0.3552  0.9500
   86CHL1    O3 8773   0.135   3.888   7.019  0.2443  0.1179 -0.9854
   86CHL1   H3' 8774   0.047   3.899   6.983  0.2692  1.1293 -0.7582
   86CHL1    C4 8775   0.008   3.698   7.112  0.3559  0.4682 -0.1454
   86CHL1   H4A 8776  -0.088   3.745   7.079  0.2014 -0.0796 -0.4751
   86CHL1   H4B 8777   0.050   3.633   7.033  1.7139 -1.3793  2.0419
   86CHL1    C5 8778  -0.036   3.624   7.235 -0.1793  0.8992 -0.2800
   86CHL1    C6 8779  -0.035   3.492   7.237  0.5723 -0.7558 -0.3541
   86CHL1    H6 8780   0.010   3.421   7.166  0.2355 -1.8537  0.5113
   86CHL1    C7 8781  -0.092   3.418   7.351 -0.2459  0.5104 -0.3907
   86CHL1   H7A 8782  -0.154   3.332   7.315  1.6154  0.2363 -3.1193
   86CHL1   H7B 8783  -0.010   3.363   7.402 -1.3470 -1.9000 -1.1199
   86CHL1    C8 8784  -0.179   3.499   7.454  0.0033  1.3315 -0.7919
   86CHL1    H8 8785  -0.277   3.516   7.405  0.0100 -0.6568 -1.5344
   86CHL1   C14 8786  -0.181   3.419   7.589  0.1886  0.2089  0.0843
   86CHL1   H14 8787  -0.074   3.419   7.619  0.7227  0.2717 -1.8011
   86CHL1   C15 8788  -0.242   3.274   7.594  0.1862 -0.0748 -1.1413
   86CHL1  H15A 8789  -0.342   3.271   7.544 -0.7719  1.1715  0.6614
   86CHL1  H15B 8790  -0.173   3.209   7.536 -0.0265 -0.8563 -0.5218
   86CHL1   C16 8791  -0.249   3.250   7.749 -0.3135  0.0968  0.0530
   86CHL1  H16A 8792  -0.343   3.194   7.773 -0.0579  0.1657  1.2786
   86CHL1  H16B 8793  -0.164   3.189   7.787 -1.6254 -1.7093  0.1801
   86CHL1   C17 8794  -0.246   3.397   7.818 -0.5886  0.5795  0.0600
   86CHL1   H17 8795  -0.152   3.416   7.873 -1.4932 -2.4160  2.7983
   86CHL1   C13 8796  -0.250   3.496   7.697  0.5446  0.2017  0.7114
   86CHL1   C18 8797  -0.401   3.514   7.653 -1.4147  0.2542 -0.1894
   86CHL1  H18A 8798  -0.464   3.561   7.732  1.7011  0.6127  2.1655
   86CHL1  H18B 8799  -0.409   3.573   7.559 -1.1292  0.5889 -0.0016
   86CHL1  H18C 8800  -0.457   3.418   7.651 -0.6684 -0.1919  0.1632
   86CHL1   C12 8801  -0.180   3.631   7.726 -0.2251 -0.0309  0.7489
   86CHL1  H12A 8802  -0.235   3.689   7.803 -0.7556 -1.1411  1.2140
   86CHL1  H12B 8803  -0.080   3.609   7.770  0.1898 -5.3478 -2.4630
   86CHL1   C11 8804  -0.164   3.720   7.605 -0.4060  0.3778  0.5019
   86CHL1  H11A 8805  -0.266   3.757   7.580  0.4563  1.1910 -1.9628
   86CHL1  H11B 8806  -0.112   3.817   7.620 -1.5453  0.8441  1.4881
   86CHL1    C9 8807  -0.111   3.635   7.478  0.0850 -0.9583 -0.0020
   86CHL1    H9 8808  -0.006   3.616   7.509  0.2940  0.8763  0.4836
   86CHL1   C10 8809  -0.084   3.714   7.348  0.9326 -0.4393 -0.5536
   86CHL1   C19 8810  -0.216   3.791   7.314  0.3293  0.0327 -0.2798
   86CHL1  H19A 8811  -0.254   3.854   7.397  2.0127 -0.8867  1.2331
   86CHL1  H19B 8812  -0.210   3.863   7.230 -1.4898  0.9502  0.3588
   86CHL1  H19C 8813  -0.294   3.715   7.289  1.1966 -1.0241  0.1499
   86CHL1    C1 8814   0.033   3.812   7.373  1.1694 -0.7442  0.0591
   86CHL1   H1A 8815   0.000   3.884   7.452  1.3807  0.3579 -0.8518
   86CHL1   H1B 8816   0.113   3.750   7.417  0.4269 -2.4074 -0.9096
   86CHL1    C2 8817   0.087   3.897   7.252  0.0544  1.3806  0.2780
   86CHL1   H2A 8818   0.173   3.956   7.289  1.0752  0.7356 -1.0191
   86CHL1   H2B 8819  -0.000   3.955   7.215 -0.6125 -0.0189 -0.4046
   86CHL1   C20 8820  -0.356   3.406   7.930 -0.2490  0.3820 -0.4970
   86CHL1   H20 8821  -0.455   3.375   7.890  0.1939 -1.3733 -0.2729
   86CHL1   C21 8822  -0.363   3.558   7.989  0.4217  0.3947 -0.4369
   86CHL1  H21A 8823  -0.422   3.556   8.082 -1.1087  0.5124 -1.3816
   86CHL1  H21B 8824  -0.413   3.622   7.913  2.3526  2.1458 -0.2725
   86CHL1  H21C 8825  -0.260   3.592   8.013 -0.5722  1.7631  2.0015
   86CHL1   C22 8826  -0.322   3.319   8.054 -0.3630 -0.6101 -0.2631
   86CHL1  H22A 8827  -0.298   3.216   8.021  0.9368 -0.9120  1.5751
   86CHL1  H22B 8828  -0.231   3.355   8.107  0.6448 -3.8174  0.2516
   86CHL1   C23 8829  -0.444   3.291   8.148  0.5541  0.2440  0.2174
   86CHL1  H23A 8830  -0.464   3.382   8.209  0.4789  0.5602 -0.2760
   86CHL1  H23B 8831  -0.525   3.257   8.081 -0.1853 -0.5531  1.4952
   86CHL1   C24 8832  -0.431   3.188   8.255  0.2530 -0.1929  0.1746
   86CHL1  H24A 8833  -0.417   3.092   8.200  0.0020  0.1276 -0.4515
   86CHL1  H24B 8834  -0.338   3.205   8.313  0.2210  1.4752 -0.2217
   86CHL1   C25 8835  -0.547   3.169   8.346 -0.0210 -0.1635 -0.6051
   86CHL1   H25 8836  -0.638   3.143   8.287  0.8729 -1.6734 -1.3499
   86CHL1   C26 8837  -0.527   3.066   8.451 -1.0131  0.7627 -0.2379
   86CHL1  H26A 8838  -0.432   3.094   8.502  0.7175 -2.0572 -1.8107
   86CHL1  H26B 8839  -0.614   3.074   8.520  0.3643 -2.5516  2.0413
   86CHL1  H26C 8840  -0.520   2.962   8.414  1.9500  1.5263 -1.9774
   86CHL1   C27 8841  -0.584   3.292   8.423 -0.0621 -0.1803  0.0162
   86CHL1  H27A 8842  -0.604   3.380   8.359 -1.1935 -1.4043 -1.3748
   86CHL1  H27B 8843  -0.675   3.272   8.484 -0.1383  3.2659  1.1036
   86CHL1  H27C 8844  -0.506   3.319   8.497  1.4698  0.0683 -1.6585
   87CHL1    C3 8845   6.615   1.859   7.047  0.2288 -0.1509  0.4845
   87CHL1    H3 8846   6.610   1.958   7.098  1.7966 -0.8627  2.0642
   87CHL1    O3 8847   6.627   1.873   6.904 -0.0114  0.0855  0.4575
   87CHL1   H3' 8848   6.627   1.784   6.867  2.2607  1.3308 -2.8427
   87CHL1    C4 8849   6.743   1.813   7.103  0.0536  0.3173 -0.2054
   87CHL1   H4A 8850   6.777   1.726   7.043 -0.3126  0.6863 -0.9556
   87CHL1   H4B 8851   6.827   1.881   7.075 -0.3484  0.2786 -1.5195
   87CHL1    C5 8852   6.743   1.776   7.252 -0.2087 -0.4310  0.1208
   87CHL1    C6 8853   6.832   1.832   7.336 -0.0907 -0.0996  0.2666
   87CHL1    H6 8854   6.911   1.896   7.292 -0.1282  1.8641  2.9122
   87CHL1    C7 8855   6.852   1.794   7.480  0.0171  0.8933  0.1205
   87CHL1   H7A 8856   6.961   1.780   7.491 -0.3424 -1.5985  0.8011
   87CHL1   H7B 8857   6.827   1.876   7.551 -1.0229 -0.0770  0.9009
   87CHL1    C8 8858   6.770   1.677   7.519 -0.2881  0.2895 -0.2070
   87CHL1    H8 8859   6.825   1.583   7.494  0.7284 -0.1881  3.5575
   87CHL1   C14 8860   6.763   1.686   7.669  0.3541  0.3098 -0.5098
   87CHL1   H14 8861   6.713   1.781   7.697 -2.4155 -0.6269 -2.1095
   87CHL1   C15 8862   6.900   1.684   7.737 -0.5103  0.0475 -0.2484
   87CHL1  H15A 8863   6.978   1.613   7.704 -0.1848  1.1787 -1.9944
   87CHL1  H15B 8864   6.946   1.785   7.737  0.0986 -0.2206  0.5183
   87CHL1   C16 8865   6.856   1.660   7.885  0.1650  0.7323  0.0351
   87CHL1  H16A 8866   6.945   1.607   7.926 -0.5833 -0.6628 -0.0957
   87CHL1  H16B 8867   6.846   1.750   7.949 -0.2915 -0.1323  1.1943
   87CHL1   C17 8868   6.711   1.598   7.888  0.0509 -0.0905  0.2798
   87CHL1   H17 8869   6.647   1.686   7.911  0.1619  0.3669 -1.0863
   87CHL1   C13 8870   6.678   1.573   7.739  0.6951 -0.1779  0.1377
   87CHL1   C18 8871   6.743   1.444   7.699 -0.0080 -0.2443 -0.0327
   87CHL1  H18A 8872   6.728   1.426   7.590 -0.4812  1.7860 -0.3155
   87CHL1  H18B 8873   6.849   1.428   7.727 -0.1850 -0.1412  0.6929
   87CHL1  H18C 8874   6.691   1.362   7.753 -0.0811 -2.2318 -2.9926
   87CHL1   C12 8875   6.531   1.603   7.674  0.0914  0.5131 -0.1946
   87CHL1  H12A 8876   6.466   1.523   7.716 -1.2468  1.9842  0.6029
   87CHL1  H12B 8877   6.489   1.701   7.706 -1.0228  0.5502 -1.6993
   87CHL1   C11 8878   6.527   1.592   7.521  0.1392 -0.2762 -0.1081
   87CHL1  H11A 8879   6.549   1.485   7.503 -2.1609 -0.5628 -1.4328
   87CHL1  H11B 8880   6.423   1.604   7.485 -0.5931  1.9837  2.5642
   87CHL1    C9 8881   6.624   1.687   7.454 -0.2925  0.9098 -0.0855
   87CHL1    H9 8882   6.595   1.790   7.485  1.0899  1.2925 -0.0074
   87CHL1   C10 8883   6.628   1.684   7.295  0.5084  0.2985  0.5563
   87CHL1   C19 8884   6.643   1.536   7.252 -0.3549 -0.0740 -0.1450
   87CHL1  H19A 8885   6.552   1.481   7.286 -1.8216  1.2045 -1.8633
   87CHL1  H19B 8886   6.650   1.522   7.142 -1.2248 -1.0010 -0.0925
   87CHL1  H19C 8887   6.727   1.488   7.306  0.7830  1.1173 -0.8223
   87CHL1    C1 8888   6.492   1.735   7.235  0.3749  0.2373  0.4868
   87CHL1   H1A 8889   6.416   1.661   7.270  0.4200  0.6813  1.5209
   87CHL1   H1B 8890   6.479   1.833   7.285 -1.3919  0.3026 -0.0451
   87CHL1    C2 8891   6.498   1.769   7.081  0.5650  0.1848 -0.5184
   87CHL1   H2A 8892   6.397   1.809   7.058 -0.0237 -0.4241  0.9785
   87CHL1   H2B 8893   6.492   1.675   7.021 -1.7541  0.7512 -1.2260
   87CHL1   C20 8894   6.681   1.490   7.989 -0.3650 -0.0179 -0.0608
   87CHL1   H20 8895   6.742   1.403   7.956  1.6919  0.8505  1.2888
   87CHL1   C21 8896   6.538   1.460   7.987  0.8866  0.2526 -0.3458
   87CHL1  H21A 8897   6.502   1.383   8.057  3.9693 -1.1427 -0.1956
   87CHL1  H21B 8898   6.504   1.430   7.885  1.2470  0.3401 -0.4918
   87CHL1  H21C 8899   6.480   1.552   8.009 -0.4262 -0.3288 -1.2604
   87CHL1   C22 8900   6.737   1.536   8.127 -0.3327  0.6153  0.4751
   87CHL1  H22A 8901   6.710   1.454   8.198 -0.7086  1.2068  1.0146
   87CHL1  H22B 8902   6.846   1.554   8.114  0.0747 -1.0984  1.3236
   87CHL1   C23 8903   6.679   1.659   8.193 -0.4199  0.4587  0.4624
   87CHL1  H23A 8904   6.709   1.747   8.133  1.0824 -0.1994  0.2112
   87CHL1  H23B 8905   6.568   1.653   8.184 -0.2291 -0.1886 -1.8212
   87CHL1   C24 8906   6.748   1.680   8.327 -0.1273 -0.1113  0.8098
   87CHL1  H24A 8907   6.717   1.596   8.393  0.3720 -3.6231 -3.2400
   87CHL1  H24B 8908   6.857   1.666   8.311 -0.4706 -1.8072 -0.1533
   87CHL1   C25 8909   6.712   1.810   8.400 -0.0933 -0.1470  0.2600
   87CHL1   H25 8910   6.601   1.819   8.408 -0.2848 -1.9377 -0.1811
   87CHL1   C26 8911   6.763   1.815   8.550 -0.2775  0.5184 -0.3788
   87CHL1  H26A 8912   6.735   1.720   8.599  1.2588  0.4401  0.3595
   87CHL1  H26B 8913   6.872   1.833   8.557 -0.1814 -0.8839  2.2442
   87CHL1  H26C 8914   6.712   1.896   8.607 -0.2569  0.5928 -0.4679
   87CHL1   C27 8915   6.763   1.936   8.329 -0.1714 -0.0623  0.4390
   87CHL1  H27A 8916   6.728   1.931   8.224  1.0792  0.8324 -0.0223
   87CHL1  H27B 8917   6.715   2.026   8.374 -0.8087 -0.5656  0.7783
   87CHL1  H27C 8918   6.873   1.947   8.325 -0.0957 -0.2499  1.6133
   88CHL1    C3 8919   4.055   1.001   6.943 -0.5396  0.1488  0.2007
   88CHL1    H3 8920   4.070   1.098   6.995 -1.9339 -0.0265  0.9659
   88CHL1    O3 8921   4.015   1.014   6.808  0.3978  0.0756  0.2018
   88CHL1   H3' 8922   4.069   0.949   6.760  1.4449  0.2657  1.1136
   88CHL1    C4 8923   4.184   0.916   6.948 -0.9652  0.0695 -0.2839
   88CHL1   H4A 8924   4.172   0.821   6.892 -0.6966  0.5007 -1.0880
   88CHL1   H4B 8925   4.272   0.957   6.894 -0.7326  1.3021  0.9987
   88CHL1    C5 8926   4.219   0.879   7.091  0.7435 -0.1255 -0.7140
   88CHL1    C6 8927   4.342   0.896   7.134  0.1403 -0.4855 -0.6379
   88CHL1    H6 8928   4.414   0.943   7.065 -1.7295  1.7772 -1.1248
   88CHL1    C7 8929   4.390   0.858   7.269 -0.0958  0.8146 -0.7213
   88CHL1   H7A 8930   4.475   0.787   7.259 -0.0946  0.6041  0.7596
   88CHL1   H7B 8931   4.406   0.953   7.324 -0.7081  0.7681 -0.4609
   88CHL1    C8 8932   4.284   0.778   7.348  0.0187 -0.4588  0.4783
   88CHL1    H8 8933   4.289   0.674   7.310 -0.0968  0.0413 -0.9087
   88CHL1   C14 8934   4.319   0.789   7.496  0.8041 -0.3636 -0.0951
   88CHL1   H14 8935   4.312   0.898   7.514 -2.7843 -0.2273 -1.8123
   88CHL1   C15 8936   4.472   0.748   7.528  0.3142 -0.2833  0.1086
   88CHL1  H15A 8937   4.488   0.648   7.483 -0.1068  0.4189 -1.6583
   88CHL1  H15B 8938   4.551   0.817   7.490  0.9045 -0.7780  0.4231
   88CHL1   C16 8939   4.458   0.737   7.684 -0.2382 -0.7438  0.1105
   88CHL1  H16A 8940   4.475   0.629   7.702  0.7232 -0.7696 -0.9001
   88CHL1  H16B 8941   4.535   0.794   7.740  1.4453 -2.3700 -0.5065
   88CHL1   C17 8942   4.309   0.767   7.730  0.2062  0.0970 -0.6638
   88CHL1   H17 8943   4.299   0.877   7.741  0.3437 -0.1517  2.0561
   88CHL1   C13 8944   4.230   0.724   7.601 -0.2199  0.1250 -0.6431
   88CHL1   C18 8945   4.228   0.572   7.576  0.1058 -0.1250 -0.8723
   88CHL1  H18A 8946   4.174   0.518   7.657  1.6234 -1.2251 -0.5737
   88CHL1  H18B 8947   4.167   0.559   7.484 -0.2677 -0.7627 -0.5420
   88CHL1  H18C 8948   4.317   0.508   7.559 -1.0537 -2.3346  0.9983
   88CHL1   C12 8949   4.094   0.792   7.584  1.0028 -0.0086  0.4853
   88CHL1  H12A 8950   4.017   0.740   7.646 -1.4022  1.1738 -1.3837
   88CHL1  H12B 8951   4.097   0.895   7.625  1.6448 -0.2806  1.1262
   88CHL1   C11 8952   4.037   0.795   7.438 -0.1574 -0.4202 -0.3548
   88CHL1  H11A 8953   4.015   0.691   7.406 -0.4835  0.6625 -3.8524
   88CHL1  H11B 8954   3.944   0.855   7.432 -0.6310 -1.0126  0.9884
   88CHL1    C9 8955   4.137   0.846   7.331 -0.0160  0.4483 -0.2226
   88CHL1    H9 8956   4.155   0.954   7.352 -0.1659  0.7706 -1.6884
   88CHL1   C10 8957   4.100   0.837   7.183 -0.5446  0.1521  0.3076
   88CHL1   C19 8958   4.060   0.689   7.150 -0.0135 -0.2773  0.2513
   88CHL1  H19A 8959   3.964   0.668   7.202 -0.5906 -0.4915 -0.8820
   88CHL1  H19B 8960   4.044   0.688   7.040 -1.2302 -0.1951  0.4171
   88CHL1  H19C 8961   4.147   0.624   7.173 -0.5669  0.1412  3.9064
   88CHL1    C1 8962   3.978   0.932   7.164  0.1558 -0.0130 -0.3720
   88CHL1   H1A 8963   3.899   0.888   7.229  0.3711  0.3951  0.1617
   88CHL1   H1B 8964   4.007   1.030   7.205  0.6291 -0.0369 -0.6467
   88CHL1    C2 8965   3.937   0.939   7.015 -0.2596 -1.0358  0.0478
   88CHL1   H2A 8966   3.857   1.017   7.016  0.2668 -0.4366 -1.8082
   88CHL1   H2B 8967   3.906   0.845   6.964  1.9615 -1.2205 -1.0012
   88CHL1   C20 8968   4.267   0.700   7.870 -0.5284 -0.2942 -0.0776
   88CHL1   H20 8969   4.260   0.590   7.856  1.1250 -0.2572 -1.2898
   88CHL1   C21 8970   4.128   0.749   7.916  0.2332 -0.1832 -0.5957
   88CHL1  H21A 8971   4.133   0.859   7.934  1.3948 -0.1887 -0.8368
   88CHL1  H21B 8972   4.102   0.694   8.009  2.3398  1.6191  1.1476
   88CHL1  H21C 8973   4.061   0.725   7.831  3.0638  0.1749 -3.0345
   88CHL1   C22 8974   4.371   0.704   7.991 -1.2419 -0.5709  0.1379
   88CHL1  H22A 8975   4.471   0.683   7.950 -1.4521 -3.8899  1.2096
   88CHL1  H22B 8976   4.369   0.812   8.020  1.2191 -1.0039  2.0863
   88CHL1   C23 8977   4.342   0.628   8.115 -0.3682 -0.5481 -0.5809
   88CHL1  H23A 8978   4.241   0.653   8.153  0.0131  0.1098  0.0100
   88CHL1  H23B 8979   4.331   0.520   8.091  1.2986 -0.4950 -1.6363
   88CHL1   C24 8980   4.437   0.661   8.235 -0.5281  0.5491  0.3365
   88CHL1  H24A 8981   4.453   0.771   8.243  1.1277  0.3109  0.4549
   88CHL1  H24B 8982   4.388   0.633   8.331  0.0216 -0.5140  0.3099
   88CHL1   C25 8983   4.577   0.608   8.224 -0.6086  0.0833  0.4962
   88CHL1   H25 8984   4.630   0.661   8.143  1.7332 -1.4186  0.9733
   88CHL1   C26 8985   4.656   0.639   8.354  0.1643  0.4374  0.2487
   88CHL1  H26A 8986   4.645   0.747   8.378  2.5154  1.0611 -1.3069
   88CHL1  H26B 8987   4.608   0.586   8.439  0.0659  0.0953 -0.0156
   88CHL1  H26C 8988   4.758   0.598   8.361 -0.0606  0.2106  2.4677
   88CHL1   C27 8989   4.571   0.456   8.199 -0.5170  0.2743  0.4582
   88CHL1  H27A 8990   4.526   0.405   8.287  1.4141  0.0544  1.3449
   88CHL1  H27B 8991   4.510   0.433   8.109 -0.6189  1.6504  0.1617
   88CHL1  H27C 8992   4.664   0.396   8.192  0.1435  1.6290 -4.0700
   89CHL1    C3 8993   0.467   3.283   7.144  0.0941 -0.8501  0.4286
   89CHL1    H3 8994   0.519   3.193   7.184  0.3241 -0.6540  0.5705
   89CHL1    O3 8995   0.479   3.282   7.006  0.0475 -0.0168 -0.2424
   89CHL1   H3' 8996   0.416   3.351   6.982 -0.1173  0.3260  1.1454
   89CHL1    C4 8997   0.320   3.289   7.187 -1.0447 -0.0851 -0.9180
   89CHL1   H4A 8998   0.278   3.386   7.152 -2.3333 -0.8569 -1.5431
   89CHL1   H4B 8999   0.262   3.203   7.146 -0.7133 -1.7481  1.9552
   89CHL1    C5 9000   0.313   3.281   7.336  0.4553 -0.2687  0.1903
   89CHL1    C6 9001   0.248   3.181   7.403 -0.5187 -0.3915 -0.6265
   89CHL1    H6 9002   0.206   3.101   7.339 -0.3891 -0.5328 -0.5337
   89CHL1    C7 9003   0.220   3.177   7.551 -0.5540 -0.0792 -0.0759
   89CHL1   H7A 9004   0.115   3.156   7.582 -0.3494  1.6685  1.9294
   89CHL1   H7B 9005   0.287   3.100   7.594  1.6458  1.3328 -0.9104
   89CHL1    C8 9006   0.259   3.312   7.619 -0.0701  0.4470  0.6161
   89CHL1    H8 9007   0.178   3.382   7.591 -1.1251 -0.9161  0.2102
   89CHL1   C14 9008   0.260   3.292   7.769 -0.6664 -0.5950  0.0659
   89CHL1   H14 9009   0.344   3.219   7.778  2.2187  2.5071 -0.6158
   89CHL1   C15 9010   0.137   3.238   7.839  0.1602  0.4094 -0.7300
   89CHL1  H15A 9011   0.050   3.298   7.803  0.2613  0.5500 -0.7408
   89CHL1  H15B 9012   0.129   3.130   7.816  1.8206 -0.4743  2.5545
   89CHL1   C16 9013   0.150   3.271   7.983 -0.2338 -0.0898 -0.2074
   89CHL1  H16A 9014   0.067   3.330   8.026 -0.8893 -0.3923 -1.0476
   89CHL1  H16B 9015   0.156   3.171   8.030 -1.0197 -0.2407 -0.4234
   89CHL1   C17 9016   0.284   3.346   7.996  0.0149  0.5790  0.1301
   89CHL1   H17 9017   0.355   3.261   8.009 -0.0837  0.4869  0.0625
   89CHL1   C13 9018   0.301   3.412   7.856  0.0273  0.2841 -1.0838
   89CHL1   C18 9019   0.200   3.525   7.838 -0.0358  0.5892  0.0403
   89CHL1  H18A 9020   0.241   3.613   7.891 -0.2342  0.1836  0.8698
   89CHL1  H18B 9021   0.181   3.551   7.731 -0.7624  1.0233  0.2692
   89CHL1  H18C 9022   0.101   3.516   7.888  0.2051 -2.1569  0.0824
   89CHL1   C12 9023   0.443   3.450   7.809 -0.3001 -0.4271  0.7385
   89CHL1  H12A 9024   0.486   3.537   7.863  0.9083 -1.5342  1.5908
   89CHL1  H12B 9025   0.503   3.358   7.828 -0.9914 -1.2726 -1.0784
   89CHL1   C11 9026   0.445   3.482   7.656  0.1968  0.6199  0.9570
   89CHL1  H11A 9027   0.386   3.574   7.637  0.1051  0.0418 -1.7601
   89CHL1  H11B 9028   0.550   3.506   7.630  0.3216 -2.0817 -1.3235
   89CHL1    C9 9029   0.392   3.365   7.562 -0.1810 -0.3718 -0.0509
   89CHL1    H9 9030   0.463   3.280   7.574  1.0802  0.6452 -0.2949
   89CHL1   C10 9031   0.385   3.389   7.412 -0.6275  0.1199 -0.3799
   89CHL1   C19 9032   0.320   3.526   7.392 -0.4730 -0.0074 -0.0734
   89CHL1  H19A 9033   0.387   3.611   7.416 -0.5938 -0.3506  1.5268
   89CHL1  H19B 9034   0.292   3.535   7.285  0.0700 -0.9725 -0.3082
   89CHL1  H19C 9035   0.230   3.532   7.456 -0.7518 -1.1246 -0.3478
   89CHL1    C1 9036   0.533   3.393   7.357  0.6173  0.8056 -0.0648
   89CHL1   H1A 9037   0.594   3.466   7.414  0.8099 -0.0559  0.8490
   89CHL1   H1B 9038   0.570   3.292   7.384 -1.0662  0.5279  1.2494
   89CHL1    C2 9039   0.543   3.402   7.206  0.7987 -0.4049  0.4354
   89CHL1   H2A 9040   0.646   3.417   7.166 -0.1751  0.5203 -1.8132
   89CHL1   H2B 9041   0.489   3.494   7.176  1.9898 -0.1958 -1.1099
   89CHL1   C20 9042   0.304   3.424   8.124 -0.6030 -0.1763 -0.5627
   89CHL1   H20 9043   0.224   3.500   8.122  1.9125  2.5685 -0.1073
   89CHL1   C21 9044   0.435   3.499   8.130  0.2488  0.4332  0.4427
   89CHL1  H21A 9045   0.518   3.438   8.088  1.8452  3.6363 -1.1897
   89CHL1  H21B 9046   0.464   3.538   8.230 -0.8967 -0.4566  1.1243
   89CHL1  H21C 9047   0.434   3.585   8.060  2.5018 -0.4479 -0.7527
   89CHL1   C22 9048   0.283   3.351   8.262 -0.0203  0.8670 -0.6009
   89CHL1  H22A 9049   0.208   3.271   8.246  1.4795 -0.7946  0.4881
   89CHL1  H22B 9050   0.381   3.309   8.293 -0.5708  0.5538  0.7348
   89CHL1   C23 9051   0.231   3.453   8.366  0.7232 -0.1471  0.0036
   89CHL1  H23A 9052   0.292   3.546   8.355  0.1805  0.1596 -0.5045
   89CHL1  H23B 9053   0.126   3.488   8.353  1.1358  1.0630 -0.1535
   89CHL1   C24 9054   0.239   3.401   8.512  0.5247  0.3484  0.3460
   89CHL1  H24A 9055   0.185   3.304   8.501  1.6047 -0.1656 -0.6527
   89CHL1  H24B 9056   0.344   3.368   8.530 -0.4990 -2.1875  2.0652
   89CHL1   C25 9057   0.199   3.494   8.629  0.4062  0.5403  0.2068
   89CHL1   H25 9058   0.089   3.508   8.621  0.4611  0.9668  0.2233
   89CHL1   C26 9059   0.222   3.414   8.763 -0.4906 -0.1736 -0.3729
   89CHL1  H26A 9060   0.181   3.474   8.847  0.1786 -0.0263 -0.1498
   89CHL1  H26B 9061   0.183   3.310   8.761 -1.1812  0.0046  2.1805
   89CHL1  H26C 9062   0.333   3.411   8.777 -0.0024  1.5795 -3.4837
   89CHL1   C27 9063   0.269   3.627   8.636 -0.1770  0.1744  0.0330
   89CHL1  H27A 9064   0.376   3.599   8.626 -0.5099 -0.8197 -0.8381
   89CHL1  H27B 9065   0.237   3.704   8.562 -1.1024 -2.0431 -1.9699
   89CHL1  H27C 9066   0.248   3.666   8.738 -0.5902 -1.6252  0.6635
   90CHL1    C3 9067   6.747   5.341   6.997  0.3160  0.5290  0.0595
   90CHL1    H3 9068   6.665   5.271   7.024  0.5052  1.0253  1.9789
   90CHL1    O3 9069   6.793   5.331   6.863  0.4900  0.3008  0.6204
   90CHL1   H3' 9070   6.868   5.390   6.863  1.2470 -0.6452  0.8837
   90CHL1    C4 9071   6.692   5.478   7.039 -0.3704 -0.6416  0.7870
   90CHL1   H4A 9072   6.756   5.555   6.991  0.4934 -1.6952  0.2433
   90CHL1   H4B 9073   6.612   5.486   6.963  0.1209  0.5269  0.3822
   90CHL1    C5 9074   6.653   5.493   7.186 -0.3151  0.3991  0.1886
   90CHL1    C6 9075   6.528   5.522   7.231  0.2230 -0.3118 -0.3795
   90CHL1    H6 9076   6.453   5.542   7.154 -2.0807 -0.5041  1.7443
   90CHL1    C7 9077   6.489   5.547   7.375  0.5439 -0.0124  0.3112
   90CHL1   H7A 9078   6.444   5.646   7.397  2.6131  1.3425 -1.4298
   90CHL1   H7B 9079   6.429   5.460   7.410 -0.7398 -0.1492 -2.1692
   90CHL1    C8 9080   6.615   5.551   7.465  0.3732 -0.2895 -0.0292
   90CHL1    H8 9081   6.663   5.650   7.453  0.5046  0.0843  3.1576
   90CHL1   C14 9082   6.573   5.544   7.613  0.1912  0.1262  0.0228
   90CHL1   H14 9083   6.537   5.439   7.625  1.1516 -0.1807  0.3022
   90CHL1   C15 9084   6.453   5.639   7.659  0.4086  0.2808  0.0550
   90CHL1  H15A 9085   6.459   5.745   7.628 -0.5888  0.1663 -0.5113
   90CHL1  H15B 9086   6.368   5.572   7.636  1.0918 -0.4200 -0.4704
   90CHL1   C16 9087   6.476   5.628   7.814 -0.3187  0.1859  0.3327
   90CHL1  H16A 9088   6.505   5.731   7.842 -2.3247  0.9305 -0.2206
   90CHL1  H16B 9089   6.391   5.603   7.882  0.1594  0.4055  1.0109
   90CHL1   C17 9090   6.605   5.540   7.847 -0.1050 -0.1894  0.0018
   90CHL1   H17 9091   6.570   5.435   7.845 -0.4883 -0.0493 -0.8492
   90CHL1   C13 9092   6.689   5.549   7.715  0.2912 -0.3486  0.1225
   90CHL1   C18 9093   6.768   5.682   7.700 -0.3752 -0.0700  0.7815
   90CHL1  H18A 9094   6.809   5.711   7.601  2.3077 -0.1814  1.8194
   90CHL1  H18B 9095   6.708   5.771   7.732 -0.4993  0.0664  0.1840
   90CHL1  H18C 9096   6.858   5.676   7.764 -0.4089  0.3368  0.8692
   90CHL1   C12 9097   6.780   5.423   7.678  0.2390 -0.1378  0.4915
   90CHL1  H12A 9098   6.877   5.420   7.734  1.2974  0.8841 -1.2457
   90CHL1  H12B 9099   6.723   5.329   7.695 -0.4001  0.4683  1.7816
   90CHL1   C11 9100   6.828   5.425   7.534 -0.2594 -0.3135 -0.0452
   90CHL1  H11A 9101   6.898   5.510   7.518  2.3601 -2.2668  0.6694
   90CHL1  H11B 9102   6.883   5.329   7.523 -0.2570 -0.2233 -0.8473
   90CHL1    C9 9103   6.717   5.439   7.426 -0.2386  0.5091  0.5100
   90CHL1    H9 9104   6.657   5.346   7.434  3.0303 -1.7484 -0.4688
   90CHL1   C10 9105   6.767   5.456   7.281 -0.4259  0.4080  0.6092
   90CHL1   C19 9106   6.858   5.576   7.272  0.2338  0.6743 -0.6492
   90CHL1  H19A 9107   6.799   5.667   7.295  1.5025  1.1351  0.9212
   90CHL1  H19B 9108   6.941   5.568   7.345  0.1267  3.6504 -0.1123
   90CHL1  H19C 9109   6.912   5.583   7.175  0.5607 -1.6080 -0.6598
   90CHL1    C1 9110   6.827   5.319   7.236 -0.3750 -0.0151 -0.1640
   90CHL1   H1A 9111   6.908   5.291   7.306  0.1904  3.0154  0.4574
   90CHL1   H1B 9112   6.746   5.243   7.247  0.4631 -0.8649  0.1991
   90CHL1    C2 9113   6.867   5.302   7.090  0.4435  0.2031  0.1153
   90CHL1   H2A 9114   6.896   5.195   7.075 -0.1105  0.0728 -0.0354
   90CHL1   H2B 9115   6.944   5.371   7.051  0.8060  0.0877  0.6199
   90CHL1   C20 9116   6.676   5.562   7.976  0.7359 -0.5257 -0.2602
   90CHL1   H20 9117   6.753   5.640   7.960 -0.1952  0.7759  1.4192
   90CHL1   C21 9118   6.752   5.441   8.025  0.2053  0.1223  0.1005
   90CHL1  H21A 9119   6.697   5.351   8.061  0.1512  0.9132  2.0621
   90CHL1  H21B 9120   6.817   5.471   8.110 -0.9235 -1.3750  1.5157
   90CHL1  H21C 9121   6.829   5.408   7.952  0.6989 -0.9064  1.0778
   90CHL1   C22 9122   6.581   5.611   8.089 -0.6573 -0.0111 -0.1417
   90CHL1  H22A 9123   6.645   5.641   8.175 -0.0953  1.9657 -1.2366
   90CHL1  H22B 9124   6.523   5.702   8.066 -0.6048  0.0570 -0.0016
   90CHL1   C23 9125   6.477   5.516   8.130 -0.0955 -0.4237  0.5764
   90CHL1  H23A 9126   6.414   5.503   8.039 -0.8436 -0.6297  1.1096
   90CHL1  H23B 9127   6.522   5.420   8.162  3.6809  0.6588 -1.2653
   90CHL1   C24 9128   6.391   5.574   8.240  0.6850  0.4215 -0.2016
   90CHL1  H24A 9129   6.462   5.620   8.312  0.4115  0.7858 -0.1586
   90CHL1  H24B 9130   6.327   5.658   8.202 -2.3020 -2.3220 -1.4745
   90CHL1   C25 9131   6.288   5.475   8.308  0.8356  0.8436  0.1346
   90CHL1   H25 9132   6.345   5.391   8.354 -0.5248 -0.8614 -1.2172
   90CHL1   C26 9133   6.206   5.554   8.415 -0.3255 -0.1654  0.0118
   90CHL1  H26A 9134   6.162   5.645   8.371  0.7985 -0.2403 -1.2913
   90CHL1  H26B 9135   6.138   5.491   8.476 -0.2518 -1.2475 -1.0137
   90CHL1  H26C 9136   6.280   5.602   8.483 -0.5043  2.3326 -1.5195
   90CHL1   C27 9137   6.199   5.403   8.216 -0.1954 -0.0482  0.3471
   90CHL1  H27A 9138   6.147   5.317   8.264  2.1875 -1.3272  0.6903
   90CHL1  H27B 9139   6.127   5.463   8.156 -0.4920 -1.2166 -0.4823
   90CHL1  H27C 9140   6.249   5.346   8.134 -1.2547  0.7862 -0.9145
   91CHL1    C3 9141   1.891   6.419   7.165  0.1470 -0.4174 -0.6350
   91CHL1    H3 9142   1.975   6.484   7.197 -0.5940 -0.2170  0.9578
   91CHL1    O3 9143   1.903   6.388   7.028 -0.1578 -1.0400  0.7475
   91CHL1   H3' 9144   1.815   6.383   6.990  0.9692  0.0405 -2.1301
   91CHL1    C4 9145   1.910   6.286   7.242 -0.2190  0.1092  0.4428
   91CHL1   H4A 9146   1.829   6.222   7.200 -0.4852  0.7901 -0.1037
   91CHL1   H4B 9147   2.002   6.233   7.211 -0.4903 -0.9201  1.3540
   91CHL1    C5 9148   1.881   6.293   7.390 -0.1268 -0.2432  0.2910
   91CHL1    C6 9149   1.982   6.263   7.470 -0.5106 -0.4584 -0.4943
   91CHL1    H6 9150   2.076   6.218   7.433  0.1882 -0.4974  1.2685
   91CHL1    C7 9151   1.970   6.279   7.623 -0.1619 -0.5063  0.3119
   91CHL1   H7A 9152   2.030   6.205   7.680  0.2822 -1.2096 -1.0500
   91CHL1   H7B 9153   2.010   6.379   7.648  0.2742 -0.2336 -1.4360
   91CHL1    C8 9154   1.820   6.293   7.669  0.1497 -1.1660 -0.2240
   91CHL1    H8 9155   1.767   6.196   7.661  0.3944 -1.3021 -0.2134
   91CHL1   C14 9156   1.812   6.337   7.812 -0.0590 -0.0505  0.1241
   91CHL1   H14 9157   1.863   6.435   7.808  2.9113 -1.5910 -1.2249
   91CHL1   C15 9158   1.903   6.271   7.922  0.1380 -0.1813 -0.1614
   91CHL1  H15A 9159   1.899   6.163   7.896  0.7530  0.0967 -1.4443
   91CHL1  H15B 9160   2.009   6.300   7.930  0.1241 -0.2909  0.4742
   91CHL1   C16 9161   1.842   6.304   8.053 -0.2829 -0.0198  0.1705
   91CHL1  H16A 9162   1.813   6.214   8.110  0.6031  0.5498  1.5513
   91CHL1  H16B 9163   1.903   6.364   8.124  0.0765  1.0433 -1.0099
   91CHL1   C17 9164   1.716   6.384   8.013 -0.0480 -1.3061 -0.2986
   91CHL1   H17 9165   1.752   6.488   8.008 -1.6870 -0.6924  0.2447
   91CHL1   C13 9166   1.681   6.351   7.868 -0.1951  0.0154 -0.5255
   91CHL1   C18 9167   1.604   6.209   7.881 -0.0062 -0.4761  0.6386
   91CHL1  H18A 9168   1.582   6.165   7.782  0.2844  0.8873 -0.0360
   91CHL1  H18B 9169   1.662   6.140   7.946  0.5769 -1.0333 -0.4743
   91CHL1  H18C 9170   1.505   6.222   7.929  1.1903 -1.0577  3.3730
   91CHL1   C12 9171   1.601   6.455   7.793 -0.2365 -0.2754  0.7151
   91CHL1  H12A 9172   1.495   6.461   7.827 -1.4726 -3.4501 -2.2906
   91CHL1  H12B 9173   1.649   6.554   7.808 -0.9483  0.4211 -1.3581
   91CHL1   C11 9174   1.605   6.430   7.637 -0.2705  0.9657  0.0620
   91CHL1  H11A 9175   1.535   6.348   7.611  1.1221  0.2642 -1.5327
   91CHL1  H11B 9176   1.558   6.521   7.595 -0.5707  1.7309  1.9734
   91CHL1    C9 9177   1.742   6.396   7.576 -0.6422  0.7139 -0.1149
   91CHL1    H9 9178   1.799   6.491   7.578 -1.5069  1.2419 -0.0552
   91CHL1   C10 9179   1.745   6.364   7.423 -0.1362  0.1020  0.7334
   91CHL1   C19 9180   1.641   6.256   7.393  0.0622 -0.5608  0.0735
   91CHL1  H19A 9181   1.658   6.169   7.460  1.5230  0.1180  0.5893
   91CHL1  H19B 9182   1.538   6.294   7.407  0.9004  1.4362  0.9971
   91CHL1  H19C 9183   1.641   6.217   7.289 -2.2276 -1.2843  0.3109
   91CHL1    C1 9184   1.708   6.497   7.342 -0.4203  0.4091  0.4564
   91CHL1   H1A 9185   1.599   6.518   7.352 -0.5166 -0.1485  0.5804
   91CHL1   H1B 9186   1.768   6.585   7.377  2.1631 -1.2835  0.4308
   91CHL1    C2 9187   1.750   6.484   7.192  0.5928  0.4301  0.5139
   91CHL1   H2A 9188   1.734   6.582   7.141  0.0701  0.5522  0.9109
   91CHL1   H2B 9189   1.679   6.409   7.151 -0.2779  1.4274  0.1556
   91CHL1   C20 9190   1.597   6.402   8.117 -0.0739  0.0337 -0.3996
   91CHL1   H20 9191   1.507   6.438   8.062  0.0388 -0.7117 -1.0785
   91CHL1   C21 9192   1.644   6.522   8.206  0.4344 -0.3693 -0.0473
   91CHL1  H21A 9193   1.667   6.615   8.151  0.7105 -0.0695  0.5725
   91CHL1  H21B 9194   1.728   6.486   8.269  1.5342  0.2902 -1.1207
   91CHL1  H21C 9195   1.557   6.539   8.273  0.8037 -1.1342  0.6259
   91CHL1   C22 9196   1.565   6.288   8.215 -0.0866  0.6489  0.6747
   91CHL1  H22A 9197   1.573   6.190   8.164 -2.4389  0.0085  1.4976
   91CHL1  H22B 9198   1.641   6.283   8.296  0.1170 -1.1996  0.3920
   91CHL1   C23 9199   1.419   6.300   8.289 -0.0925  0.5065  0.3158
   91CHL1  H23A 9200   1.415   6.225   8.371  1.7575 -0.3048 -0.3010
   91CHL1  H23B 9201   1.413   6.403   8.329 -2.0476 -0.1077  1.6595
   91CHL1   C24 9202   1.298   6.280   8.198 -0.1058  0.0996  0.7654
   91CHL1  H24A 9203   1.303   6.346   8.109 -1.1297 -3.6575 -2.2363
   91CHL1  H24B 9204   1.282   6.180   8.152 -0.8174  0.2132  0.7609
   91CHL1   C25 9205   1.158   6.295   8.268 -0.2236  0.0483  0.0783
   91CHL1   H25 9206   1.154   6.399   8.308  2.4039 -0.1261  0.8906
   91CHL1   C26 9207   1.046   6.286   8.166 -0.1356  0.2744 -0.6451
   91CHL1  H26A 9208   1.085   6.330   8.072  2.4754 -1.9105 -0.6315
   91CHL1  H26B 9209   1.028   6.178   8.148  1.2457  0.6844 -5.1060
   91CHL1  H26C 9210   0.959   6.338   8.211  0.4768 -0.1733  1.0873
   91CHL1   C27 9211   1.133   6.201   8.391  0.7745  0.1723 -0.4324
   91CHL1  H27A 9212   1.139   6.099   8.348  0.3574  0.8075 -2.0643
   91CHL1  H27B 9213   1.209   6.225   8.469 -0.2730  1.7191  0.1469
   91CHL1  H27C 9214   1.032   6.213   8.436  1.2759  1.0635  0.4753
   92CHL1    C3 9215   4.646   1.921   6.684  0.4146  0.0767  0.0585
   92CHL1    H3 9216   4.597   2.019   6.706  0.7531  0.1439  0.5231
   92CHL1    O3 9217   4.693   1.914   6.548 -0.3476  0.4410 -0.4125
   92CHL1   H3' 9218   4.617   1.932   6.492 -0.4588 -2.2437 -1.1976
   92CHL1    C4 9219   4.760   1.894   6.775  0.1220 -0.1073  0.2680
   92CHL1   H4A 9220   4.793   1.791   6.753 -4.1990 -1.7619  1.0837
   92CHL1   H4B 9221   4.842   1.963   6.744  0.5544 -0.7510 -0.0307
   92CHL1    C5 9222   4.700   1.914   6.911 -0.2835 -0.1293  0.1747
   92CHL1    C6 9223   4.745   2.014   6.992  0.4114 -0.1608 -0.6186
   92CHL1    H6 9224   4.832   2.079   6.976 -0.8234  2.1292  1.6183
   92CHL1    C7 9225   4.684   2.038   7.129 -0.2216 -0.6284 -0.3503
   92CHL1   H7A 9226   4.766   2.069   7.198 -0.7336 -0.0429  0.0083
   92CHL1   H7B 9227   4.604   2.115   7.127 -0.0962 -0.5218 -1.3053
   92CHL1    C8 9228   4.620   1.909   7.190  0.1830  0.1269  0.0714
   92CHL1    H8 9229   4.705   1.842   7.215  1.8095  1.2065 -2.3328
   92CHL1   C14 9230   4.546   1.938   7.321 -0.1800  0.5194 -0.5237
   92CHL1   H14 9231   4.478   2.024   7.303 -1.2613 -0.5096 -1.4590
   92CHL1   C15 9232   4.620   1.994   7.449  0.3548  0.2839  0.9982
   92CHL1  H15A 9233   4.715   1.936   7.456  0.4340  0.0616 -1.4012
   92CHL1  H15B 9234   4.646   2.102   7.448 -1.4345  0.7289 -1.6300
   92CHL1   C16 9235   4.527   1.960   7.567 -0.2088 -0.1467 -0.8759
   92CHL1  H16A 9236   4.584   1.926   7.656 -1.6364 -0.1926  0.0225
   92CHL1  H16B 9237   4.495   2.059   7.606 -0.2969 -0.1873 -0.8480
   92CHL1   C17 9238   4.409   1.869   7.511 -0.4937 -0.4201  0.0999
   92CHL1   H17 9239   4.320   1.934   7.499  0.2950  0.9219  1.4674
   92CHL1   C13 9240   4.465   1.818   7.377 -0.1939 -0.0780  0.1264
   92CHL1   C18 9241   4.565   1.705   7.415 -0.8464  0.7610  0.6312
   92CHL1  H18A 9242   4.631   1.723   7.502  2.5942 -0.0552 -1.7042
   92CHL1  H18B 9243   4.508   1.610   7.418  1.1824 -0.5336 -0.5315
   92CHL1  H18C 9244   4.634   1.679   7.332 -0.3362  0.7181  1.0631
   92CHL1   C12 9245   4.353   1.777   7.278 -0.1504 -0.5443  0.0080
   92CHL1  H12A 9246   4.295   1.686   7.306  0.2279 -1.3539 -1.7411
   92CHL1  H12B 9247   4.285   1.861   7.255 -0.0088 -0.5412 -0.4100
   92CHL1   C11 9248   4.421   1.744   7.146 -0.2552  0.5396  0.6293
   92CHL1  H11A 9249   4.487   1.656   7.162  1.1046  1.7565  1.8556
   92CHL1  H11B 9250   4.349   1.713   7.068  1.0185 -1.8651  0.3695
   92CHL1    C9 9251   4.523   1.851   7.083 -0.2751  0.1169  0.3230
   92CHL1    H9 9252   4.452   1.935   7.068 -2.5237 -1.8932 -0.4837
   92CHL1   C10 9253   4.586   1.812   6.946 -0.3537  0.7301  0.5974
   92CHL1   C19 9254   4.655   1.674   6.970  0.6183 -0.2591  0.1611
   92CHL1  H19A 9255   4.718   1.642   6.884 -2.3203  1.1232 -2.6114
   92CHL1  H19B 9256   4.732   1.673   7.050  2.4912 -3.1072 -1.5513
   92CHL1  H19C 9257   4.596   1.581   6.989  1.0689 -0.6426 -0.2930
   92CHL1    C1 9258   4.481   1.785   6.834 -0.2791 -0.3116 -0.5096
   92CHL1   H1A 9259   4.441   1.682   6.840  0.3523 -0.7752 -3.5259
   92CHL1   H1B 9260   4.396   1.855   6.851 -0.2192 -0.4276  0.3052
   92CHL1    C2 9261   4.541   1.806   6.694  0.2405 -0.7465  0.2492
   92CHL1   H2A 9262   4.460   1.837   6.624 -0.1683 -3.2670 -0.4293
   92CHL1   H2B 9263   4.590   1.713   6.658  0.8673 -0.3504  0.0748
   92CHL1   C20 9264   4.360   1.766   7.620  0.0763  0.3183 -0.2580
   92CHL1   H20 9265   4.436   1.685   7.620  0.5544  0.7550 -1.0935
   92CHL1   C21 9266   4.219   1.733   7.581 -0.3461 -0.1241  0.3852
   92CHL1  H21A 9267   4.147   1.816   7.566  2.2524  2.0361 -0.8105
   92CHL1  H21B 9268   4.164   1.671   7.654 -0.8997  0.2626  0.2971
   92CHL1  H21C 9269   4.223   1.666   7.492  1.6258 -0.8514  0.9925
   92CHL1   C22 9270   4.363   1.812   7.766 -0.3222  0.0633  0.1804
   92CHL1  H22A 9271   4.468   1.831   7.796 -0.9057  2.5230  0.8077
   92CHL1  H22B 9272   4.302   1.904   7.783  0.5089  0.4665  1.0191
   92CHL1   C23 9273   4.314   1.697   7.859  0.8802  0.0564  0.1637
   92CHL1  H23A 9274   4.203   1.703   7.869  0.9755  4.5581 -0.2534
   92CHL1  H23B 9275   4.345   1.598   7.820  1.2831  1.0212 -2.0829
   92CHL1   C24 9276   4.378   1.716   7.991 -0.1833  0.1213 -0.0428
   92CHL1  H24A 9277   4.487   1.698   7.980  0.0325  2.0667 -1.4998
   92CHL1  H24B 9278   4.375   1.818   8.035  1.0098 -1.0974  2.9475
   92CHL1   C25 9279   4.334   1.610   8.094 -0.1478 -0.0833 -0.2123
   92CHL1   H25 9280   4.225   1.613   8.111 -0.0295  2.0668  0.2224
   92CHL1   C26 9281   4.358   1.469   8.053  0.2914 -0.7687  0.5365
   92CHL1  H26A 9282   4.313   1.404   8.132  1.1817 -0.5587  1.2245
   92CHL1  H26B 9283   4.310   1.455   7.954  0.0055 -1.0140  0.7075
   92CHL1  H26C 9284   4.464   1.447   8.030  0.7736  1.5742  0.4176
   92CHL1   C27 9285   4.402   1.632   8.233  0.0067 -0.4361 -0.0634
   92CHL1  H27A 9286   4.509   1.607   8.217  0.5912  1.6478  0.4883
   92CHL1  H27B 9287   4.400   1.738   8.264  0.0268 -1.0621  2.2238
   92CHL1  H27C 9288   4.356   1.572   8.315  1.8634 -0.1897  1.1785
   93CHL1    C3 9289   3.480   6.304   6.882 -0.2981  1.0320 -0.6922
   93CHL1    H3 9290   3.576   6.251   6.903  0.3661  2.2563 -0.6112
   93CHL1    O3 9291   3.500   6.332   6.744 -0.6607 -0.3995  0.5983
   93CHL1   H3' 9292   3.507   6.426   6.727 -1.6794 -0.2544  0.9527
   93CHL1    C4 9293   3.362   6.202   6.902  0.2565 -0.0903 -0.5281
   93CHL1   H4A 9294   3.269   6.243   6.857  1.1037  0.9277 -1.3707
   93CHL1   H4B 9295   3.379   6.113   6.837  1.3294 -1.2679  1.3236
   93CHL1    C5 9296   3.334   6.161   7.042 -0.1940  0.3443 -0.1601
   93CHL1    C6 9297   3.343   6.032   7.083  0.6528 -0.3973  0.5210
   93CHL1    H6 9298   3.350   5.950   7.010  0.4093  0.0684 -0.0252
   93CHL1    C7 9299   3.330   5.978   7.229  0.1607 -0.3092  0.3229
   93CHL1   H7A 9300   3.260   5.892   7.214  0.0360 -0.2939  0.8148
   93CHL1   H7B 9301   3.428   5.954   7.274  1.0719  1.6456 -0.5724
   93CHL1    C8 9302   3.276   6.082   7.324 -0.0864  0.2346 -0.1927
   93CHL1    H8 9303   3.167   6.098   7.315 -0.3864  0.0186  2.4361
   93CHL1   C14 9304   3.296   6.044   7.469  0.1284  0.4456 -0.1565
   93CHL1   H14 9305   3.407   6.037   7.473  0.0745 -1.1451 -0.9565
   93CHL1   C15 9306   3.256   5.901   7.516 -0.1716  0.2071  0.0700
   93CHL1  H15A 9307   3.147   5.891   7.495 -0.1487 -0.1602  0.1183
   93CHL1  H15B 9308   3.316   5.821   7.468 -0.5104 -0.4167  0.6748
   93CHL1   C16 9309   3.277   5.903   7.668  0.1262 -0.5517 -0.1224
   93CHL1  H16A 9310   3.190   5.863   7.723  0.0123 -1.7218 -1.1525
   93CHL1  H16B 9311   3.366   5.855   7.714  0.1428 -1.4095 -1.0347
   93CHL1   C17 9312   3.292   6.055   7.711  0.1919  0.2800  0.1169
   93CHL1   H17 9313   3.402   6.071   7.716  0.4295 -1.4497  1.1234
   93CHL1   C13 9314   3.246   6.133   7.581 -0.5339 -0.0635  0.3860
   93CHL1   C18 9315   3.094   6.136   7.587  0.9016 -0.0077  0.5699
   93CHL1  H18A 9316   3.047   6.035   7.588 -0.0904  0.3307 -2.9528
   93CHL1  H18B 9317   3.049   6.191   7.672 -0.0200 -0.0423  0.1102
   93CHL1  H18C 9318   3.054   6.185   7.495 -0.2651 -1.3094  0.3693
   93CHL1   C12 9319   3.319   6.263   7.557 -0.3757 -0.1503  0.5976
   93CHL1  H12A 9320   3.283   6.332   7.636 -1.0628 -0.1098  0.2558
   93CHL1  H12B 9321   3.427   6.237   7.566 -1.3315 -4.6993 -0.1690
   93CHL1   C11 9322   3.298   6.323   7.415  0.6921  0.0648  0.0826
   93CHL1  H11A 9323   3.196   6.368   7.412  1.1380  1.1732  1.1255
   93CHL1  H11B 9324   3.364   6.411   7.399  0.7062 -0.2093 -1.4801
   93CHL1    C9 9325   3.329   6.226   7.298  0.1445  0.3188 -0.3283
   93CHL1    H9 9326   3.438   6.211   7.313 -0.1083  1.2086  2.7152
   93CHL1   C10 9327   3.314   6.275   7.149 -0.8479  0.2409  1.3091
   93CHL1   C19 9328   3.177   6.336   7.128  0.2526  0.1980  0.7173
   93CHL1  H19A 9329   3.175   6.373   7.024 -2.2339  2.8046  1.6296
   93CHL1  H19B 9330   3.093   6.264   7.141 -0.3033  0.1759 -2.6679
   93CHL1  H19C 9331   3.162   6.416   7.203 -1.0091 -0.8672  1.6471
   93CHL1    C1 9332   3.428   6.385   7.123 -0.4648  0.2880  0.3067
   93CHL1   H1A 9333   3.408   6.476   7.183  2.8107  0.5555  1.1158
   93CHL1   H1B 9334   3.524   6.346   7.162 -1.2430  0.1398  2.0827
   93CHL1    C2 9335   3.468   6.426   6.980  0.7843  0.0169  0.2536
   93CHL1   H2A 9336   3.556   6.494   6.975  1.2393 -0.5021  1.1673
   93CHL1   H2B 9337   3.380   6.487   6.952  2.2596  2.1671  0.2066
   93CHL1   C20 9338   3.241   6.085   7.860  0.0395 -0.3391 -0.0051
   93CHL1   H20 9339   3.131   6.094   7.848  0.1311 -0.0259 -0.5864
   93CHL1   C21 9340   3.297   6.216   7.914  0.3989  0.0020  0.5966
   93CHL1  H21A 9341   3.269   6.229   8.020  1.5558 -0.0294  0.9197
   93CHL1  H21B 9342   3.265   6.302   7.853 -1.3869 -0.9689  0.1442
   93CHL1  H21C 9343   3.407   6.216   7.893  0.2101  1.4235 -0.4477
   93CHL1   C22 9344   3.265   5.963   7.958 -0.0598 -0.5107  1.0230
   93CHL1  H22A 9345   3.199   5.878   7.931 -1.5257  0.6994  0.7818
   93CHL1  H22B 9346   3.366   5.928   7.928  0.6140  0.7091  1.8246
   93CHL1   C23 9347   3.259   6.011   8.106  0.0533 -0.5490  0.8406
   93CHL1  H23A 9348   3.346   6.075   8.132  0.1236  0.0851 -0.9426
   93CHL1  H23B 9349   3.166   6.070   8.115 -0.2845 -1.3066  2.6851
   93CHL1   C24 9350   3.260   5.901   8.214  0.1605 -0.0224 -0.7274
   93CHL1  H24A 9351   3.168   5.839   8.203 -0.7841  1.7940 -3.4444
   93CHL1  H24B 9352   3.346   5.832   8.206  0.1632 -0.2024  0.7609
   93CHL1   C25 9353   3.272   5.962   8.356 -0.4920 -0.2100  0.6057
   93CHL1   H25 9354   3.259   5.871   8.420 -0.8841  0.5174  1.5709
   93CHL1   C26 9355   3.416   6.008   8.382 -0.6730 -0.3079 -0.1540
   93CHL1  H26A 9356   3.444   6.010   8.489 -2.5427 -0.1840  0.3454
   93CHL1  H26B 9357   3.490   5.937   8.339  1.1072 -0.3932  2.8925
   93CHL1  H26C 9358   3.435   6.112   8.346 -0.2460 -0.4832 -0.4358
   93CHL1   C27 9359   3.175   6.063   8.400 -0.3727  0.6777 -0.1288
   93CHL1  H27A 9360   3.076   6.024   8.372 -0.7794 -0.0477  2.2293
   93CHL1  H27B 9361   3.179   6.088   8.508  2.4760  0.8629 -0.2355
   93CHL1  H27C 9362   3.200   6.158   8.347  3.4326 -0.5099 -0.6546
   94CHL1    C3 9363   5.588   2.673   6.925  0.4458  0.1641 -0.6796
   94CHL1    H3 9364   5.683   2.718   6.962 -0.7460  1.8637  0.3832
   94CHL1    O3 9365   5.601   2.657   6.784 -0.2012  0.1061 -0.5267
   94CHL1   H3' 9366   5.546   2.724   6.742  2.6152  1.3066 -2.4366
   94CHL1    C4 9367   5.543   2.533   6.979 -0.3352 -0.3519  0.1993
   94CHL1   H4A 9368   5.452   2.501   6.923 -0.2246 -0.6461  0.1876
   94CHL1   H4B 9369   5.615   2.451   6.961 -2.2882 -1.8674 -0.9553
   94CHL1    C5 9370   5.512   2.537   7.132  1.2361 -0.3143  0.0264
   94CHL1    C6 9371   5.563   2.440   7.212 -0.3746 -0.0419 -0.1550
   94CHL1    H6 9372   5.631   2.363   7.171 -1.1809 -0.5355 -0.5989
   94CHL1    C7 9373   5.523   2.440   7.356  0.6009 -0.9525  0.6349
   94CHL1   H7A 9374   5.510   2.338   7.398 -2.0538 -1.1179 -0.4973
   94CHL1   H7B 9375   5.607   2.485   7.413 -0.1221  3.2698 -1.3835
   94CHL1    C8 9376   5.409   2.530   7.395  0.1559  0.2502 -0.1447
   94CHL1    H8 9377   5.320   2.476   7.357  0.4731 -0.0243 -0.5004
   94CHL1   C14 9378   5.403   2.545   7.548  0.3081  0.0322 -0.1771
   94CHL1   H14 9379   5.498   2.592   7.581  0.7959 -1.7773  1.0311
   94CHL1   C15 9380   5.401   2.418   7.632 -0.0659 -0.0995  0.2510
   94CHL1  H15A 9381   5.350   2.333   7.583 -1.5861  1.4478 -0.8824
   94CHL1  H15B 9382   5.506   2.383   7.647  0.1436  0.7143  0.7229
   94CHL1   C16 9383   5.332   2.455   7.763  0.0809 -0.6510  0.8602
   94CHL1  H16A 9384   5.233   2.403   7.764 -1.4953  2.2612  1.1647
   94CHL1  H16B 9385   5.402   2.445   7.848  1.6718  1.9734 -0.1054
   94CHL1   C17 9386   5.315   2.608   7.754  1.1675 -0.6888 -0.0584
   94CHL1   H17 9387   5.413   2.653   7.778 -0.3482  2.1291  1.1457
   94CHL1   C13 9388   5.287   2.629   7.599  0.6560 -0.8373 -0.2295
   94CHL1   C18 9389   5.151   2.573   7.550  0.5533 -0.0811 -0.9340
   94CHL1  H18A 9390   5.140   2.567   7.440  0.3737 -0.7983 -0.8752
   94CHL1  H18B 9391   5.136   2.466   7.574 -2.8606  0.6235  0.4265
   94CHL1  H18C 9392   5.069   2.632   7.596  0.8530 -1.3944  1.3437
   94CHL1   C12 9393   5.312   2.768   7.538 -0.2698  0.3945  0.6048
   94CHL1  H12A 9394   5.242   2.849   7.569 -0.2033  0.1423  1.4202
   94CHL1  H12B 9395   5.414   2.801   7.568 -0.1847 -1.1412  2.0787
   94CHL1   C11 9396   5.311   2.764   7.386 -0.1278 -0.3046  0.4151
   94CHL1  H11A 9397   5.208   2.743   7.349 -1.4040  2.1260  2.4277
   94CHL1  H11B 9398   5.328   2.867   7.349 -0.8081 -0.1274  0.5971
   94CHL1    C9 9399   5.415   2.666   7.327 -0.4817  0.2588 -0.2135
   94CHL1    H9 9400   5.514   2.704   7.361 -0.1875 -1.2955  0.7226
   94CHL1   C10 9401   5.415   2.644   7.175 -0.0689 -0.1932  0.1348
   94CHL1   C19 9402   5.268   2.597   7.128  0.1570  0.5502  0.7352
   94CHL1  H19A 9403   5.236   2.505   7.182  2.0853 -1.6966 -1.8248
   94CHL1  H19B 9404   5.188   2.673   7.143 -0.6027  0.3066 -1.7976
   94CHL1  H19C 9405   5.275   2.574   7.019  2.4842  3.3787  0.2273
   94CHL1    C1 9406   5.459   2.773   7.114 -0.4004  0.4362  0.2579
   94CHL1   H1A 9407   5.370   2.836   7.135 -0.1253  1.1884 -0.8183
   94CHL1   H1B 9408   5.539   2.812   7.180 -0.2819  1.5270 -0.5306
   94CHL1    C2 9409   5.479   2.775   6.963  0.1239 -0.7565 -0.2933
   94CHL1   H2A 9410   5.512   2.876   6.929 -0.6745 -0.6624 -0.8058
   94CHL1   H2B 9411   5.382   2.749   6.917 -1.0350 -0.6355  2.0285
   94CHL1   C20 9412   5.215   2.651   7.864 -0.1028 -0.0991 -0.0018
   94CHL1   H20 9413   5.118   2.640   7.812 -0.8054 -0.5487  1.3886
   94CHL1   C21 9414   5.224   2.800   7.896  0.0927 -0.1529  0.2514
   94CHL1  H21A 9415   5.317   2.826   7.952  0.1373 -0.9177  0.5368
   94CHL1  H21B 9416   5.138   2.844   7.950 -1.1476  0.4509 -2.1551
   94CHL1  H21C 9417   5.245   2.861   7.805 -0.2597 -0.6052 -0.1324
   94CHL1   C22 9418   5.202   2.568   7.991  0.3567 -0.3091 -0.5347
   94CHL1  H22A 9419   5.243   2.465   7.976  2.5293  0.4441  0.0142
   94CHL1  H22B 9420   5.260   2.608   8.077 -0.0690  1.8811 -1.2546
   94CHL1   C23 9421   5.056   2.548   8.032 -0.1774  0.0730  0.4171
   94CHL1  H23A 9422   5.012   2.650   8.039  1.5716  1.0600 -2.1359
   94CHL1  H23B 9423   5.004   2.494   7.950 -0.4737  1.5968 -0.4215
   94CHL1   C24 9424   5.033   2.481   8.170  0.7870  0.0976  0.2449
   94CHL1  H24A 9425   5.050   2.371   8.168 -0.3940 -0.1103  1.0281
   94CHL1  H24B 9426   5.101   2.512   8.252  1.8761 -1.6112  0.0156
   94CHL1   C25 9427   4.891   2.515   8.226  0.2820 -0.0010 -0.6908
   94CHL1   H25 9428   4.857   2.601   8.163  0.1700 -1.2709 -2.3929
   94CHL1   C26 9429   4.794   2.400   8.201  0.7530 -0.2121  0.2649
   94CHL1  H26A 9430   4.694   2.446   8.217  0.8430  0.4136 -0.9031
   94CHL1  H26B 9431   4.812   2.346   8.106  3.5696  1.2113 -0.0651
   94CHL1  H26C 9432   4.815   2.330   8.284  0.6333 -0.1404  0.3563
   94CHL1   C27 9433   4.901   2.565   8.371 -0.1831  0.4414  0.2455
   94CHL1  H27A 9434   4.802   2.604   8.404 -1.3352 -0.3013 -2.2305
   94CHL1  H27B 9435   4.933   2.481   8.437 -0.4841 -0.5063 -0.7966
   94CHL1  H27C 9436   4.971   2.649   8.389 -2.3683  2.1688  0.9320
   95CHL1    C3 9437   5.231   1.787   6.707 -0.3324  0.0466  0.4308
   95CHL1    H3 9438   5.268   1.887   6.739  0.1578 -0.4650  1.5155
   95CHL1    O3 9439   5.233   1.774   6.560 -0.2716  0.2030  0.3321
   95CHL1   H3' 9440   5.324   1.785   6.531  0.6625 -1.8817  2.3679
   95CHL1    C4 9441   5.328   1.681   6.764 -0.2433  0.3085 -0.2111
   95CHL1   H4A 9442   5.303   1.576   6.737 -2.7731  0.0296  2.9152
   95CHL1   H4B 9443   5.432   1.693   6.726 -0.2472  0.8777 -0.0363
   95CHL1    C5 9444   5.305   1.662   6.913  0.0037 -0.3275  0.0694
   95CHL1    C6 9445   5.410   1.674   6.995  0.4784 -0.2613 -0.3166
   95CHL1    H6 9446   5.515   1.693   6.968  0.5325  0.4582  0.3713
   95CHL1    C7 9447   5.403   1.666   7.149 -0.1362 -0.3701  0.3775
   95CHL1   H7A 9448   5.493   1.613   7.186 -0.0620 -0.5326 -0.0421
   95CHL1   H7B 9449   5.404   1.768   7.193 -0.6525  0.3777 -1.3334
   95CHL1    C8 9450   5.269   1.601   7.203 -0.1447 -0.0301  0.2160
   95CHL1    H8 9451   5.290   1.493   7.187  1.3596  0.4740 -1.4078
   95CHL1   C14 9452   5.246   1.627   7.350 -0.4589  0.3623  0.4767
   95CHL1   H14 9453   5.234   1.736   7.368 -1.9129  0.2461  0.2963
   95CHL1   C15 9454   5.359   1.586   7.445  0.5263 -0.6196 -0.4872
   95CHL1  H15A 9455   5.420   1.499   7.410  1.3198 -0.9728  1.6964
   95CHL1  H15B 9456   5.423   1.676   7.457 -0.8591  0.3043  0.0611
   95CHL1   C16 9457   5.294   1.562   7.586 -0.3618  0.3347 -0.2490
   95CHL1  H16A 9458   5.312   1.453   7.600  1.0985  0.9094  2.6497
   95CHL1  H16B 9459   5.333   1.622   7.670  0.0957  0.8366 -0.8110
   95CHL1   C17 9460   5.142   1.582   7.557  0.6104 -0.6815 -0.2022
   95CHL1   H17 9461   5.124   1.689   7.580 -1.2936 -1.4721  2.2421
   95CHL1   C13 9462   5.122   1.563   7.407  0.3184  0.5849 -0.1571
   95CHL1   C18 9463   5.119   1.411   7.381 -0.5697  0.9117 -0.4891
   95CHL1  H18A 9464   5.020   1.372   7.414 -1.3644  2.0262 -1.5328
   95CHL1  H18B 9465   5.127   1.380   7.275 -1.8942 -0.9062 -0.0752
   95CHL1  H18C 9466   5.188   1.351   7.445 -0.5461  1.8627  0.3887
   95CHL1   C12 9467   4.998   1.631   7.335 -0.1023 -0.4340  0.5639
   95CHL1  H12A 9468   4.905   1.577   7.360 -0.7081  1.0811  1.6623
   95CHL1  H12B 9469   4.993   1.735   7.375 -0.1927 -0.5806  0.9336
   95CHL1   C11 9470   5.011   1.622   7.183 -0.4532  0.0237 -0.3503
   95CHL1  H11A 9471   4.975   1.521   7.153 -0.8160 -0.1179  0.5403
   95CHL1  H11B 9472   4.935   1.687   7.134  0.4216  1.1112 -0.2713
   95CHL1    C9 9473   5.146   1.654   7.121  0.7503  0.0940 -0.5729
   95CHL1    H9 9474   5.151   1.764   7.141  2.0806 -0.8932  5.4366
   95CHL1   C10 9475   5.162   1.640   6.966 -0.6800  0.7070  0.2763
   95CHL1   C19 9476   5.110   1.494   6.926  0.3712  0.0598 -0.2135
   95CHL1  H19A 9477   5.143   1.472   6.822 -1.0051  2.0352 -1.1005
   95CHL1  H19B 9478   5.154   1.421   6.997 -0.0016  0.6418  0.6086
   95CHL1  H19C 9479   4.999   1.484   6.930  0.3455 -0.3792 -1.6375
   95CHL1    C1 9480   5.072   1.753   6.901 -0.3868 -0.5272 -0.0757
   95CHL1   H1A 9481   4.972   1.720   6.936 -1.2366  1.2276 -0.7710
   95CHL1   H1B 9482   5.094   1.856   6.936  0.5876 -0.9748  0.6732
   95CHL1    C2 9483   5.083   1.771   6.750 -0.3643 -0.0501 -0.0489
   95CHL1   H2A 9484   5.021   1.854   6.711  0.8157 -0.4015 -2.7604
   95CHL1   H2B 9485   5.054   1.680   6.692 -1.9604 -0.1490  0.8657
   95CHL1   C20 9486   5.054   1.486   7.648 -0.3639  0.3167 -0.1460
   95CHL1   H20 9487   5.070   1.376   7.641 -0.6199  0.1345  1.7872
   95CHL1   C21 9488   4.904   1.510   7.638 -0.1029 -0.6410  0.1281
   95CHL1  H21A 9489   4.859   1.476   7.543 -0.5277 -0.5463  0.2978
   95CHL1  H21B 9490   4.897   1.618   7.614  0.4093 -0.6844 -0.2113
   95CHL1  H21C 9491   4.843   1.463   7.718  1.1111  1.0791  2.1376
   95CHL1   C22 9492   5.108   1.506   7.799  0.3890 -0.0193  0.6268
   95CHL1  H22A 9493   5.206   1.459   7.820  1.0340 -0.6242 -3.2820
   95CHL1  H22B 9494   5.116   1.614   7.824  1.6771  0.5224 -1.8727
   95CHL1   C23 9495   5.013   1.451   7.906  0.1258  0.3135 -0.0686
   95CHL1  H23A 9496   4.905   1.477   7.891 -0.1110  0.5160  1.8474
   95CHL1  H23B 9497   5.013   1.341   7.897  0.0346  0.5083 -2.9148
   95CHL1   C24 9498   5.038   1.500   8.047  0.1776  0.4368 -0.1766
   95CHL1  H24A 9499   5.037   1.611   8.045  1.5643  0.4959  1.0468
   95CHL1  H24B 9500   4.957   1.457   8.110  0.8393  0.4591  0.7016
   95CHL1   C25 9501   5.171   1.459   8.102  0.1431 -0.3342  0.7378
   95CHL1   H25 9502   5.255   1.517   8.058 -1.6302  0.4775 -1.6395
   95CHL1   C26 9503   5.169   1.489   8.250  0.4373 -0.0897 -0.7319
   95CHL1  H26A 9504   5.271   1.477   8.290  0.4014 -1.1806 -0.9446
   95CHL1  H26B 9505   5.129   1.591   8.269  1.1938 -0.0011  0.4266
   95CHL1  H26C 9506   5.106   1.417   8.307  0.3901 -0.5879 -1.4053
   95CHL1   C27 9507   5.192   1.314   8.089 -0.3323 -0.0036  0.4285
   95CHL1  H27A 9508   5.210   1.285   7.983 -1.2199  1.5252 -0.1594
   95CHL1  H27B 9509   5.269   1.270   8.157 -0.4131 -0.1792  0.4063
   95CHL1  H27C 9510   5.095   1.270   8.118 -1.3187  1.2660 -0.9103
   96CHL1    C3 9511   5.498   1.166   6.794 -0.1992  0.7246  0.0202
   96CHL1    H3 9512   5.599   1.212   6.795  0.1156  0.0728 -1.0580
   96CHL1    O3 9513   5.461   1.177   6.655  0.0910 -0.4185 -0.7680
   96CHL1   H3' 9514   5.373   1.139   6.646 -0.7050  0.2174  3.2605
   96CHL1    C4 9515   5.507   1.018   6.837 -0.7801 -0.2211  0.0338
   96CHL1   H4A 9516   5.411   0.971   6.806 -0.0242 -0.7342 -1.5585
   96CHL1   H4B 9517   5.596   0.984   6.780 -0.6398 -0.7029  0.5374
   96CHL1    C5 9518   5.531   1.000   6.993  0.6510  0.6989  0.8942
   96CHL1    C6 9519   5.628   0.928   7.037  0.3219  0.2464 -0.2038
   96CHL1    H6 9520   5.683   0.862   6.967 -1.8879 -1.0320 -0.8154
   96CHL1    C7 9521   5.661   0.918   7.180 -0.1974 -0.4406  0.4266
   96CHL1   H7A 9522   5.689   0.812   7.196 -0.8305 -0.8584 -1.1954
   96CHL1   H7B 9523   5.734   0.997   7.209 -1.3580  0.8049  0.0120
   96CHL1    C8 9524   5.546   0.962   7.273 -0.3765  0.8151 -0.4614
   96CHL1    H8 9525   5.470   0.882   7.280  2.1557 -1.5625  0.6731
   96CHL1   C14 9526   5.600   0.989   7.411  0.2934  0.4307  0.4929
   96CHL1   H14 9527   5.661   1.081   7.417 -0.3896  0.8615  0.9154
   96CHL1   C15 9528   5.681   0.868   7.479  0.2772 -0.1272 -0.0636
   96CHL1  H15A 9529   5.622   0.782   7.441  0.2229 -0.3373  0.4898
   96CHL1  H15B 9530   5.784   0.875   7.439 -0.1265  1.4353 -0.8679
   96CHL1   C16 9531   5.659   0.887   7.629  0.7549  0.4597  0.0328
   96CHL1  H16A 9532   5.599   0.799   7.662  1.4991 -0.7355 -1.6983
   96CHL1  H16B 9533   5.758   0.881   7.678  0.8589 -1.6119 -0.3755
   96CHL1   C17 9534   5.585   1.021   7.645 -0.1753  0.4944  0.3207
   96CHL1   H17 9535   5.664   1.098   7.642 -0.3946  0.7237  0.4665
   96CHL1   C13 9536   5.495   1.021   7.517  0.3439 -0.1356  1.0140
   96CHL1   C18 9537   5.379   0.914   7.527 -0.2427 -0.3920  0.1336
   96CHL1  H18A 9538   5.317   0.953   7.611 -0.1001  0.2122 -0.0391
   96CHL1  H18B 9539   5.322   0.907   7.432 -1.8257  0.0879  1.0184
   96CHL1  H18C 9540   5.424   0.820   7.565 -2.1446 -1.7686 -0.9300
   96CHL1   C12 9541   5.429   1.157   7.471 -0.2185  0.1316 -0.4416
   96CHL1  H12A 9542   5.338   1.176   7.532  0.3963  1.4190  0.0930
   96CHL1  H12B 9543   5.502   1.241   7.476  1.9292 -1.8242  3.4483
   96CHL1   C11 9544   5.385   1.155   7.326 -0.1010 -0.9307 -0.5376
   96CHL1  H11A 9545   5.296   1.089   7.317 -0.3868 -0.6647  0.3251
   96CHL1  H11B 9546   5.347   1.257   7.304  1.2452 -0.1513  0.6833
   96CHL1    C9 9547   5.488   1.092   7.226  0.8478  0.7437  0.2759
   96CHL1    H9 9548   5.577   1.159   7.227  0.2443  1.5604  1.6065
   96CHL1   C10 9549   5.437   1.088   7.077  0.0974  0.4026  0.7073
   96CHL1   C19 9550   5.292   1.023   7.079 -0.6080 -0.0556 -0.4843
   96CHL1  H19A 9551   5.258   0.976   6.984 -1.9472 -3.7318  1.7115
   96CHL1  H19B 9552   5.293   0.940   7.152  0.9190  0.4261  0.0698
   96CHL1  H19C 9553   5.220   1.102   7.108  0.8502  1.7042 -1.5313
   96CHL1    C1 9554   5.415   1.228   7.024 -0.3286  1.0810 -0.7634
   96CHL1   H1A 9555   5.322   1.275   7.063  0.9694  2.9240  0.1928
   96CHL1   H1B 9556   5.496   1.292   7.064 -0.0274 -0.1722  0.6794
   96CHL1    C2 9557   5.388   1.234   6.869 -0.2842  0.2736  0.5122
   96CHL1   H2A 9558   5.382   1.343   6.846  0.8600  0.5121  1.3206
   96CHL1   H2B 9559   5.292   1.186   6.844 -0.8428 -1.2123  5.0504
   96CHL1   C20 9560   5.518   1.028   7.785 -0.1915 -0.8360 -0.5413
   96CHL1   H20 9561   5.444   0.946   7.799  0.0279 -0.9128  0.1663
   96CHL1   C21 9562   5.439   1.158   7.804 -0.8496 -0.6149 -0.5642
   96CHL1  H21A 9563   5.501   1.247   7.778 -1.0442 -0.4852 -0.5865
   96CHL1  H21B 9564   5.404   1.173   7.909  3.7107  1.3587  0.7959
   96CHL1  H21C 9565   5.357   1.175   7.731 -2.2472  0.9686  1.2936
   96CHL1   C22 9566   5.610   1.009   7.906 -0.5894 -0.0464 -0.5000
   96CHL1  H22A 9567   5.545   1.030   7.994  1.3594 -0.0478  0.9891
   96CHL1  H22B 9568   5.644   0.903   7.906  1.0467  0.4610  0.4110
   96CHL1   C23 9569   5.733   1.098   7.920  0.2080  0.1774  0.1111
   96CHL1  H23A 9570   5.799   1.054   7.842  0.6925  0.7533  0.1929
   96CHL1  H23B 9571   5.722   1.204   7.889 -0.4750 -1.1268 -4.3048
   96CHL1   C24 9572   5.805   1.088   8.054 -0.0986  0.2403 -0.4822
   96CHL1  H24A 9573   5.897   1.151   8.053  0.3208 -0.3506  0.3803
   96CHL1  H24B 9574   5.736   1.113   8.137  0.3932  0.8290 -0.2494
   96CHL1   C25 9575   5.870   0.942   8.090 -1.1049 -0.0773  0.2869
   96CHL1   H25 9576   5.775   0.886   8.103 -1.2109  0.3903  1.5716
   96CHL1   C26 9577   5.961   0.880   7.981  0.3276  0.6549  0.2829
   96CHL1  H26A 9578   6.057   0.932   7.962  0.6828 -1.2338 -3.6040
   96CHL1  H26B 9579   5.977   0.780   8.028 -0.2381  0.5998  0.3662
   96CHL1  H26C 9580   5.903   0.847   7.893  2.5935 -1.5668 -0.4299
   96CHL1   C27 9581   5.922   0.945   8.232 -0.2549  0.1126  0.4604
   96CHL1  H27A 9582   6.027   0.978   8.219  0.0716 -0.3161  1.8527
   96CHL1  H27B 9583   5.854   1.010   8.291  0.8797  2.1196 -0.3952
   96CHL1  H27C 9584   5.925   0.841   8.272  1.2482 -0.1340 -0.2464
   97OSM      N 9585   3.442   1.659  11.033 -1.0115  0.5045  0.4480
   97OSM    C15 9586   3.581   1.708  11.008 -0.6817 -0.2889 -0.1035
   97OSM   H15A 9587   3.626   1.761  11.090  0.1462 -1.6231  0.3212
   97OSM   H15B 9588   3.570   1.781  10.929 -0.0406 -0.9867 -0.8545
   97OSM   H15C 9589   3.646   1.635  10.962 -1.0657 -0.9997  0.4613
   97OSM    C14 9590   3.440   1.555  11.132  0.1787 -0.1400  0.1297
   97OSM   H14A 9591   3.464   1.580  11.234  2.8772 -2.2497  0.0954
   97OSM   H14B 9592   3.517   1.482  11.112  1.7446  1.4698  0.1033
   97OSM   H14C 9593   3.347   1.501  11.138  0.3343 -0.6645 -1.7507
   97OSM    C13 9594   3.367   1.775  11.083 -0.3673  0.2667 -0.2583
   97OSM   H13A 9595   3.381   1.855  11.012 -1.9280  0.5735 -0.2345
   97OSM   H13B 9596   3.397   1.804  11.183  0.6334 -0.4410 -0.3372
   97OSM   H13C 9597   3.262   1.752  11.078 -0.6720  1.2315  1.5034
   97OSM    C12 9598   3.382   1.616  10.897 -0.1280  0.1268 -0.3901
   97OSM   H12A 9599   3.447   1.550  10.842  0.6661 -0.8139  1.6019
   97OSM   H12B 9600   3.367   1.697  10.827  0.5645  0.0077 -0.6807
   97OSM    C11 9601   3.245   1.544  10.908  0.4410  0.3867  0.3964
   97OSM   H11A 9602   3.257   1.448  10.962 -2.1682  0.5181  1.2703
   97OSM   H11B 9603   3.226   1.512  10.804  2.5790 -0.3962  0.2214
   97OSM      P 9604   3.067   1.593  11.079  0.5333  0.4783  0.0324
   97OSM    O13 9605   3.142   1.501  11.170 -0.2318 -0.3406 -0.3122
   97OSM    O14 9606   3.016   1.722  11.125  0.5967  0.2466 -1.2105
   97OSM    O11 9607   2.949   1.508  11.014  0.1840 -0.5302  0.4320
   97OSM    O12 9608   3.149   1.633  10.957  0.0856 -0.2566 -0.3635
   97OSM    C1S 9609   2.852   1.558  10.926  1.0313  0.1683  0.5672
   97OSM    H1S 9610   2.857   1.669  10.926 -0.9026  0.3028 -1.4361
   97OSM    H1T 9611   2.749   1.531  10.960  0.6220 -0.6196 -1.2209
   97OSM     NF 9612   2.775   1.573  10.691  0.1400 -0.4149 -0.5539
   97OSM    HNF 9613   2.690   1.523  10.675  1.4690 -2.3879 -1.6677
   97OSM    C2S 9614   2.875   1.509  10.783  0.9268 -0.3503  0.6991
   97OSM    H2S 9615   2.972   1.541  10.741 -0.2599  1.4153 -0.8067
   97OSM    C3S 9616   2.875   1.348  10.792  0.7748  0.0529 -0.9843
   97OSM    H3S 9617   2.795   1.326  10.867  1.0200 -1.0474 -1.0337
   97OSM     O3 9618   2.995   1.290  10.851  0.7935  0.4140  0.0665
   97OSM    HO3 9619   3.001   1.349  10.927  3.6218  0.4155 -0.0984
   97OSM    C4S 9620   2.850   1.285  10.657 -0.5832  0.7461 -0.1796
   97OSM    H4S 9621   2.743   1.265  10.643 -0.9163  2.5226 -0.3836
   97OSM    C5S 9622   2.942   1.234  10.578 -0.3590 -0.6626 -0.5571
   97OSM    H5S 9623   3.048   1.235  10.607 -0.0524  0.8234 -1.6689
   97OSM    C6S 9624   2.914   1.155  10.454 -1.0307 -0.5976  0.1289
   97OSM    H6S 9625   2.809   1.121  10.449 -1.6093  1.0026  0.8858
   97OSM    H6T 9626   2.977   1.064  10.453  1.6982  1.0936  4.0252
   97OSM    C7S 9627   2.939   1.239  10.327 -1.1934 -0.5898 -0.1950
   97OSM    H7S 9628   3.043   1.278  10.325 -1.6027  0.5169 -2.0711
   97OSM    H7T 9629   2.875   1.329  10.346  2.0922  1.9817 -0.9023
   97OSM    C8S 9630   2.888   1.170  10.196  0.8592 -0.4504  0.5083
   97OSM    H8S 9631   2.783   1.141  10.220 -0.0653 -0.4251 -3.1469
   97OSM    H8T 9632   2.947   1.079  10.173  1.0903  0.3456 -2.2444
   97OSM    C9S 9633   2.892   1.267  10.074  0.6174 -0.3319  0.4183
   97OSM    H9S 9634   2.998   1.292  10.054  1.6610 -1.7557  3.7771
   97OSM    H9T 9635   2.844   1.361  10.111 -1.1002 -1.0930  0.2053
   97OSM   C10S 9636   2.808   1.227   9.950  0.2529 -0.1966 -0.1158
   97OSM   H10S 9637   2.703   1.209   9.982  0.6804 -1.8204  0.4142
   97OSM   H10T 9638   2.848   1.131   9.911  0.1318  0.1161 -1.0303
   97OSM   C11S 9639   2.812   1.328   9.835  0.2387  0.1839 -0.0265
   97OSM   H11S 9640   2.918   1.354   9.811 -0.4884  2.6481 -0.7446
   97OSM   H11T 9641   2.766   1.423   9.872 -1.4182  1.2489 -4.5578
   97OSM   C12S 9642   2.741   1.295   9.709  0.0279  0.6613 -0.5284
   97OSM   H12S 9643   2.633   1.313   9.725 -0.6734  0.2499 -4.2918
   97OSM   H12T 9644   2.740   1.184   9.700 -2.5447  0.7024 -1.0927
   97OSM   C13S 9645   2.803   1.356   9.580 -0.4458 -0.3465  1.2192
   97OSM   H13S 9646   2.913   1.365   9.591 -0.2173 -1.6459 -0.0063
   97OSM   H13T 9647   2.770   1.463   9.580  1.7957  0.3656  0.6230
   97OSM   C14S 9648   2.771   1.285   9.452 -0.4034  0.2720  0.4279
   97OSM   H14S 9649   2.811   1.182   9.452  0.5270  0.6302 -0.2004
   97OSM   H14T 9650   2.827   1.341   9.375 -1.2088  1.3537  0.6133
   97OSM   C15S 9651   2.619   1.277   9.420  0.9410 -0.5659  0.0199
   97OSM   H15S 9652   2.595   1.386   9.420  3.1556 -0.0305 -1.9258
   97OSM   H15T 9653   2.570   1.229   9.507  0.9884  0.3550  0.5630
   97OSM   C16S 9654   2.598   1.201   9.286  0.0578  0.2771  0.3817
   97OSM   H16S 9655   2.646   1.102   9.297  2.2456  1.5965  3.3011
   97OSM   H16T 9656   2.641   1.257   9.200 -1.5087 -1.3176 -1.4956
   97OSM   C17S 9657   2.454   1.157   9.252 -0.1708  0.1377  0.0298
   97OSM   H17S 9658   2.396   1.246   9.219 -0.0771 -0.2020 -1.0721
   97OSM   H17T 9659   2.407   1.099   9.334 -1.4064  2.3520  0.9156
   97OSM   C18S 9660   2.446   1.069   9.129 -0.8178  0.2316  0.5045
   97OSM   H18S 9661   2.493   1.125   9.045 -0.2201  1.0161  1.3513
   97OSM   H18T 9662   2.340   1.052   9.099 -0.2442  0.4837 -1.7308
   97OSM   H18U 9663   2.502   0.974   9.147  0.1782  1.0303  1.6743
   97OSM    C1F 9664   2.779   1.704  10.663  0.1545 -0.5067 -0.2464
   97OSM     OF 9665   2.849   1.774  10.727 -0.2151  0.1248  0.3624
   97OSM    C2F 9666   2.694   1.767  10.552  0.0218 -0.0901  1.0170
   97OSM    H2F 9667   2.760   1.814  10.477  0.6593 -1.8028  0.4628
   97OSM    H2G 9668   2.612   1.830  10.592 -0.6599 -0.9408  0.9948
   97OSM    C3F 9669   2.636   1.647  10.464  0.4156 -0.2421 -0.3293
   97OSM    H3F 9670   2.574   1.578  10.525 -0.5687  2.1371  1.4333
   97OSM    H3G 9671   2.720   1.599  10.409  1.2011 -0.0185  0.6606
   97OSM    C4F 9672   2.551   1.713  10.353 -0.5819 -0.3607 -0.4401
   97OSM    H4F 9673   2.606   1.797  10.306 -0.6572 -0.6660 -1.0722
   97OSM    H4G 9674   2.464   1.763  10.402 -0.6614  0.1769 -1.1186
   97OSM    C5F 9675   2.507   1.616  10.236 -0.9439 -0.2109 -0.0275
   97OSM    H5F 9676   2.467   1.682  10.156  0.4270  0.8679  0.1513
   97OSM    H5G 9677   2.431   1.545  10.273 -0.0333 -0.9736  0.4046
   97OSM    C6F 9678   2.622   1.542  10.175  0.0426 -1.1153 -0.1849
   97OSM    H6F 9679   2.599   1.477  10.087  0.3463 -0.0914 -1.0294
   97OSM    H6G 9680   2.679   1.488  10.254  1.1812 -1.1308 -0.9984
   97OSM    C7F 9681   2.731   1.638  10.126  0.4170  0.0402  0.4448
   97OSM    H7F 9682   2.819   1.585  10.083  0.6852  0.2351  0.7583
   97OSM    H7G 9683   2.783   1.693  10.207  1.4155  0.5032 -0.4958
   97OSM    C8F 9684   2.691   1.750  10.030  0.0972  0.3780 -0.1263
   97OSM    H8F 9685   2.783   1.800   9.992 -0.3592  0.2802 -1.3876
   97OSM    H8G 9686   2.639   1.821  10.098 -0.2955  0.3833 -0.4285
   97OSM    C9F 9687   2.613   1.704   9.915 -0.5665 -0.6694 -1.1843
   97OSM    H9F 9688   2.665   1.630   9.853 -2.4135 -0.6224 -2.7989
   97OSM   C10F 9689   2.499   1.751   9.872  0.6176 -0.1160  0.5579
   97OSM   H10F 9690   2.440   1.685   9.807 -1.7256 -0.2621  2.7741
   97OSM   C11F 9691   2.418   1.862   9.923  0.0796  0.3824  0.4734
   97OSM   H11F 9692   2.463   1.914  10.010  1.5809 -1.3122  0.7435
   97OSM   H11G 9693   2.322   1.821   9.961  0.5271 -1.0164  0.1463
   97OSM   C12F 9694   2.357   1.968   9.832  0.1676  0.4401 -0.8048
   97OSM   H12F 9695   2.315   1.924   9.739  1.3892 -1.0933 -0.6722
   97OSM   H12G 9696   2.441   2.037   9.808  0.7236 -0.3091 -1.0645
   97OSM   C13F 9697   2.252   2.057   9.900  0.2601  0.1319 -0.2495
   97OSM   H13F 9698   2.282   2.089  10.002 -0.3302 -0.1744  0.0224
   97OSM   H13G 9699   2.150   2.012   9.897  1.0537 -1.7462  0.2915
   97OSM   C14F 9700   2.253   2.194   9.828  0.0964  0.6893  0.0686
   97OSM   H14F 9701   2.347   2.245   9.858  0.0712  0.0473  1.2845
   97OSM   H14G 9702   2.166   2.255   9.861 -1.2579  0.0890 -2.2726
   97OSM   C15F 9703   2.255   2.196   9.673 -0.0111  0.2639 -0.0813
   97OSM   H15F 9704   2.169   2.135   9.637  0.3363  1.1035 -2.4534
   97OSM   H15G 9705   2.346   2.143   9.637 -0.8995  0.2305 -2.4045
   97OSM   C16F 9706   2.251   2.329   9.619 -0.1240 -0.0741  0.3146
   97OSM   H16F 9707   2.311   2.391   9.688  0.0316 -1.9264  1.8916
   97OSM   H16G 9708   2.147   2.367   9.609  0.4019  1.2494 -0.2662
   97OSM   C17F 9709   2.304   2.342   9.477 -1.1244 -0.1452 -0.7980
   97OSM   H17F 9710   2.249   2.275   9.407  0.9804 -2.2741 -0.4699
   97OSM   H17G 9711   2.409   2.306   9.471  0.6557  4.5059  0.0117
   97OSM   C18F 9712   2.317   2.474   9.411  0.0382 -0.1948 -0.2640
   97OSM   H18F 9713   2.348   2.559   9.475 -1.8542  0.0207  0.4188
   97OSM   H18G 9714   2.211   2.501   9.391 -0.1677  1.2237  2.5262
   97OSM   H18H 9715   2.360   2.468   9.309  1.0662 -0.5767  0.1871
   98OSM      N 9716   2.732   1.516  11.349  0.1066  0.4349  0.4755
   98OSM    C15 9717   2.834   1.614  11.399  0.2390  0.5029  0.1038
   98OSM   H15A 9718   2.914   1.553  11.438  0.1766 -0.0056 -0.5487
   98OSM   H15B 9719   2.789   1.670  11.480  0.6750  0.8157  0.1306
   98OSM   H15C 9720   2.867   1.687  11.326 -1.0180 -0.2886 -1.2847
   98OSM    C14 9721   2.789   1.415  11.255  0.0218  0.4757  0.4494
   98OSM   H14A 9722   2.820   1.455  11.160  1.5387 -1.5211  0.0847
   98OSM   H14B 9723   2.714   1.346  11.220  0.8075  1.1457 -2.7386
   98OSM   H14C 9724   2.864   1.349  11.295 -0.5348 -0.8942 -0.7449
   98OSM    C13 9725   2.676   1.464  11.477 -0.3777  0.4261 -0.1499
   98OSM   H13A 9726   2.589   1.404  11.454 -0.3047 -0.0759  0.8586
   98OSM   H13B 9727   2.643   1.543  11.542  1.0056  1.8980 -1.1879
   98OSM   H13C 9728   2.752   1.408  11.531 -0.4193 -1.4150 -1.9397
   98OSM    C12 9729   2.625   1.591  11.275 -0.3057  0.2163 -0.1852
   98OSM   H12A 9730   2.682   1.637  11.196 -2.8159  1.3641 -1.3557
   98OSM   H12B 9731   2.592   1.673  11.338 -2.0849  0.8198 -1.8599
   98OSM    C11 9732   2.515   1.507  11.217  0.4457 -0.4312  0.3225
   98OSM   H11A 9733   2.418   1.561  11.204 -0.1414 -1.3467  0.8096
   98OSM   H11B 9734   2.492   1.429  11.293 -0.8845  1.6880  2.1656
   98OSM      P 9735   2.511   1.297  11.062 -0.0469 -0.0287 -0.1134
   98OSM    O13 9736   2.540   1.271  10.921 -0.2661  0.6439  0.2980
   98OSM    O14 9737   2.581   1.217  11.162  0.0364 -0.1388  0.7185
   98OSM    O11 9738   2.357   1.280  11.076  0.1935  0.1846  0.2592
   98OSM    O12 9739   2.550   1.445  11.097 -0.1500 -0.0318  0.5137
   98OSM    C1S 9740   2.261   1.368  11.011  0.0654  0.2301 -0.1302
   98OSM    H1S 9741   2.302   1.471  11.001  1.2874 -0.2927 -0.5199
   98OSM    H1T 9742   2.169   1.377  11.074 -0.3499 -1.4239 -0.4621
   98OSM     NF 9743   2.146   1.434  10.810  0.8336 -0.4576 -0.6646
   98OSM    HNF 9744   2.047   1.439  10.819  1.1331  2.3007  1.7190
   98OSM    C2S 9745   2.213   1.322  10.870  0.2675 -0.0876 -0.1743
   98OSM    H2S 9746   2.305   1.289  10.818  0.2278  0.6037 -0.6989
   98OSM    C3S 9747   2.121   1.193  10.887  0.2675 -0.5445 -0.3889
   98OSM    H3S 9748   2.021   1.220  10.927 -1.0385 -1.4273 -2.9744
   98OSM     O3 9749   2.173   1.088  10.964  0.0613  0.5923 -0.7065
   98OSM    HO3 9750   2.250   1.128  11.006 -0.7213  0.0238  1.3406
   98OSM    C4S 9751   2.088   1.136  10.750  0.5256  0.3433 -0.1544
   98OSM    H4S 9752   2.169   1.109  10.681  0.3827 -1.4176  0.3352
   98OSM    C5S 9753   1.960   1.134  10.699 -0.2403 -0.4130  0.7161
   98OSM    H5S 9754   1.878   1.154  10.769 -0.6736  2.4617 -0.5235
   98OSM    C6S 9755   1.921   1.083  10.569  0.0843  0.2546  0.3179
   98OSM    H6S 9756   1.811   1.095  10.560  0.1777  1.0250  0.2020
   98OSM    H6T 9757   1.937   0.974  10.559  2.3714  0.7149 -1.6167
   98OSM    C7S 9758   1.990   1.137  10.439  0.2699 -0.1621 -0.1324
   98OSM    H7S 9759   2.098   1.115  10.446  0.0456 -0.9283  1.0034
   98OSM    H7T 9760   1.981   1.248  10.436 -0.9479 -0.2750 -2.0124
   98OSM    C8S 9761   1.920   1.090  10.309  0.1607 -0.0036  0.3003
   98OSM    H8S 9762   1.951   1.146  10.218 -0.5428 -0.8586 -0.4928
   98OSM    H8T 9763   1.813   1.119  10.299  0.5127  1.5768  0.9908
   98OSM    C9S 9764   1.929   0.940  10.290 -0.1618  0.7053 -0.4167
   98OSM    H9S 9765   1.860   0.897  10.366 -0.7323  1.1592 -0.6716
   98OSM    H9T 9766   2.031   0.905  10.314 -0.0364 -0.9804 -3.2553
   98OSM   C10S 9767   1.890   0.880  10.157  0.3236 -0.3336 -0.2021
   98OSM   H10S 9768   1.792   0.906  10.111  0.7720  0.5914 -0.6401
   98OSM   H10T 9769   1.884   0.769  10.162  2.0942 -0.5669 -2.7844
   98OSM   C11S 9770   1.991   0.901  10.044  0.1128 -0.2612 -0.8259
   98OSM   H11S 9771   2.090   0.871  10.085 -1.2461 -0.5898  2.3994
   98OSM   H11T 9772   1.995   1.006  10.007 -0.6878 -0.1590 -0.6335
   98OSM   C12S 9773   1.974   0.811   9.920 -0.0531  0.5365  0.6629
   98OSM   H12S 9774   1.865   0.799   9.902 -0.1114  3.5985 -1.5005
   98OSM   H12T 9775   2.027   0.716   9.940  0.5910  0.4774 -1.2581
   98OSM   C13S 9776   2.020   0.879   9.790  0.3867  0.2374 -0.1163
   98OSM   H13S 9777   2.128   0.901   9.805  0.5199 -0.4658 -0.0037
   98OSM   H13T 9778   1.963   0.972   9.770  0.1847  0.1601  0.0946
   98OSM   C14S 9779   2.011   0.794   9.661  0.4657 -0.0158 -0.3113
   98OSM   H14S 9780   1.904   0.766   9.650 -0.4542  2.2333  2.2453
   98OSM   H14T 9781   2.089   0.715   9.672  0.9378  0.4283 -0.4258
   98OSM   C15S 9782   2.050   0.887   9.542  0.0246 -0.0828  0.4533
   98OSM   H15S 9783   2.148   0.939   9.537  1.0497 -1.9606  0.6389
   98OSM   H15T 9784   1.982   0.976   9.543 -1.0934 -0.9265  1.4452
   98OSM   C16S 9785   2.022   0.827   9.406  0.2443  0.6277  0.4448
   98OSM   H16S 9786   2.014   0.904   9.326  0.9393  0.2263 -0.0179
   98OSM   H16T 9787   1.923   0.777   9.411  0.4634 -0.0035 -1.3521
   98OSM   C17S 9788   2.115   0.714   9.353  0.0196  0.5444 -0.1001
   98OSM   H17S 9789   2.090   0.617   9.401 -1.4508 -0.3419 -2.5867
   98OSM   H17T 9790   2.219   0.749   9.369 -0.4443  0.9553  2.1852
   98OSM   C18S 9791   2.095   0.688   9.201  0.4161 -0.3634  0.1159
   98OSM   H18S 9792   2.157   0.604   9.165  0.4114 -0.0453 -0.6413
   98OSM   H18T 9793   2.115   0.782   9.146 -1.3222 -0.2545 -0.3676
   98OSM   H18U 9794   1.992   0.647   9.193 -0.0667  0.2020  2.9501
   98OSM    C1F 9795   2.217   1.540  10.767 -0.0941 -0.0935 -0.5960
   98OSM     OF 9796   2.339   1.544  10.784 -0.3738 -0.5729 -0.1977
   98OSM    C2F 9797   2.137   1.652  10.704 -0.6250 -0.2091  0.6324
   98OSM    H2F 9798   2.168   1.751  10.744 -1.0327  0.5545 -0.8704
   98OSM    H2G 9799   2.030   1.638  10.729 -0.7613 -1.8036 -0.7118
   98OSM    C3F 9800   2.156   1.664  10.546  0.7227  0.2950 -0.2383
   98OSM    H3F 9801   2.265   1.673  10.525  0.9667  1.9784  1.6288
   98OSM    H3G 9802   2.107   1.762  10.530 -0.2995 -0.0566  0.6847
   98OSM    C4F 9803   2.085   1.552  10.475  0.2790 -0.5811 -0.4326
   98OSM    H4F 9804   1.977   1.566  10.495  0.2824  3.2241 -2.7167
   98OSM    H4G 9805   2.118   1.451  10.509  0.9978 -0.1138  0.2875
   98OSM    C5F 9806   2.111   1.559  10.325 -0.6296 -0.6805 -0.0510
   98OSM    H5F 9807   2.220   1.554  10.307 -0.5651  1.4652 -0.4075
   98OSM    H5G 9808   2.068   1.651  10.281 -0.8537 -0.9627 -0.4278
   98OSM    C6F 9809   2.046   1.434  10.256 -0.0226  0.3146 -0.6398
   98OSM    H6F 9810   1.941   1.432  10.293  1.2994 -2.2536  3.4292
   98OSM    H6G 9811   2.104   1.345  10.291  0.3593 -0.2736 -2.7250
   98OSM    C7F 9812   2.054   1.446  10.101 -0.0734 -0.2256  0.3729
   98OSM    H7F 9813   2.157   1.442  10.059  0.0260 -0.3218  0.6213
   98OSM    H7G 9814   2.002   1.542  10.082  0.3076  0.0262  0.6071
   98OSM    C8F 9815   1.984   1.343  10.007 -0.3121  0.0682  0.9582
   98OSM    H8F 9816   2.041   1.248  10.016 -1.8989 -1.2693 -2.4505
   98OSM    H8G 9817   2.009   1.389   9.909  0.1026 -0.1487  0.9625
   98OSM    C9F 9818   1.834   1.336  10.038 -0.1554 -0.7251 -0.0121
   98OSM    H9F 9819   1.812   1.278  10.129  1.1883 -1.2817 -0.0255
   98OSM   C10F 9820   1.730   1.387   9.972 -0.2029 -0.4949  0.0666
   98OSM   H10F 9821   1.633   1.386  10.024 -0.2538  3.5392  0.1925
   98OSM   C11F 9822   1.722   1.479   9.849 -0.1660 -0.2820 -0.9677
   98OSM   H11F 9823   1.823   1.525   9.835  0.0992  0.4887  2.8839
   98OSM   H11G 9824   1.644   1.558   9.856 -0.6433 -0.9250  1.5104
   98OSM   C12F 9825   1.696   1.405   9.714 -0.6962  0.3605  0.4075
   98OSM   H12F 9826   1.595   1.359   9.721 -1.1867  1.1082 -1.3808
   98OSM   H12G 9827   1.770   1.322   9.706 -2.3782 -0.8889 -3.1575
   98OSM   C13F 9828   1.695   1.493   9.579  0.7355  0.0721 -1.0381
   98OSM   H13F 9829   1.780   1.564   9.580  1.3343 -0.6476  1.3696
   98OSM   H13G 9830   1.594   1.539   9.574  0.2336 -0.8156  0.4914
   98OSM   C14F 9831   1.705   1.408   9.449 -0.1316 -0.1046  0.3107
   98OSM   H14F 9832   1.618   1.340   9.436  0.4606 -0.9317  0.5955
   98OSM   H14G 9833   1.792   1.338   9.454 -0.1236 -0.2511 -1.5444
   98OSM   C15F 9834   1.718   1.497   9.328  0.0829 -0.4226  0.6223
   98OSM   H15F 9835   1.821   1.534   9.313 -0.9755  2.6305  0.4499
   98OSM   H15G 9836   1.667   1.591   9.358 -0.0409 -0.1630 -0.3867
   98OSM   C16F 9837   1.631   1.453   9.211 -0.4877  0.0950 -0.7711
   98OSM   H16F 9838   1.609   1.539   9.145  1.7930  1.5238  0.2902
   98OSM   H16G 9839   1.535   1.418   9.255  0.6463  0.4709  2.0863
   98OSM   C17F 9840   1.688   1.336   9.128 -0.4086 -0.3284  0.6141
   98OSM   H17F 9841   1.726   1.252   9.191  0.6314 -0.9469 -0.8056
   98OSM   H17G 9842   1.767   1.373   9.059 -0.4244  1.3110  1.4492
   98OSM   C18F 9843   1.574   1.281   9.034  0.4816  0.8873 -0.5673
   98OSM   H18F 9844   1.599   1.179   8.998 -0.2057  0.3375  0.4818
   98OSM   H18G 9845   1.548   1.359   8.959  0.5994  1.5833  0.1113
   98OSM   H18H 9846   1.484   1.267   9.097  1.5225 -1.0637  0.5553
   99OSM      N 9847   4.009   1.489  11.001 -0.0953  0.0646  0.2944
   99OSM    C15 9848   4.043   1.627  11.055 -0.3740 -0.2871  0.0441
   99OSM   H15A 9849   3.969   1.706  11.049 -0.1813 -0.0153  1.0100
   99OSM   H15B 9850   4.137   1.667  11.018 -1.6612  1.1540 -1.7342
   99OSM   H15C 9851   4.060   1.620  11.162 -0.0921 -0.1007  0.0132
   99OSM    C14 9852   4.130   1.397  11.020 -0.6420 -0.0390  0.5772
   99OSM   H14A 9853   4.092   1.299  11.043  0.1300 -0.7070 -0.9594
   99OSM   H14B 9854   4.198   1.428  11.098 -0.5557  1.4982 -0.0908
   99OSM   H14C 9855   4.180   1.383  10.926 -0.8772 -0.3754  0.5030
   99OSM    C13 9856   3.898   1.433  11.078 -0.0239 -0.2769  0.2755
   99OSM   H13A 9857   3.911   1.429  11.186 -0.7461 -2.0743  0.2982
   99OSM   H13B 9858   3.892   1.330  11.047  2.5874  0.0076 -1.3585
   99OSM   H13C 9859   3.803   1.477  11.051 -0.5950 -1.2512  0.6780
   99OSM    C12 9860   3.969   1.493  10.847  0.5940  0.3297  0.4080
   99OSM   H12A 9861   3.948   1.391  10.819 -0.1126  0.1335  1.6090
   99OSM   H12B 9862   4.057   1.539  10.806 -1.0405  1.7389 -1.5671
   99OSM    C11 9863   3.849   1.576  10.794 -0.1009 -0.6815  0.8425
   99OSM   H11A 9864   3.856   1.578  10.683 -1.5800  2.9808  0.7466
   99OSM   H11B 9865   3.860   1.679  10.833 -1.7784 -1.2957  3.0026
   99OSM      P 9866   3.661   1.410  10.762  0.2952 -0.3208 -0.2151
   99OSM    O13 9867   3.761   1.340  10.683  0.3487  0.7370  0.4349
   99OSM    O14 9868   3.593   1.335  10.868  0.4322 -0.5637 -0.0747
   99OSM    O11 9869   3.560   1.476  10.672 -0.1291 -0.3613 -0.0127
   99OSM    O12 9870   3.731   1.527  10.838  0.3276  0.1455 -0.8954
   99OSM    C1S 9871   3.559   1.614  10.636 -0.3105 -1.3845  0.3102
   99OSM    H1S 9872   3.595   1.679  10.718  0.5862 -2.6473  0.9339
   99OSM    H1T 9873   3.452   1.640  10.623  0.2669  1.2664  0.6990
   99OSM     NF 9874   3.614   1.790  10.470  0.1546  0.0217  0.2479
   99OSM    HNF 9875   3.556   1.803  10.391  2.7144  1.7385 -1.4406
   99OSM    C2S 9876   3.630   1.651  10.502 -0.0766  0.2552 -0.5282
   99OSM    H2S 9877   3.735   1.619  10.518 -0.5648 -1.0872  0.0986
   99OSM    C3S 9878   3.568   1.546  10.398  0.0116  0.2444  0.2129
   99OSM    H3S 9879   3.457   1.549  10.398 -0.0015 -0.2482 -0.3303
   99OSM     O3 9880   3.606   1.415  10.421 -0.9895  0.5706 -0.2279
   99OSM    HO3 9881   3.637   1.408  10.512 -2.4141 -3.4570  0.0548
   99OSM    C4S 9882   3.626   1.576  10.261  1.1300  0.7071 -0.7447
   99OSM    H4S 9883   3.736   1.571  10.257  1.2793  1.9965  0.9010
   99OSM    C5S 9884   3.541   1.595  10.151 -0.2537  0.3566  0.1176
   99OSM    H5S 9885   3.433   1.600  10.172 -0.2933 -0.1200  0.0144
   99OSM    C6S 9886   3.574   1.625  10.006  0.1553 -0.2865 -0.8390
   99OSM    H6S 9887   3.529   1.725   9.995 -1.1670 -0.7426  0.2533
   99OSM    H6T 9888   3.530   1.560   9.928 -1.9344  0.2297 -0.1092
   99OSM    C7S 9889   3.730   1.615   9.981  0.3954  0.0270  0.5486
   99OSM    H7S 9890   3.771   1.512   9.986  3.2374  1.0503 -0.4180
   99OSM    H7T 9891   3.784   1.671  10.060  0.5523 -0.3473  0.7050
   99OSM    C8S 9892   3.771   1.671   9.845  0.6462  0.1410  0.7046
   99OSM    H8S 9893   3.881   1.656   9.842  0.5595 -0.1404 -1.6433
   99OSM    H8T 9894   3.752   1.780   9.856 -4.5198 -0.5733  0.2685
   99OSM    C9S 9895   3.706   1.619   9.718  0.7913  0.5538  0.0144
   99OSM    H9S 9896   3.598   1.646   9.726  0.9221  0.9788  0.3450
   99OSM    H9T 9897   3.707   1.508   9.710 -0.3672  0.6653 -2.1594
   99OSM   C10S 9898   3.748   1.679   9.583 -0.7518 -0.3338  0.1932
   99OSM   H10S 9899   3.858   1.670   9.573 -0.3720  2.3485  1.5304
   99OSM   H10T 9900   3.732   1.788   9.597 -0.7368 -0.4490  1.1166
   99OSM   C11S 9901   3.662   1.632   9.460  0.4629  0.4186  0.2260
   99OSM   H11S 9902   3.647   1.723   9.398  0.5261  0.1309 -0.2087
   99OSM   H11T 9903   3.563   1.608   9.503  1.9577 -0.8502  3.0946
   99OSM   C12S 9904   3.725   1.512   9.385 -0.3577  0.6303 -0.3513
   99OSM   H12S 9905   3.734   1.422   9.450  0.0664  0.4332 -0.6839
   99OSM   H12T 9906   3.653   1.480   9.307 -0.3226  0.6416 -0.3886
   99OSM   C13S 9907   3.868   1.542   9.331 -0.4550 -0.8138 -1.1331
   99OSM   H13S 9908   3.899   1.453   9.272  0.2544 -1.5000  0.2416
   99OSM   H13T 9909   3.949   1.563   9.405 -0.8913  4.2820 -1.9330
   99OSM   C14S 9910   3.865   1.661   9.242 -0.1505  0.4468  0.0049
   99OSM   H14S 9911   3.961   1.685   9.192  0.2414  2.9514  1.8489
   99OSM   H14T 9912   3.844   1.750   9.305 -1.9884  0.0100  0.0203
   99OSM   C15S 9913   3.749   1.662   9.140  0.5458  0.2479  0.2345
   99OSM   H15S 9914   3.747   1.761   9.089 -3.7042 -0.5929 -1.5061
   99OSM   H15T 9915   3.654   1.658   9.197  0.7124  0.1793  0.5051
   99OSM   C16S 9916   3.766   1.549   9.034 -0.3332 -0.3893 -0.7056
   99OSM   H16S 9917   3.737   1.446   9.063  0.4229  0.0089  1.5758
   99OSM   H16T 9918   3.872   1.548   9.003  0.2308  0.0759  1.1472
   99OSM   C17S 9919   3.672   1.587   8.918 -0.5184 -0.6371 -0.2476
   99OSM   H17S 9920   3.697   1.690   8.884  3.4157 -0.9832  1.3511
   99OSM   H17T 9921   3.565   1.590   8.948 -1.0318  1.3305 -2.1555
   99OSM   C18S 9922   3.695   1.495   8.801  0.4432 -0.2228 -0.2899
   99OSM   H18S 9923   3.700   1.387   8.827 -0.1834 -0.2802 -0.4036
   99OSM   H18T 9924   3.798   1.510   8.763  1.5277 -2.3647  1.6918
   99OSM   H18U 9925   3.619   1.506   8.721  0.6291 -2.2264 -0.7488
   99OSM    C1F 9926   3.676   1.896  10.532 -0.9025  0.2002  0.7540
   99OSM     OF 9927   3.745   1.883  10.634  0.0215  0.0233  0.1032
   99OSM    C2F 9928   3.637   2.018  10.480 -0.2827 -0.0861 -0.1447
   99OSM    H2F 9929   3.607   2.080  10.567  2.4379  0.1642  0.6788
   99OSM    H2G 9930   3.563   2.011  10.398  0.7466  1.1724 -1.2089
   99OSM    C3F 9931   3.754   2.098  10.403  0.8509 -0.8075  0.3127
   99OSM    H3F 9932   3.730   2.207  10.406 -0.8149 -1.1646  0.1443
   99OSM    H3G 9933   3.843   2.092  10.469  1.1761 -0.7844 -0.1214
   99OSM    C4F 9934   3.781   2.046  10.267  0.2829  0.2150  0.3668
   99OSM    H4F 9935   3.690   2.025  10.209 -0.4077 -1.5115  2.0117
   99OSM    H4G 9936   3.818   1.941  10.263 -0.3756 -0.1279  2.6308
   99OSM    C5F 9937   3.871   2.144  10.176 -0.4841  0.1225  0.4319
   99OSM    H5F 9938   3.963   2.159  10.236 -0.9793  3.2133  0.4595
   99OSM    H5G 9939   3.821   2.242  10.170  1.0367  0.8106 -1.2415
   99OSM    C6F 9940   3.890   2.087  10.035  0.0685  0.5902  0.4350
   99OSM    H6F 9941   3.794   2.079   9.980 -0.6539  1.1640  1.5878
   99OSM    H6G 9942   3.912   1.980  10.050  0.5187  0.7366  0.8311
   99OSM    C7F 9943   3.993   2.145   9.951  0.6931 -0.5072  0.3740
   99OSM    H7F 9944   4.089   2.155  10.007 -1.8252  1.7041  4.5503
   99OSM    H7G 9945   3.968   2.253   9.945 -1.0337 -0.4041  5.9787
   99OSM    C8F 9946   4.018   2.065   9.823  0.1775  0.1785 -0.5708
   99OSM    H8F 9947   4.064   1.971   9.861 -0.3425  1.1948  2.7299
   99OSM    H8G 9948   4.096   2.123   9.769  1.2023 -0.5495  0.1076
   99OSM    C9F 9949   3.897   2.044   9.733 -0.1993 -0.0918  0.2193
   99OSM    H9F 9950   3.800   2.012   9.773  0.0137 -1.2749 -0.1782
   99OSM   C10F 9951   3.916   2.036   9.601  0.0149  0.0126  0.5186
   99OSM   H10F 9952   3.832   2.002   9.540  0.0966  1.3070 -0.3334
   99OSM   C11F 9953   4.045   2.057   9.540 -0.2265  0.1077 -0.0800
   99OSM   H11F 9954   4.114   1.971   9.553  2.4060  2.0259 -0.8449
   99OSM   H11G 9955   4.098   2.151   9.566  1.4015 -0.5122 -1.1085
   99OSM   C12F 9956   4.037   2.062   9.387 -0.8229  0.4757 -0.2050
   99OSM   H12F 9957   3.996   2.160   9.355  1.6916  2.0930  1.2660
   99OSM   H12G 9958   3.969   1.978   9.361  0.1881 -1.1260  2.1260
   99OSM   C13F 9959   4.175   2.060   9.321 -0.0335  0.7588  0.4131
   99OSM   H13F 9960   4.233   1.969   9.348 -1.5359 -0.7439 -1.2867
   99OSM   H13G 9961   4.236   2.142   9.366 -0.9637  0.8503  1.5225
   99OSM   C14F 9962   4.178   2.111   9.173  0.3648  0.2092  0.2249
   99OSM   H14F 9963   4.273   2.160   9.143  0.1920 -1.3720 -3.1964
   99OSM   H14G 9964   4.103   2.192   9.156 -0.0788  0.3277  2.5658
   99OSM   C15F 9965   4.154   1.998   9.071  0.7464  0.4428  0.8697
   99OSM   H15F 9966   4.073   1.929   9.103 -0.4789  0.8455 -1.2382
   99OSM   H15G 9967   4.247   1.941   9.048  0.4409 -0.2740  1.3928
   99OSM   C16F 9968   4.105   2.054   8.932  0.3853  0.5264  0.2659
   99OSM   H16F 9969   4.110   1.972   8.858 -0.3447  2.1694 -1.6501
   99OSM   H16G 9970   4.170   2.138   8.900  1.5967 -0.7652 -0.7003
   99OSM   C17F 9971   3.958   2.091   8.930 -0.0826  0.0924 -0.1044
   99OSM   H17F 9972   3.938   2.182   8.990 -0.8904  0.0438 -0.2967
   99OSM   H17G 9973   3.891   2.009   8.962 -0.5851  0.0869 -1.1515
   99OSM   C18F 9974   3.923   2.112   8.781 -0.0924  0.3851 -0.5071
   99OSM   H18F 9975   4.017   2.135   8.727  0.3697  1.6559  0.8133
   99OSM   H18G 9976   3.855   2.200   8.775 -0.3326  0.2633  0.3951
   99OSM   H18H 9977   3.883   2.022   8.731 -1.3565 -0.1616  1.4344
  100OSM      N 9978   6.028   3.339  10.971 -0.8587  0.6819  0.7079
  100OSM    C15 9979   6.081   3.210  11.028  0.0480  0.1266 -0.8630
  100OSM   H15A 9980   6.072   3.198  11.136 -2.0882  0.3220 -0.9875
  100OSM   H15B 9981   6.183   3.198  10.996  0.2542  0.7188 -0.4210
  100OSM   H15C 9982   6.031   3.121  10.992 -0.4319 -0.9489  2.2897
  100OSM    C14 9983   5.884   3.350  11.018 -0.3539  0.3151  0.2501
  100OSM   H14A 9984   5.816   3.280  10.972 -1.5654  1.5757  0.0947
  100OSM   H14B 9985   5.838   3.440  10.981 -0.9257 -0.5659 -1.2228
  100OSM   H14C 9986   5.870   3.341  11.125  1.4917 -2.5097  0.3110
  100OSM    C13 9987   6.098   3.457  11.030  0.6380  0.5621 -0.2451
  100OSM   H13A 9988   6.073   3.551  10.983  0.0531  0.9492  0.8229
  100OSM   H13B 9989   6.206   3.445  11.025  0.6581  0.4295  0.3872
  100OSM   H13C 9990   6.076   3.460  11.136  0.9032 -1.4283 -0.1124
  100OSM    C12 9991   6.024   3.324  10.825 -0.6261 -0.2173  0.0433
  100OSM   H12A 9992   5.962   3.404  10.787  1.2923  0.2224 -2.2792
  100OSM   H12B 9993   5.963   3.236  10.810  1.0232 -1.3268 -0.2670
  100OSM    C11 9994   6.150   3.295  10.731 -0.3342  1.0563 -0.0844
  100OSM   H11A 9995   6.230   3.365  10.762  0.4644 -0.2461  0.8535
  100OSM   H11B 9996   6.137   3.315  10.622  0.3133 -0.7571 -0.5164
  100OSM      P 9997   6.120   3.036  10.705  0.4259  0.3451  0.0057
  100OSM    O13 9998   6.185   2.922  10.771 -0.2721 -0.3235 -0.6989
  100OSM    O14 9999   5.978   3.057  10.730  0.1042 -0.0482 -0.2952
  100OSM    O1110000   6.156   3.035  10.555 -0.1140  0.0185 -0.0118
  100OSM    O1210001   6.198   3.162  10.760 -0.1529  0.3618  0.2480
  100OSM    C1S10002   6.280   2.960  10.525  0.3411 -0.7884  0.3692
  100OSM    H1S10003   6.267   2.851  10.544 -0.5763 -0.8902 -0.7573
  100OSM    H1T10004   6.368   2.987  10.587  2.0572 -3.4846 -0.8212
  100OSM     NF10005   6.414   2.861  10.331  0.6563  0.2197 -0.0475
  100OSM    HNF10006   6.513   2.875  10.333  0.6647  0.0719  0.6157
  100OSM    C2S10007   6.332   2.973  10.374 -0.1425  0.7477  0.5306
  100OSM    H2S10008   6.245   2.982  10.305  1.3855  2.6033 -1.2388
  100OSM    C3S10009   6.398   3.112  10.354 -0.0855 -0.2127 -0.4224
  100OSM    H3S10010   6.484   3.128  10.422 -1.2730 -0.5020  1.1721
  100OSM     O310011   6.301   3.211  10.397 -0.2741  0.5646 -0.0242
  100OSM    HO310012   6.224   3.166  10.434 -0.8374  0.5266 -1.2280
  100OSM    C4S10013   6.443   3.157  10.218 -0.3723 -0.5152 -0.2290
  100OSM    H4S10014   6.381   3.238  10.176 -0.2026 -0.5850 -0.6200
  100OSM    C5S10015   6.548   3.116  10.144 -0.7539  0.3689 -0.0224
  100OSM    H5S10016   6.608   3.035  10.188 -0.9182  1.2110  1.8154
  100OSM    C6S10017   6.593   3.161  10.010  0.2870  0.2083  0.6032
  100OSM    H6S10018   6.686   3.219  10.032 -1.1453  2.9767 -0.3403
  100OSM    H6T10019   6.525   3.235   9.962 -1.0242 -0.2207  1.7711
  100OSM    C7S10020   6.624   3.042   9.909 -0.8625  0.4226  0.6832
  100OSM    H7S10021   6.693   2.967   9.952  1.7105  0.2147 -3.5332
  100OSM    H7T10022   6.674   3.091   9.823 -1.0315 -0.4455  0.0844
  100OSM    C8S10023   6.503   2.966   9.857 -0.1424  0.1438  0.0604
  100OSM    H8S10024   6.420   3.035   9.833  1.6722  1.9090 -1.3509
  100OSM    H8T10025   6.473   2.906   9.946  0.8155  0.0524  0.3345
  100OSM    C9S10026   6.542   2.863   9.746  0.6332  0.1288 -1.3286
  100OSM    H9S10027   6.466   2.782   9.742  1.0078 -0.2723 -0.4195
  100OSM    H9T10028   6.636   2.805   9.760 -1.3341 -2.9128 -0.0967
  100OSM   C10S10029   6.546   2.928   9.609 -0.2353  0.0369  0.1863
  100OSM   H10S10030   6.624   3.006   9.596 -0.2600 -0.2992 -2.1831
  100OSM   H10T10031   6.447   2.977   9.597  0.0955  0.4221 -1.0049
  100OSM   C11S10032   6.573   2.816   9.502  0.2490 -0.5723 -1.0713
  100OSM   H11S10033   6.492   2.744   9.527 -0.0971  0.0218 -0.4761
  100OSM   H11T10034   6.673   2.771   9.519  0.4011  0.3979  0.8401
  100OSM   C12S10035   6.551   2.858   9.361 -0.8386  0.3248 -0.2970
  100OSM   H12S10036   6.448   2.892   9.336 -0.3428  1.6440 -0.5604
  100OSM   H12T10037   6.585   2.780   9.289  2.9667  1.6957 -0.0900
  100OSM   C13S10038   6.643   2.976   9.335  0.3322 -0.2435 -0.0941
  100OSM   H13S10039   6.740   2.958   9.385  0.6108  0.7913 -0.2420
  100OSM   H13T10040   6.601   3.063   9.391  2.7125  0.9598 -0.1377
  100OSM   C14S10041   6.643   3.007   9.189  0.0643  0.5010 -0.8124
  100OSM   H14S10042   6.538   3.028   9.159 -0.7691 -0.1127  1.6167
  100OSM   H14T10043   6.687   2.922   9.132 -1.1800 -0.9580  0.3791
  100OSM   C15S10044   6.732   3.131   9.161 -0.3920 -0.6938 -0.0952
  100OSM   H15S10045   6.838   3.116   9.192 -0.8082 -1.1798  1.1195
  100OSM   H15T10046   6.696   3.214   9.226  4.0035  0.7904  0.6022
  100OSM   C16S10047   6.733   3.173   9.015  0.3554  0.0863  0.0527
  100OSM   H16S10048   6.633   3.201   8.977  0.7829 -0.2736 -1.4051
  100OSM   H16T10049   6.760   3.081   8.957  0.3526 -0.2707  0.6118
  100OSM   C17S10050   6.811   3.298   8.985  0.2302 -0.6430 -0.5163
  100OSM   H17S10051   6.816   3.317   8.876 -0.9188 -0.0663 -0.4729
  100OSM   H17T10052   6.913   3.264   9.014 -0.1304 -1.3188 -0.0231
  100OSM   C18S10053   6.758   3.424   9.051 -0.5775 -0.1578 -0.1054
  100OSM   H18S10054   6.654   3.439   9.014  0.2763  0.2335 -2.4703
  100OSM   H18T10055   6.828   3.509   9.031 -0.4521 -0.1638  0.3111
  100OSM   H18U10056   6.756   3.401   9.159 -1.9788 -1.1804 -0.3430
  100OSM    C1F10057   6.364   2.735  10.326  0.4075  0.7091 -0.2665
  100OSM     OF10058   6.245   2.709  10.332 -0.4907  0.0839 -0.4617
  100OSM    C2F10059   6.469   2.625  10.301 -0.7164 -0.5232 -0.4557
  100OSM    H2F10060   6.480   2.568  10.395 -0.3907  0.5452  0.1695
  100OSM    H2G10061   6.561   2.684  10.278  0.0071 -1.1833  0.7371
  100OSM    C3F10062   6.426   2.525  10.194  0.5059 -0.4806  0.1283
  100OSM    H3F10063   6.409   2.567  10.092 -1.4077 -1.1675  0.1396
  100OSM    H3G10064   6.327   2.483  10.222 -0.1871 -0.5951 -2.3718
  100OSM    C4F10065   6.531   2.415  10.185 -0.5317 -0.6776 -0.3509
  100OSM    H4F10066   6.539   2.375  10.288 -0.3642  1.4928  0.5029
  100OSM    H4G10067   6.631   2.461  10.169 -1.3035 -0.2094 -4.4462
  100OSM    C5F10068   6.512   2.306  10.079  0.3971 -0.5462 -0.0660
  100OSM    H5F10069   6.403   2.289  10.093  0.5336 -0.7169  0.8374
  100OSM    H5G10070   6.576   2.216  10.092 -1.4441 -1.8039  0.4479
  100OSM    C6F10071   6.534   2.348   9.931  0.1939  0.0463 -0.2587
  100OSM    H6F10072   6.644   2.348   9.915  0.1630 -0.7911 -0.5265
  100OSM    H6G10073   6.496   2.451   9.915 -3.3993 -1.2496 -0.7386
  100OSM    C7F10074   6.468   2.257   9.829  0.3359  0.1225  0.4873
  100OSM    H7F10075   6.365   2.297   9.822  0.2801  0.0151  0.7058
  100OSM    H7G10076   6.454   2.156   9.873  1.3283 -0.0679  0.3730
  100OSM    C8F10077   6.540   2.247   9.693 -0.0084  0.4918  0.3319
  100OSM    H8F10078   6.486   2.173   9.630 -0.8194 -0.4330  2.0849
  100OSM    H8G10079   6.644   2.211   9.709 -0.7201 -1.0388  1.6650
  100OSM    C9F10080   6.524   2.385   9.631  0.1318 -0.4007 -0.1632
  100OSM    H9F10081   6.539   2.475   9.692  0.6554  0.7060 -1.9236
  100OSM   C10F10082   6.475   2.416   9.508 -0.3902 -0.5026 -0.0003
  100OSM   H10F10083   6.470   2.519   9.471  0.3691 -0.3003  0.4567
  100OSM   C11F10084   6.432   2.323   9.400 -0.2855 -0.0656 -0.3481
  100OSM   H11F10085   6.324   2.327   9.374 -0.4221  1.2412  0.3443
  100OSM   H11G10086   6.448   2.218   9.430  0.0168 -0.1328 -0.7434
  100OSM   C12F10087   6.503   2.359   9.263  0.3864 -0.1361  0.0137
  100OSM   H12F10088   6.472   2.275   9.198  2.1392 -0.2607 -0.6779
  100OSM   H12G10089   6.613   2.356   9.281  0.4643  0.9481 -0.2674
  100OSM   C13F10090   6.473   2.495   9.196  0.0473  0.1795  0.6209
  100OSM   H13F10091   6.520   2.572   9.260  0.9246 -1.6514  2.2272
  100OSM   H13G10092   6.362   2.494   9.196  0.0366  0.5200 -0.3128
  100OSM   C14F10093   6.525   2.503   9.053 -0.1705  0.3875 -0.3115
  100OSM   H14F10094   6.451   2.457   8.984 -0.4647 -0.1641  0.3695
  100OSM   H14G10095   6.622   2.449   9.049 -0.1097  0.3132  1.6232
  100OSM   C15F10096   6.563   2.647   9.022 -0.2557 -0.4180  0.3950
  100OSM   H15F10097   6.658   2.675   9.072  1.0938 -2.1062 -1.1463
  100OSM   H15G10098   6.486   2.715   9.064  2.0980  3.0242 -0.6050
  100OSM   C16F10099   6.589   2.678   8.880 -1.1156  0.1424 -0.3325
  100OSM   H16F10100   6.498   2.678   8.817 -2.2963 -0.1208  1.3512
  100OSM   H16G10101   6.663   2.605   8.840  0.4228  1.0206  0.8535
  100OSM   C17F10102   6.656   2.812   8.856 -0.1459 -0.2130 -0.5322
  100OSM   H17F10103   6.735   2.816   8.934 -1.7113  0.5919  1.0352
  100OSM   H17G10104   6.570   2.879   8.876  0.4894  0.5103 -0.1605
  100OSM   C18F10105   6.708   2.846   8.718 -0.3377 -0.1213 -0.5601
  100OSM   H18F10106   6.759   2.757   8.676 -2.2255 -1.8296  0.7242
  100OSM   H18G10107   6.779   2.932   8.727 -0.1648 -0.2935 -0.2566
  100OSM   H18H10108   6.625   2.889   8.657  0.6463  0.9877 -1.1546
  101OSM      N10109   1.661   3.178  10.663  0.3420 -0.6026 -0.3990
  101OSM    C1510110   1.676   3.198  10.811  0.3067 -0.6240 -0.0979
  101OSM   H15A10111   1.763   3.161  10.864 -1.1928 -0.9638  2.2093
  101OSM   H15B10112   1.593   3.152  10.862  0.2687  1.4125  1.7767
  101OSM   H15C10113   1.683   3.306  10.820 -3.3563 -0.1674 -2.1284
  101OSM    C1410114   1.663   3.031  10.634  0.4887 -0.4971  0.3942
  101OSM   H14A10115   1.763   3.000  10.660  0.8002  0.3099  0.1413
  101OSM   H14B10116   1.631   3.008  10.533  0.2215 -1.5574  0.7028
  101OSM   H14C10117   1.596   2.975  10.699 -0.2242 -0.9497 -0.7138
  101OSM    C1310118   1.536   3.237  10.608 -0.6427 -0.1020 -0.3021
  101OSM   H13A10119   1.525   3.342  10.632 -2.7980 -0.8670  2.3039
  101OSM   H13B10120   1.445   3.195  10.649 -0.3468 -0.1194  0.3415
  101OSM   H13C10121   1.520   3.227  10.502 -0.8505  1.3822 -0.4249
  101OSM    C1210122   1.776   3.246  10.587  0.4150 -0.3739 -0.4312
  101OSM   H12A10123   1.779   3.346  10.628 -2.2665 -0.4817  0.1053
  101OSM   H12B10124   1.747   3.247  10.483 -1.2090 -3.0939 -0.0590
  101OSM    C1110125   1.916   3.184  10.600 -0.1374 -0.0886  0.2367
  101OSM   H11A10126   1.984   3.250  10.542 -2.8891  1.6222 -1.1104
  101OSM   H11B10127   1.917   3.081  10.557  0.7103  0.6083 -1.4649
  101OSM      P10128   2.044   3.061  10.805 -0.2555  0.0883  0.2648
  101OSM    O1310129   2.128   3.120  10.913 -0.1689  1.0140  0.0386
  101OSM    O1410130   1.956   2.950  10.845  0.1230 -0.6448 -0.2522
  101OSM    O1110131   2.130   3.005  10.681  0.2399  0.4297  0.2074
  101OSM    O1210132   1.962   3.182  10.735 -0.1900  0.4169 -0.2737
  101OSM    C1S10133   2.240   3.075  10.626 -0.1101 -0.2321  0.1042
  101OSM    H1S10134   2.315   3.082  10.707  0.6215  1.1014 -0.6737
  101OSM    H1T10135   2.216   3.180  10.599 -0.2212  0.7097  3.6456
  101OSM     NF10136   2.423   3.078  10.466 -0.3306 -0.1900 -0.2273
  101OSM    HNF10137   2.428   3.152  10.399 -2.4960 -1.9025 -2.3991
  101OSM    C2S10138   2.295   3.006  10.494 -1.1074 -0.1433 -0.4888
  101OSM    H2S10139   2.317   2.899  10.514 -1.1426 -0.1110 -0.2754
  101OSM    C3S10140   2.198   3.015  10.372 -0.1583 -0.1054  0.1798
  101OSM    H3S10141   2.174   3.122  10.352  0.1876 -0.1171 -0.2943
  101OSM     O310142   2.071   2.955  10.402 -0.3287 -0.1223 -0.5258
  101OSM    HO310143   2.084   2.959  10.497  0.4425 -1.1150 -0.5692
  101OSM    C4S10144   2.252   2.956  10.242  0.0050 -0.0414 -0.3762
  101OSM    H4S10145   2.293   3.030  10.173 -0.3917 -0.4582 -1.0626
  101OSM    C5S10146   2.240   2.827  10.202  0.2381 -0.1599 -0.3930
  101OSM    H5S10147   2.181   2.758  10.264  1.8404  1.3453  2.9058
  101OSM    C6S10148   2.303   2.778  10.074 -0.5640  0.1079 -0.0004
  101OSM    H6S10149   2.228   2.798   9.994  2.9803  0.1941 -3.4635
  101OSM    H6T10150   2.318   2.668  10.069 -0.2777 -0.0656  3.2927
  101OSM    C7S10151   2.429   2.841  10.020  0.4563 -0.2432 -0.5327
  101OSM    H7S10152   2.520   2.854  10.083 -1.0960 -0.0902  1.7267
  101OSM    H7T10153   2.414   2.948   9.993 -0.1711  0.3176  1.9152
  101OSM    C8S10154   2.471   2.772   9.890  0.3046 -0.1579 -0.5021
  101OSM    H8S10155   2.539   2.835   9.828  1.7844 -1.7220 -0.5041
  101OSM    H8T10156   2.379   2.747   9.832 -0.0810 -2.1023  0.9034
  101OSM    C9S10157   2.545   2.636   9.916 -0.1062  0.1008  0.3826
  101OSM    H9S10158   2.477   2.566   9.971 -1.2196  0.3080 -0.7150
  101OSM    H9T10159   2.641   2.657   9.967  0.4872 -1.4886 -0.0536
  101OSM   C10S10160   2.570   2.555   9.778 -0.7440 -0.1156 -0.0078
  101OSM   H10S10161   2.479   2.521   9.723 -0.7246 -0.4601  0.1692
  101OSM   H10T10162   2.635   2.471   9.809  0.7294  0.9564 -0.1465
  101OSM   C11S10163   2.650   2.633   9.674 -0.7879 -0.0088  0.2237
  101OSM   H11S10164   2.746   2.658   9.725 -1.1015  0.0544  0.7849
  101OSM   H11T10165   2.600   2.727   9.641 -1.9245 -0.9296 -0.6815
  101OSM   C12S10166   2.676   2.550   9.548  0.0419  0.0335 -0.1768
  101OSM   H12S10167   2.587   2.492   9.518  1.3991 -1.9524 -0.4852
  101OSM   H12T10168   2.756   2.476   9.571  0.6391  0.4517 -0.8738
  101OSM   C13S10169   2.721   2.626   9.423  0.3850  0.3604  0.0786
  101OSM   H13S10170   2.822   2.671   9.440  0.5694 -0.2933  0.7190
  101OSM   H13T10171   2.636   2.697   9.409  1.8790  2.1036 -0.4543
  101OSM   C14S10172   2.741   2.530   9.299  0.5399 -0.1868  0.5464
  101OSM   H14S10173   2.815   2.454   9.330 -0.9160 -1.0923  1.9023
  101OSM   H14T10174   2.777   2.590   9.212 -0.6623 -0.5618 -0.2244
  101OSM   C15S10175   2.619   2.451   9.254 -0.3053 -0.7622  0.3221
  101OSM   H15S10176   2.538   2.525   9.234 -0.3974 -0.9184  0.1125
  101OSM   H15T10177   2.584   2.383   9.335 -2.6674 -0.6771 -0.5805
  101OSM   C16S10178   2.644   2.367   9.123 -0.0667  0.0942 -0.3703
  101OSM   H16S10179   2.726   2.294   9.134  1.4387  1.8754  0.5979
  101OSM   H16T10180   2.668   2.433   9.037  0.3896  3.1869  2.0151
  101OSM   C17S10181   2.509   2.301   9.086  0.6070 -0.3139  0.5146
  101OSM   H17S10182   2.519   2.266   8.981 -0.8876  1.6196 -0.2913
  101OSM   H17T10183   2.431   2.380   9.085 -0.6092 -1.4844  0.7254
  101OSM   C18S10184   2.471   2.173   9.166  0.3528 -0.0732  0.7731
  101OSM   H18S10185   2.375   2.125   9.136 -0.1905  0.5041  1.5732
  101OSM   H18T10186   2.451   2.196   9.273 -1.1369 -3.5594  1.3128
  101OSM   H18U10187   2.558   2.104   9.163  2.1364  2.1328  0.2720
  101OSM    C1F10188   2.530   3.049  10.532  0.2262  0.0522  1.0006
  101OSM     OF10189   2.528   2.969  10.625  0.0476 -0.5300 -0.0677
  101OSM    C2F10190   2.655   3.128  10.497 -0.2433  0.0272 -0.5119
  101OSM    H2F10191   2.695   3.187  10.582 -1.2425  0.7549 -0.5423
  101OSM    H2G10192   2.639   3.203  10.417 -0.2171 -0.9638 -1.4557
  101OSM    C3F10193   2.773   3.025  10.460 -0.4257 -0.1253 -0.3050
  101OSM    H3F10194   2.730   2.946  10.395 -1.2551 -0.3497  0.5014
  101OSM    H3G10195   2.815   2.976  10.550 -0.1899  1.5519  0.5192
  101OSM    C4F10196   2.889   3.085  10.390  0.3482  0.3191  1.0298
  101OSM    H4F10197   2.970   3.010  10.379  0.5246  0.7306 -0.4916
  101OSM    H4G10198   2.935   3.159  10.458  0.7825  0.1793  0.8859
  101OSM    C5F10199   2.862   3.162  10.261 -1.0292  0.5866  1.1347
  101OSM    H5F10200   2.954   3.219  10.237 -0.4877 -0.9844 -0.6356
  101OSM    H5G10201   2.772   3.228  10.261 -3.0161 -2.0080 -1.4288
  101OSM    C6F10202   2.839   3.063  10.152 -0.5238 -1.0087  0.2351
  101OSM    H6F10203   2.922   2.988  10.151  0.7753  0.3013  2.5331
  101OSM    H6G10204   2.745   3.012  10.182 -0.0608 -0.7026  2.2995
  101OSM    C7F10205   2.820   3.132  10.015  0.1286  0.1183  0.3080
  101OSM    H7F10206   2.916   3.180   9.986  0.0852 -0.8302 -1.4902
  101OSM    H7G10207   2.748   3.214  10.037 -0.7587 -0.6151  0.1836
  101OSM    C8F10208   2.770   3.045   9.900 -0.0856 -0.3318 -0.0191
  101OSM    H8F10209   2.752   3.104   9.808 -1.3558  0.0277  0.4479
  101OSM    H8G10210   2.676   2.990   9.924 -0.1892  0.1771  0.7577
  101OSM    C9F10211   2.870   2.937   9.876 -0.2840 -0.1068 -0.4504
  101OSM    H9F10212   2.895   2.872   9.961 -1.3153  0.3218  0.1903
  101OSM   C10F10213   2.940   2.925   9.762  0.3938 -0.3712 -0.6130
  101OSM   H10F10214   3.014   2.845   9.746  0.5596 -0.4007  0.3020
  101OSM   C11F10215   2.922   3.020   9.646 -0.6471 -0.1331  0.2722
  101OSM   H11F10216   2.965   3.119   9.672 -1.0059 -0.1213  0.8299
  101OSM   H11G10217   2.812   3.031   9.632 -0.0557  0.5684 -4.6157
  101OSM   C12F10218   2.986   2.966   9.514  0.2996 -0.2666  0.5955
  101OSM   H12F10219   2.923   2.881   9.481  2.3995 -1.1737 -1.1967
  101OSM   H12G10220   3.085   2.918   9.527 -0.3415 -1.5634  0.8499
  101OSM   C13F10221   3.007   3.076   9.403  0.1974 -0.1045 -0.2137
  101OSM   H13F10222   3.095   3.141   9.422 -0.0995  0.5797 -1.1706
  101OSM   H13G10223   2.915   3.138   9.412 -0.7260 -1.3052 -1.2649
  101OSM   C14F10224   3.011   3.011   9.262 -0.6307  0.4060  0.0973
  101OSM   H14F10225   2.975   3.089   9.192  0.2408  0.4972 -0.2552
  101OSM   H14G10226   2.946   2.922   9.257 -2.0798  1.5382 -1.6194
  101OSM   C15F10227   3.153   2.964   9.226 -0.2173  0.7562  0.4777
  101OSM   H15F10228   3.192   2.890   9.299  1.8534 -0.8020 -2.1224
  101OSM   H15G10229   3.217   3.055   9.229  0.2981  0.3634  1.2985
  101OSM   C16F10230   3.160   2.894   9.096 -0.0377  0.5773  0.2351
  101OSM   H16F10231   3.110   2.951   9.014  1.1290 -2.0358 -2.4069
  101OSM   H16G10232   3.095   2.805   9.111  0.4188  0.6356  2.7833
  101OSM   C17F10233   3.299   2.846   9.055  0.3328 -0.3016 -0.2649
  101OSM   H17F10234   3.288   2.798   8.956  0.9505 -1.6135  0.2966
  101OSM   H17G10235   3.333   2.765   9.122 -2.1588 -0.9806  0.2457
  101OSM   C18F10236   3.406   2.956   9.061  0.5496 -0.8738  0.4568
  101OSM   H18F10237   3.505   2.920   9.025 -0.0098 -0.5032 -1.5055
  101OSM   H18G10238   3.424   2.995   9.164  1.3391 -0.1281  0.0442
  101OSM   H18H10239   3.380   3.046   9.001  0.0369  0.4520  2.5817
  102OSM      N10240   4.469   4.682  10.889  0.5348  0.1686 -0.4038
  102OSM    C1510241   4.318   4.717  10.868 -0.3692  0.0586  0.4340
  102OSM   H15A10242   4.253   4.679  10.946  1.7039 -1.8677  1.3036
  102OSM   H15B10243   4.287   4.679  10.772  0.7908 -0.4605  0.2433
  102OSM   H15C10244   4.324   4.824  10.873  1.6493 -0.0443  1.0322
  102OSM    C1410245   4.511   4.762  11.010  0.3641 -0.7248  0.1448
  102OSM   H14A10246   4.495   4.867  10.994 -0.3739 -0.6654  1.2053
  102OSM   H14B10247   4.617   4.743  11.023  0.6758 -0.4398 -1.9149
  102OSM   H14C10248   4.455   4.725  11.095 -2.7451  2.6373 -0.3092
  102OSM    C1310249   4.478   4.530  10.915 -0.0767 -0.5941  0.2567
  102OSM   H13A10250   4.405   4.489  10.846 -0.0146 -1.0936  0.4912
  102OSM   H13B10251   4.456   4.508  11.018  0.4023 -1.0147  0.2765
  102OSM   H13C10252   4.579   4.496  10.894 -0.5083 -1.1933 -0.9434
  102OSM    C1210253   4.547   4.717  10.765 -0.4602  0.0868 -0.9526
  102OSM   H12A10254   4.536   4.822  10.742 -1.6767 -0.0967 -1.2234
  102OSM   H12B10255   4.519   4.654  10.682 -1.4225  0.3057 -0.7963
  102OSM    C1110256   4.700   4.706  10.766 -0.7207 -0.0121 -0.1906
  102OSM   H11A10257   4.753   4.722  10.670 -0.7397  0.3153 -0.1440
  102OSM   H11B10258   4.733   4.603  10.794  1.3651  0.8919  0.7505
  102OSM      P10259   4.846   4.923  10.832 -0.0312 -0.3522  0.2291
  102OSM    O1310260   4.907   4.967  10.961  0.7526 -0.2190 -0.3480
  102OSM    O1410261   4.949   4.893  10.728  0.2161  0.0737 -0.1870
  102OSM    O1110262   4.738   5.027  10.779  0.3468  0.3534  0.0568
  102OSM    O1210263   4.760   4.796  10.863  0.4297  0.2204 -0.3077
  102OSM    C1S10264   4.765   5.140  10.700 -0.1822 -0.1065  0.7403
  102OSM    H1S10265   4.866   5.181  10.723 -0.9478  1.0801  2.0522
  102OSM    H1T10266   4.689   5.217  10.723  0.9529  1.0338  0.7581
  102OSM     NF10267   4.806   5.240  10.487  0.6156  0.2596  0.3805
  102OSM    HNF10268   4.744   5.316  10.467  1.1646  1.0280  1.5419
  102OSM    C2S10269   4.746   5.122  10.550 -0.7673 -0.3273 -0.1860
  102OSM    H2S10270   4.806   5.037  10.510 -0.9688  0.9033 -3.2543
  102OSM    C3S10271   4.600   5.086  10.503  0.0654 -0.1754  0.2494
  102OSM    H3S10272   4.538   5.174  10.531 -0.9775 -0.8132 -0.0216
  102OSM     O310273   4.537   4.981  10.567 -0.0656 -0.5995  0.2402
  102OSM    HO310274   4.543   4.999  10.661  1.8830  0.0929  0.0151
  102OSM    C4S10275   4.593   5.083  10.349 -0.1183  0.3637 -0.1029
  102OSM    H4S10276   4.671   5.028  10.294 -0.4854 -2.4935  2.1080
  102OSM    C5S10277   4.486   5.133  10.281 -0.3034  0.8029 -0.0744
  102OSM    H5S10278   4.401   5.181  10.331 -2.1457 -2.9660  0.6109
  102OSM    C6S10279   4.471   5.140  10.135  0.3065  0.4108  0.5318
  102OSM    H6S10280   4.433   5.244  10.123 -2.2203 -0.7570 -2.1506
  102OSM    H6T10281   4.382   5.077  10.113 -1.2830  3.0423 -0.8104
  102OSM    C7S10282   4.595   5.114  10.043 -0.7805  0.6973 -0.4476
  102OSM    H7S10283   4.625   5.007  10.046  0.3186  0.9616 -1.4481
  102OSM    H7T10284   4.681   5.177  10.074 -2.1360  2.0631  0.6123
  102OSM    C8S10285   4.581   5.143   9.894 -0.1944 -0.1533 -0.1702
  102OSM    H8S10286   4.679   5.126   9.844 -0.6235  1.3746 -1.5603
  102OSM    H8T10287   4.573   5.252   9.872  0.4836 -0.6536 -3.0684
  102OSM    C9S10288   4.471   5.065   9.825 -0.5263  0.4895 -0.5442
  102OSM    H9S10289   4.369   5.103   9.849 -1.6558 -2.3813 -0.5727
  102OSM    H9T10290   4.483   4.960   9.857 -2.6094 -0.7649 -3.6241
  102OSM   C10S10291   4.483   5.085   9.673 -0.6962  0.7748  0.5002
  102OSM   H10S10292   4.586   5.071   9.633 -0.9518  1.4278 -0.4099
  102OSM   H10T10293   4.477   5.194   9.655 -0.2977  0.4466 -1.8339
  102OSM   C11S10294   4.372   5.013   9.606 -0.0989 -0.2320  0.0931
  102OSM   H11S10295   4.283   5.059   9.653 -1.0685 -1.0914 -0.9011
  102OSM   H11T10296   4.379   4.910   9.645  0.5941  0.2180  1.1903
  102OSM   C12S10297   4.382   5.017   9.455 -0.2851 -0.6604 -0.2544
  102OSM   H12S10298   4.338   5.116   9.428 -2.2266 -1.6193 -0.7132
  102OSM   H12T10299   4.321   4.933   9.416  1.7821 -1.5769 -1.5440
  102OSM   C13S10300   4.521   5.008   9.387 -0.4515  0.2911 -0.5512
  102OSM   H13S10301   4.564   4.912   9.422 -1.9416 -0.5278 -0.9355
  102OSM   H13T10302   4.580   5.089   9.434 -2.2889  0.4942  1.4970
  102OSM   C14S10303   4.512   5.002   9.239 -0.0456  0.3284  0.3290
  102OSM   H14S10304   4.483   5.106   9.214  1.0881  0.8688  1.2018
  102OSM   H14T10305   4.438   4.924   9.211 -0.7839  2.0173 -2.6443
  102OSM   C15S10306   4.655   4.980   9.177  0.2856 -0.5160 -0.2922
  102OSM   H15S10307   4.675   4.877   9.214  2.4005  0.8307  2.4920
  102OSM   H15T10308   4.728   5.057   9.209  1.2852 -1.2763 -0.7188
  102OSM   C16S10309   4.648   4.975   9.028  0.6038  0.5836 -0.1512
  102OSM   H16S10310   4.615   5.074   8.989  0.4293 -0.0448 -1.6146
  102OSM   H16T10311   4.569   4.905   8.993  1.4070 -0.5559  0.3014
  102OSM   C17S10312   4.779   4.928   8.962  0.6000  0.3564 -0.4322
  102OSM   H17S10313   4.799   4.827   9.005 -1.2107  0.2424  0.1866
  102OSM   H17T10314   4.857   5.003   8.983  0.5148  0.0143  1.1945
  102OSM   C18S10315   4.771   4.903   8.810 -0.7410  0.0842 -0.1545
  102OSM   H18S10316   4.704   4.977   8.760 -2.1715 -1.9485 -1.3221
  102OSM   H18T10317   4.734   4.801   8.784  1.3253 -1.2038  1.8289
  102OSM   H18U10318   4.870   4.908   8.760 -1.0427 -1.9822 -1.0049
  102OSM    C1F10319   4.931   5.260  10.489  0.0101 -0.1564 -0.6147
  102OSM     OF10320   5.011   5.181  10.543 -0.0952 -0.4827 -0.3938
  102OSM    C2F10321   4.970   5.394  10.418 -0.6992 -0.1060 -0.2311
  102OSM    H2F10322   4.957   5.471  10.497  0.3923  1.6817 -1.7394
  102OSM    H2G10323   4.889   5.409  10.344  0.0758 -0.3586 -1.1388
  102OSM    C3F10324   5.098   5.388  10.336  0.3077  0.2098  1.1360
  102OSM    H3F10325   5.189   5.368  10.396  1.0973  1.4117  0.3563
  102OSM    H3G10326   5.120   5.490  10.298 -1.0184 -0.9265 -2.9336
  102OSM    C4F10327   5.111   5.279  10.226 -0.2445 -0.4080  0.6695
  102OSM    H4F10328   5.121   5.177  10.269  0.5962 -0.9398 -0.7373
  102OSM    H4G10329   5.210   5.295  10.177 -2.1663  1.4539 -2.8317
  102OSM    C5F10330   4.996   5.267  10.130 -0.4806 -0.4256  0.6554
  102OSM    H5F10331   4.993   5.366  10.080  0.6501 -1.0047 -0.6136
  102OSM    H5G10332   4.903   5.247  10.187 -1.1191 -0.5034 -0.3862
  102OSM    C6F10333   5.016   5.160  10.022 -0.3494  0.3405  0.5460
  102OSM    H6F10334   5.120   5.167   9.984 -1.1495 -0.3492 -1.9320
  102OSM    H6G10335   4.952   5.179   9.933  0.1019 -1.2044 -0.1228
  102OSM    C7F10336   4.982   5.018  10.070 -0.0938  0.7376  0.1695
  102OSM    H7F10337   4.879   5.035  10.108 -0.4477  0.3484 -0.6249
  102OSM    H7G10338   5.049   4.988  10.154 -0.8865 -0.1973  0.4779
  102OSM    C8F10339   4.974   4.906   9.970  0.3245  0.2715  0.9439
  102OSM    H8F10340   4.953   4.817  10.032 -0.4620 -0.5897 -0.5269
  102OSM    H8G10341   5.066   4.887   9.911  0.7408  2.0818  0.9886
  102OSM    C9F10342   4.856   4.899   9.872 -0.4143  1.0028  0.1764
  102OSM    H9F10343   4.765   4.858   9.917 -0.4533  2.0992  1.1076
  102OSM   C10F10344   4.849   4.932   9.740  0.0851 -0.5147 -0.0461
  102OSM   H10F10345   4.759   4.927   9.676  2.5832 -0.0422 -3.8096
  102OSM   C11F10346   4.966   4.985   9.663  0.1881 -0.3680  0.5664
  102OSM   H11F10347   5.045   5.012   9.736 -1.8673 -2.1901  3.5771
  102OSM   H11G10348   4.936   5.077   9.609  1.7265  1.3057  2.4741
  102OSM   C12F10349   5.017   4.884   9.564  0.2227  0.2554  0.0235
  102OSM   H12F10350   5.046   4.793   9.621 -2.8445  0.2543  1.7011
  102OSM   H12G10351   5.110   4.917   9.514 -1.3941 -0.1046 -3.3237
  102OSM   C13F10352   4.906   4.842   9.459  0.4096 -0.0679  0.2094
  102OSM   H13F10353   4.864   4.934   9.414  1.0041  0.2067  0.2056
  102OSM   H13G10354   4.829   4.784   9.515  1.3051 -2.1539 -0.6539
  102OSM   C14F10355   4.968   4.757   9.347 -0.5410  0.5767 -0.4823
  102OSM   H14F10356   4.880   4.714   9.295 -0.0272 -1.6677  0.4347
  102OSM   H14G10357   5.024   4.672   9.390 -0.5628  0.7195 -0.1735
  102OSM   C15F10358   5.063   4.837   9.261 -0.2664 -0.1300  0.4932
  102OSM   H15F10359   5.159   4.850   9.316 -1.1420  0.8199  1.8176
  102OSM   H15G10360   5.022   4.939   9.244  0.6229  0.3003  0.8998
  102OSM   C16F10361   5.080   4.760   9.123 -0.2523  0.0089 -0.3714
  102OSM   H16F10362   4.977   4.747   9.082 -1.0266 -0.1595  1.5944
  102OSM   H16G10363   5.120   4.660   9.148  0.1637 -0.1046 -1.4509
  102OSM   C17F10364   5.181   4.837   9.028  0.2465 -1.3357  0.2176
  102OSM   H17F10365   5.276   4.853   9.083 -0.7324  1.6798  1.1352
  102OSM   H17G10366   5.134   4.937   9.023  0.1734 -1.3112  1.2839
  102OSM   C18F10367   5.189   4.783   8.889  0.3383 -0.7008 -0.2602
  102OSM   H18F10368   5.084   4.781   8.853  0.3356  1.0217 -0.4131
  102OSM   H18G10369   5.234   4.682   8.893  4.5035  1.0369 -0.1942
  102OSM   H18H10370   5.242   4.855   8.823  0.0370  1.0013  1.3004
  103OSM      N10371   3.625   0.852  11.160 -0.7002  0.3055  0.3676
  103OSM    C1510372   3.686   0.974  11.227  0.3249  0.1276 -0.1645
  103OSM   H15A10373   3.733   0.948  11.321 -3.1804  0.4826  1.7636
  103OSM   H15B10374   3.610   1.043  11.259  0.7168 -0.0686  1.2303
  103OSM   H15C10375   3.753   1.036  11.169 -0.8049 -1.1683 -2.9485
  103OSM    C1410376   3.729   0.764  11.107  0.5154 -0.4972 -0.2368
  103OSM   H14A10377   3.797   0.739  11.188 -1.5782  0.2681  1.8024
  103OSM   H14B10378   3.791   0.820  11.038 -0.1634  0.4820 -0.0676
  103OSM   H14C10379   3.700   0.677  11.051 -0.0734 -2.0117  2.3705
  103OSM    C1310380   3.533   0.786  11.259  0.2585 -0.8717  0.2613
  103OSM   H13A10381   3.477   0.712  11.202 -0.2371 -0.0147 -0.3706
  103OSM   H13B10382   3.462   0.852  11.307  1.2588  0.5290 -0.1807
  103OSM   H13C10383   3.593   0.730  11.329  1.4222 -0.0946 -0.0951
  103OSM    C1210384   3.548   0.912  11.044  0.6216 -0.0016 -0.0537
  103OSM   H12A10385   3.480   0.987  11.081  1.1123 -0.1682  1.2242
  103OSM   H12B10386   3.497   0.833  10.992 -0.9844  0.9627  0.0280
  103OSM    C1110387   3.621   1.008  10.942  0.0614  0.0865 -0.2183
  103OSM   H11A10388   3.666   1.092  10.999 -1.4441  0.2891  0.6959
  103OSM   H11B10389   3.551   1.060  10.873 -0.3856 -2.0783 -1.4407
  103OSM      P10390   3.680   0.818  10.774 -0.5506 -0.0153 -0.0242
  103OSM    O1310391   3.805   0.753  10.728 -0.7513  0.4292 -0.1024
  103OSM    O1410392   3.580   0.724  10.819 -0.1361  0.2355 -0.4656
  103OSM    O1110393   3.622   0.900  10.656  0.2302 -0.1690  0.1205
  103OSM    O1210394   3.724   0.933  10.879 -0.6542 -0.0133 -0.1212
  103OSM    C1S10395   3.688   1.017  10.603  0.0395  0.2840  0.3267
  103OSM    H1S10396   3.796   0.998  10.583  0.4937 -0.1658  2.9962
  103OSM    H1T10397   3.676   1.108  10.665 -0.9515  0.6488 -0.3874
  103OSM     NF10398   3.698   1.145  10.389 -0.2653 -0.2020  0.3782
  103OSM    HNF10399   3.662   1.237  10.384 -0.1770 -0.2159 -0.6187
  103OSM    C2S10400   3.626   1.039  10.463  0.8189 -0.4812  0.5554
  103OSM    H2S10401   3.630   0.945  10.404  1.4380  0.8801 -1.6230
  103OSM    C3S10402   3.477   1.089  10.474 -0.1319 -0.3976 -0.1178
  103OSM    H3S10403   3.481   1.186  10.528  1.4144 -0.4151 -0.1781
  103OSM     O310404   3.393   1.013  10.560 -0.3207  0.1115  0.0511
  103OSM    HO310405   3.450   0.954  10.610 -2.4492 -0.4572  1.9097
  103OSM    C4S10406   3.415   1.098  10.338 -0.1821 -0.6080  0.6488
  103OSM    H4S10407   3.375   1.005  10.294 -4.3973  1.9343 -1.2096
  103OSM    C5S10408   3.386   1.205  10.267 -0.1116 -0.1955  0.4843
  103OSM    H5S10409   3.403   1.302  10.314 -1.0543  0.5789 -0.7367
  103OSM    C6S10410   3.323   1.193  10.131 -0.5775 -0.5053  0.1647
  103OSM    H6S10411   3.218   1.228  10.139 -0.7102 -0.7734 -0.3851
  103OSM    H6T10412   3.318   1.089  10.093  1.5046 -0.3408 -0.6420
  103OSM    C7S10413   3.396   1.280  10.024  0.1150  0.2870  0.8595
  103OSM    H7S10414   3.501   1.252  10.001 -0.7476 -1.5201 -1.0331
  103OSM    H7T10415   3.403   1.386  10.057 -1.4213 -0.3854  3.4825
  103OSM    C8S10416   3.311   1.267   9.891 -0.2308 -0.2423 -0.1227
  103OSM    H8S10417   3.208   1.303   9.916 -0.1055  1.0288 -1.4009
  103OSM    H8T10418   3.305   1.161   9.859  0.6129  0.4671 -2.7552
  103OSM    C9S10419   3.363   1.360   9.776 -0.1095 -0.5629  0.6879
  103OSM    H9S10420   3.462   1.314   9.758 -0.3546 -0.6453 -0.4764
  103OSM    H9T10421   3.361   1.465   9.814  1.1947 -0.2984  0.0302
  103OSM   C10S10422   3.272   1.351   9.653  0.4771  0.2055  0.4778
  103OSM   H10S10423   3.190   1.422   9.674  1.8680  1.5907  1.3861
  103OSM   H10T10424   3.229   1.249   9.646 -0.7083  0.8623 -2.7671
  103OSM   C11S10425   3.338   1.386   9.522 -0.3035 -0.3894 -0.8272
  103OSM   H11S10426   3.423   1.315   9.511 -0.9629 -1.4999  1.0181
  103OSM   H11T10427   3.366   1.493   9.514 -0.6007 -0.1575  1.1575
  103OSM   C12S10428   3.232   1.361   9.413  0.3530  0.6762 -0.6789
  103OSM   H12S10429   3.137   1.410   9.444  0.7254  0.0652  1.5281
  103OSM   H12T10430   3.210   1.252   9.412 -0.9875  0.8933  1.6314
  103OSM   C13S10431   3.289   1.409   9.280  0.3044  0.3890  0.1089
  103OSM   H13S10432   3.223   1.377   9.196  1.2980 -0.4505 -0.3615
  103OSM   H13T10433   3.381   1.354   9.252  0.2126  0.0371  0.4997
  103OSM   C14S10434   3.318   1.559   9.264  0.1196  0.0689 -0.9001
  103OSM   H14S10435   3.417   1.574   9.312 -0.1352 -0.7203 -0.0961
  103OSM   H14T10436   3.251   1.626   9.322 -0.6781  0.0997 -1.8571
  103OSM   C15S10437   3.313   1.599   9.116  0.0988  0.3717 -0.1400
  103OSM   H15S10438   3.212   1.591   9.071 -0.2730  2.1566  0.3776
  103OSM   H15T10439   3.380   1.527   9.064  1.0711  0.5223  0.8690
  103OSM   C16S10440   3.369   1.741   9.097  0.5704  0.2144 -0.2269
  103OSM   H16S10441   3.473   1.730   9.134  0.1172 -0.7043  0.8159
  103OSM   H16T10442   3.331   1.828   9.155  1.6711  1.8946 -1.9636
  103OSM   C17S10443   3.356   1.798   8.951 -0.6641  0.3513 -0.0244
  103OSM   H17S10444   3.248   1.795   8.926 -0.5678 -2.3883 -0.3279
  103OSM   H17T10445   3.418   1.728   8.891 -0.5414  1.9665 -1.8252
  103OSM   C18S10446   3.399   1.947   8.937  0.4990  0.1813  0.2178
  103OSM   H18S10447   3.362   1.995   8.844 -1.0418 -1.5636 -0.0939
  103OSM   H18T10448   3.509   1.964   8.933  0.6504 -1.0339 -1.5742
  103OSM   H18U10449   3.376   1.997   9.033 -2.3512 -2.0991  0.7880
  103OSM    C1F10450   3.815   1.112  10.334 -0.2255  0.0477  0.1616
  103OSM     OF10451   3.858   0.996  10.332  0.1178  0.4301 -0.3827
  103OSM    C2F10452   3.901   1.218  10.271  0.4658  0.6140  0.2546
  103OSM    H2F10453   3.979   1.237  10.347 -0.8006 -0.1107  1.7755
  103OSM    H2G10454   3.850   1.317  10.265  0.6843  0.9055  2.6298
  103OSM    C3F10455   3.956   1.181  10.130 -0.4124  0.3566 -0.0362
  103OSM    H3F10456   3.918   1.260  10.063 -1.4503  1.0578  1.3501
  103OSM    H3G10457   3.916   1.083  10.094  1.5393 -0.4366 -0.1287
  103OSM    C4F10458   4.108   1.179  10.129 -0.2292 -0.1357  0.1048
  103OSM    H4F10459   4.153   1.115  10.208  1.2888  0.1850 -0.4882
  103OSM    H4G10460   4.140   1.285  10.142  0.7504 -0.1699 -1.8485
  103OSM    C5F10461   4.163   1.125  10.001  0.3428 -0.6060 -0.2637
  103OSM    H5F10462   4.101   1.035   9.979 -2.0609  0.3872  2.1217
  103OSM    H5G10463   4.272   1.108  10.016  0.5560 -0.8172 -1.9529
  103OSM    C6F10464   4.131   1.219   9.879 -0.5073  0.4867 -0.0689
  103OSM    H6F10465   4.217   1.192   9.814 -1.5340 -0.7582 -0.9554
  103OSM    H6G10466   4.151   1.323   9.910 -0.4710  0.9928 -1.7592
  103OSM    C7F10467   3.991   1.212   9.829 -0.0932 -0.1520  0.4570
  103OSM    H7F10468   3.928   1.293   9.872  0.0050 -0.4732  1.2130
  103OSM    H7G10469   3.938   1.117   9.851  1.0271 -1.3544 -1.8951
  103OSM    C8F10470   3.990   1.228   9.670  0.0211  0.9475  0.0221
  103OSM    H8F10471   4.041   1.324   9.644  0.9282  0.0793 -1.4813
  103OSM    H8G10472   3.884   1.250   9.641 -1.1165 -0.2126  3.1359
  103OSM    C9F10473   4.036   1.106   9.589 -0.6111  0.1827  0.1668
  103OSM    H9F10474   3.984   1.014   9.619 -0.5901 -0.5216 -1.8915
  103OSM   C10F10475   4.136   1.097   9.497  0.2279 -0.9372 -0.2956
  103OSM   H10F10476   4.159   1.000   9.450  1.1894 -1.4326  1.1772
  103OSM   C11F10477   4.231   1.201   9.452 -0.2042 -0.3277 -0.0661
  103OSM   H11F10478   4.336   1.175   9.480 -1.1730 -0.2095  3.9063
  103OSM   H11G10479   4.199   1.300   9.490 -0.3373 -0.1038 -0.7439
  103OSM   C12F10480   4.224   1.206   9.296  0.0460  0.0154 -0.0545
  103OSM   H12F10481   4.252   1.112   9.243  0.9293 -0.6564  1.5587
  103OSM   H12G10482   4.284   1.284   9.245 -0.2520 -0.0791 -0.5456
  103OSM   C13F10483   4.083   1.242   9.250 -0.0001 -0.3472 -0.8542
  103OSM   H13F10484   4.027   1.315   9.312 -2.3235 -2.9515  0.2307
  103OSM   H13G10485   4.021   1.149   9.248 -2.2615  1.1416 -1.7717
  103OSM   C14F10486   4.093   1.309   9.113 -0.4413  0.4328 -0.3595
  103OSM   H14F10487   4.175   1.383   9.125 -0.6796  0.7878 -0.8898
  103OSM   H14G10488   4.000   1.367   9.094 -1.5663 -1.3651 -0.4884
  103OSM   C15F10489   4.107   1.210   8.993 -0.5357  0.0261  0.5325
  103OSM   H15F10490   4.038   1.122   8.997  0.5228 -0.8319  0.2359
  103OSM   H15G10491   4.213   1.176   8.990 -0.3021  0.4601  2.9852
  103OSM   C16F10492   4.091   1.288   8.860  0.2417  0.2820  0.1732
  103OSM   H16F10493   4.176   1.359   8.856  0.9878 -0.6225 -0.0514
  103OSM   H16G10494   4.001   1.353   8.869  1.0599  1.0853  3.1153
  103OSM   C17F10495   4.078   1.210   8.728  0.3421  0.3714 -0.2797
  103OSM   H17F10496   4.084   1.283   8.645  0.7938  1.1740  0.4512
  103OSM   H17G10497   3.979   1.163   8.745 -0.2050  2.0878  1.4724
  103OSM   C18F10498   4.182   1.096   8.712 -0.3437 -0.9746 -0.0331
  103OSM   H18F10499   4.156   1.021   8.789 -0.6413  0.2868  1.1176
  103OSM   H18G10500   4.283   1.135   8.733 -0.3805 -2.0646  2.3197
  103OSM   H18H10501   4.177   1.043   8.614 -0.0667 -0.0662 -0.5504
  104OSM      N10502   5.253   0.390  11.272 -0.2191  0.2001  0.2964
  104OSM    C1510503   5.251   0.308  11.395 -0.2468 -0.4653 -0.1549
  104OSM   H15A10504   5.155   0.259  11.403 -0.3610  0.0712  2.0453
  104OSM   H15B10505   5.275   0.363  11.485  0.2280  1.8305 -1.6560
  104OSM   H15C10506   5.323   0.228  11.392  2.5096  1.9405 -0.4059
  104OSM    C1410507   5.149   0.503  11.293  0.7159  0.2407 -0.2124
  104OSM   H14A10508   5.050   0.461  11.304  0.8304  0.3331  1.3159
  104OSM   H14B10509   5.133   0.561  11.203  0.3036  0.8524  0.2507
  104OSM   H14C10510   5.179   0.569  11.374  0.9496 -1.0476  0.7660
  104OSM    C1310511   5.386   0.449  11.248 -0.3341  0.2029  0.6939
  104OSM   H13A10512   5.416   0.500  11.339  0.6536  0.2073  0.3783
  104OSM   H13B10513   5.379   0.524  11.170  0.9787 -0.1886  0.1800
  104OSM   H13C10514   5.458   0.375  11.215 -0.4652  0.7036 -0.7593
  104OSM    C1210515   5.214   0.298  11.159  0.0886 -0.1002  0.3641
  104OSM   H12A10516   5.128   0.241  11.190  1.3643 -3.0315 -1.2330
  104OSM   H12B10517   5.292   0.224  11.145 -2.0878 -2.4681  0.3398
  104OSM    C1110518   5.180   0.355  11.014 -0.0292 -0.2076 -0.2326
  104OSM   H11A10519   5.093   0.425  11.023 -0.4593 -0.5430 -1.6147
  104OSM   H11B10520   5.132   0.271  10.959  0.1546 -0.4165 -0.0764
  104OSM      P10521   5.395   0.300  10.889  0.4212  0.2336 -0.0204
  104OSM    O1310522   5.528   0.356  10.917  0.3426 -0.3928  0.2288
  104OSM    O1410523   5.368   0.160  10.931 -0.1571 -0.3138  0.0790
  104OSM    O1110524   5.369   0.293  10.733  0.0160 -0.8594  0.0738
  104OSM    O1210525   5.293   0.408  10.946 -0.6108 -0.5493 -0.1291
  104OSM    C1S10526   5.246   0.339  10.676 -0.2410 -0.3854 -0.2608
  104OSM    H1S10527   5.192   0.419  10.731 -0.7791 -0.6719 -0.3771
  104OSM    H1T10528   5.177   0.252  10.670 -0.3983 -0.2871  0.0885
  104OSM     NF10529   5.146   0.428  10.469 -0.0871 -0.3144  0.1520
  104OSM    HNF10530   5.092   0.365  10.413 -1.4675 -0.8781  2.0548
  104OSM    C2S10531   5.267   0.383  10.531  0.1259  0.2546  0.2310
  104OSM    H2S10532   5.333   0.472  10.542 -0.9171  0.5817  4.8731
  104OSM    C3S10533   5.342   0.269  10.462 -0.2262  0.6577  0.0300
  104OSM    H3S10534   5.287   0.173  10.467  0.8709 -0.0360 -1.1646
  104OSM     O310535   5.474   0.239  10.511 -0.3787 -0.3027 -0.2807
  104OSM    HO310536   5.463   0.254  10.605 -0.2106 -5.3959  0.7113
  104OSM    C4S10537   5.372   0.297  10.314 -0.6066  0.0040 -0.3198
  104OSM    H4S10538   5.421   0.393  10.292  2.2366 -1.4267 -0.4430
  104OSM    C5S10539   5.359   0.210  10.207  0.2070  0.3258  0.2693
  104OSM    H5S10540   5.325   0.110  10.240  0.6917  0.8270  2.4148
  104OSM    C6S10541   5.397   0.240  10.061 -0.1065  1.0023  0.2876
  104OSM    H6S10542   5.315   0.227   9.987  0.5861 -1.5438 -0.0920
  104OSM    H6T10543   5.477   0.172  10.025 -0.2325  0.1382  1.5950
  104OSM    C7S10544   5.452   0.381  10.037  0.3468 -0.1293 -0.4551
  104OSM    H7S10545   5.532   0.406  10.110 -0.3700  2.3354 -0.4421
  104OSM    H7T10546   5.374   0.455  10.067  0.2283 -1.2376  2.0768
  104OSM    C8S10547   5.521   0.396   9.900 -0.0444 -0.5008  0.4776
  104OSM    H8S10548   5.585   0.306   9.893 -0.7205 -1.0646  1.4860
  104OSM    H8T10549   5.591   0.483   9.896 -0.0640 -0.5497 -1.3704
  104OSM    C9S10550   5.424   0.395   9.779  0.2820 -0.2439  0.2918
  104OSM    H9S10551   5.329   0.451   9.794  0.7660  0.5856  0.3032
  104OSM    H9T10552   5.400   0.292   9.744  0.5641 -0.0033 -0.6106
  104OSM   C10S10553   5.485   0.471   9.666  0.3569 -0.6102  0.3205
  104OSM   H10S10554   5.576   0.415   9.636  1.3584  0.1655  1.8673
  104OSM   H10T10555   5.519   0.571   9.699  0.5161  0.7951 -3.7535
  104OSM   C11S10556   5.399   0.484   9.545  0.5806 -0.0014  0.6332
  104OSM   H11S10557   5.304   0.539   9.567  0.4660 -0.0679  0.3123
  104OSM   H11T10558   5.359   0.385   9.515 -1.5258  0.8541  0.5290
  104OSM   C12S10559   5.470   0.548   9.420 -0.6033 -0.4475 -0.2329
  104OSM   H12S10560   5.565   0.491   9.411 -1.4353 -2.1792  1.4400
  104OSM   H12T10561   5.502   0.651   9.450  0.4430 -0.6483 -0.6234
  104OSM   C13S10562   5.388   0.555   9.289 -0.2636 -0.6011 -0.5185
  104OSM   H13S10563   5.341   0.654   9.267  1.3163  1.0585  3.0459
  104OSM   H13T10564   5.302   0.487   9.304 -1.9392  2.1314  3.0598
  104OSM   C14S10565   5.451   0.514   9.160 -0.8644  0.2863 -0.2853
  104OSM   H14S10566   5.525   0.432   9.170  0.8118  1.7535 -0.4097
  104OSM   H14T10567   5.491   0.611   9.123  0.4006 -0.5666 -1.2033
  104OSM   C15S10568   5.359   0.476   9.045 -1.0229  0.3734  0.0344
  104OSM   H15S10569   5.292   0.561   9.023  0.9917  1.8253 -0.6184
  104OSM   H15T10570   5.312   0.377   9.064 -1.2278  0.7703  1.6700
  104OSM   C16S10571   5.431   0.462   8.906 -0.0737 -0.5824  0.7202
  104OSM   H16S10572   5.500   0.375   8.912  2.6750  1.4992  0.7069
  104OSM   H16T10573   5.488   0.557   8.895  0.7801 -1.1434  0.2153
  104OSM   C17S10574   5.338   0.436   8.792 -0.4990 -0.1093  0.0074
  104OSM   H17S10575   5.395   0.435   8.697  0.6183 -1.4867  0.6792
  104OSM   H17T10576   5.269   0.523   8.786  1.2341  1.2074 -1.3399
  104OSM   C18S10577   5.244   0.308   8.788 -0.1575 -0.5956  0.0056
  104OSM   H18S10578   5.170   0.307   8.871  1.5590 -0.2278  1.5731
  104OSM   H18T10579   5.308   0.218   8.792  2.1367  1.0473  1.6236
  104OSM   H18U10580   5.188   0.304   8.692  0.2107  0.8877 -0.2879
  104OSM    C1F10581   5.085   0.544  10.492  0.9810  0.2145 -0.4811
  104OSM     OF10582   5.136   0.632  10.563 -0.1334  0.0445  0.1442
  104OSM    C2F10583   4.941   0.559  10.447 -0.6609  0.1506  0.0140
  104OSM    H2F10584   4.892   0.603  10.537  0.5493  0.5628  0.4754
  104OSM    H2G10585   4.898   0.458  10.431 -1.0058  0.5059 -1.3864
  104OSM    C3F10586   4.917   0.646  10.323  0.1682 -0.1292  0.5258
  104OSM    H3F10587   4.979   0.737  10.314  1.3023 -1.0472 -1.2285
  104OSM    H3G10588   4.813   0.685  10.329 -0.3115 -1.1809 -0.5921
  104OSM    C4F10589   4.937   0.563  10.196  0.4427  0.9121 -0.3921
  104OSM    H4F10590   4.878   0.469  10.201  0.8278  0.7585  1.3142
  104OSM    H4G10591   5.045   0.540  10.197  0.6310  1.8556  1.8905
  104OSM    C5F10592   4.880   0.641  10.072  0.2302  0.7175  0.1983
  104OSM    H5F10593   4.945   0.730  10.056 -1.3721  1.7990 -0.3784
  104OSM    H5G10594   4.773   0.669  10.081 -0.7845 -2.8768  0.1252
  104OSM    C6F10595   4.887   0.561   9.938  0.4308  0.4059  0.7246
  104OSM    H6F10596   4.832   0.465   9.939  1.1975 -0.1132 -2.0109
  104OSM    H6G10597   4.991   0.522   9.933 -0.4055 -1.8471  0.1004
  104OSM    C7F10598   4.833   0.631   9.814 -0.6174 -0.4597 -0.1551
  104OSM    H7F10599   4.888   0.727   9.802  1.4581 -1.8791 -2.6982
  104OSM    H7G10600   4.725   0.650   9.831 -0.4941  0.7537 -0.7021
  104OSM    C8F10601   4.843   0.550   9.678  0.7363 -0.5662 -0.5078
  104OSM    H8F10602   4.787   0.607   9.601  1.2575 -0.6986 -0.9861
  104OSM    H8G10603   4.790   0.454   9.697 -3.0993  0.8195 -3.6440
  104OSM    C9F10604   4.976   0.518   9.630  0.4046 -0.9096  0.0455
  104OSM    H9F10605   5.045   0.484   9.709  1.4326  1.4563  0.2349
  104OSM   C10F10606   5.011   0.518   9.499  0.1007  0.2349 -0.6925
  104OSM   H10F10607   5.116   0.491   9.480 -0.1398 -0.9927 -0.3095
  104OSM   C11F10608   4.923   0.555   9.383 -0.3485  0.1427  0.1998
  104OSM   H11F10609   4.906   0.664   9.380 -1.2553 -0.0274 -1.4384
  104OSM   H11G10610   4.825   0.503   9.387 -0.9538  1.1148 -1.7412
  104OSM   C12F10611   4.992   0.540   9.246 -0.2561  0.1775  0.0070
  104OSM   H12F10612   5.049   0.445   9.245  2.6586  1.8609 -1.2491
  104OSM   H12G10613   5.069   0.620   9.242 -0.5853  0.5362  0.6902
  104OSM   C13F10614   4.900   0.551   9.120  0.0276 -0.3586 -0.9450
  104OSM   H13F10615   4.854   0.652   9.112 -0.1484 -0.4589 -1.2084
  104OSM   H13G10616   4.817   0.478   9.133 -0.0236 -0.2605 -0.7150
  104OSM   C14F10617   4.981   0.524   8.989  0.2185 -0.2261 -0.2539
  104OSM   H14F10618   5.035   0.427   8.985  0.5445 -0.0147 -1.0259
  104OSM   H14G10619   5.054   0.607   8.978  1.5486 -1.5887 -1.9732
  104OSM   C15F10620   4.884   0.553   8.865 -0.4586 -0.0749  0.3493
  104OSM   H15F10621   4.793   0.492   8.889 -0.9275  0.9207  1.1502
  104OSM   H15G10622   4.939   0.523   8.773 -2.2925 -1.5908 -0.2869
  104OSM   C16F10623   4.855   0.706   8.845  0.5505 -0.0778 -0.5602
  104OSM   H16F10624   4.951   0.762   8.849 -0.0120  0.8218  0.4051
  104OSM   H16G10625   4.789   0.743   8.926  1.6623 -0.4711  0.5450
  104OSM   C17F10626   4.798   0.731   8.707 -0.5682  0.0399 -0.3179
  104OSM   H17F10627   4.759   0.835   8.703 -1.8281 -0.3252  1.9252
  104OSM   H17G10628   4.710   0.667   8.684 -1.0475  0.9296 -0.9575
  104OSM   C18F10629   4.902   0.720   8.595  0.5608 -0.3024  0.3092
  104OSM   H18F10630   4.856   0.743   8.496 -3.7173 -0.6436  2.1292
  104OSM   H18G10631   4.969   0.632   8.609  1.7756  0.8281  1.7232
  104OSM   H18H10632   4.966   0.808   8.612 -0.4247  0.8628 -1.7102
  105OSM      N10633   2.130   3.914  10.698 -0.0241  0.8966 -0.1746
  105OSM    C1510634   2.184   3.866  10.571 -0.0381 -0.0560  0.5311
  105OSM   H15A10635   2.121   3.897  10.489  0.7369  0.5252  0.1410
  105OSM   H15B10636   2.196   3.759  10.569  1.6893  0.1119  0.8136
  105OSM   H15C10637   2.279   3.910  10.544 -0.4675  0.2840 -0.4400
  105OSM    C1410638   2.237   3.924  10.800  0.8966  0.2237  0.1414
  105OSM   H14A10639   2.320   3.971  10.750  0.8806 -2.2363 -2.3385
  105OSM   H14B10640   2.281   3.833  10.838  0.0107 -0.3007 -0.0530
  105OSM   H14C10641   2.205   3.977  10.889 -0.5485  0.9135 -0.7624
  105OSM    C1310642   2.094   4.060  10.672  0.2833  0.3806 -0.2727
  105OSM   H13A10643   2.029   4.064  10.586  1.3709 -1.2796 -1.1833
  105OSM   H13B10644   2.181   4.123  10.661  0.0153  1.3021  2.4847
  105OSM   H13C10645   2.035   4.099  10.753  0.0445  1.3913 -0.9281
  105OSM    C1210646   2.019   3.822  10.748  0.6845  0.1545 -0.2277
  105OSM   H12A10647   2.003   3.835  10.854 -0.7681 -3.3912  0.0505
  105OSM   H12B10648   2.056   3.721  10.743 -1.5852 -0.7368  0.2806
  105OSM    C1110649   1.877   3.831  10.688  0.3054  0.7013 -0.1909
  105OSM   H11A10650   1.813   3.751  10.731  3.6189 -1.7528  0.3502
  105OSM   H11B10651   1.888   3.813  10.579 -2.2552  1.3913 -0.5967
  105OSM      P10652   1.750   3.987  10.861 -0.2434  0.3907 -0.6278
  105OSM    O1310653   1.830   3.924  10.967 -0.1813  0.8264 -0.2504
  105OSM    O1410654   1.734   4.136  10.855  0.1077  0.7640 -0.1291
  105OSM    O1110655   1.608   3.925  10.865 -0.2795 -0.0967  0.0869
  105OSM    O1210656   1.806   3.950  10.714 -0.3687 -0.1272 -0.1144
  105OSM    C1S10657   1.502   3.960  10.771 -0.4927 -0.3875 -0.7123
  105OSM    H1S10658   1.491   4.069  10.757  0.5780  0.1243  2.1614
  105OSM    H1T10659   1.405   3.945  10.824  1.4557  0.9765  3.4273
  105OSM     NF10660   1.393   3.947  10.550  0.2397  0.2583 -0.5110
  105OSM    HNF10661   1.302   3.908  10.554  0.2108  0.3028 -0.7714
  105OSM    C2S10662   1.500   3.889  10.630 -0.2943 -0.2132 -0.5903
  105OSM    H2S10663   1.596   3.907  10.578  0.9686 -0.9788  1.4169
  105OSM    C3S10664   1.483   3.736  10.656  0.1531 -0.1463 -0.1667
  105OSM    H3S10665   1.378   3.730  10.693 -0.0221 -0.0348 -0.6467
  105OSM     O310666   1.567   3.684  10.752 -0.8433  0.1766  0.2910
  105OSM    HO310667   1.616   3.760  10.783 -0.2234  0.2050 -0.7562
  105OSM    C4S10668   1.504   3.665  10.531 -0.7991  0.5241  0.0066
  105OSM    H4S10669   1.603   3.675  10.483  0.1441 -1.8026  1.4273
  105OSM    C5S10670   1.411   3.592  10.471 -0.2867  0.6956 -0.1322
  105OSM    H5S10671   1.305   3.584  10.501  0.0006  0.7607  0.9025
  105OSM    C6S10672   1.430   3.514  10.344  0.5418 -0.2967  0.6714
  105OSM    H6S10673   1.377   3.416  10.351 -0.8078  0.2129 -1.7887
  105OSM    H6T10674   1.533   3.513  10.302 -0.3918  0.9677 -1.7395
  105OSM    C7S10675   1.360   3.596  10.230  0.1067 -1.0216  0.2146
  105OSM    H7S10676   1.408   3.695  10.215 -3.1340  0.4021 -1.1932
  105OSM    H7T10677   1.259   3.617  10.271  1.4233  0.7184  2.7295
  105OSM    C8S10678   1.337   3.512  10.104 -0.7800 -0.3704  0.2898
  105OSM    H8S10679   1.233   3.475  10.093 -0.7718 -0.4509  0.4803
  105OSM    H8T10680   1.403   3.423  10.107 -2.2372 -1.4471  0.5578
  105OSM    C9S10681   1.369   3.596   9.979  0.4710  0.4292 -0.2209
  105OSM    H9S10682   1.341   3.704   9.987 -0.7861  0.4075 -3.4645
  105OSM    H9T10683   1.311   3.549   9.897  1.2550  2.3333 -1.9089
  105OSM   C10S10684   1.506   3.577   9.930  0.9072  0.2454  0.2107
  105OSM   H10S10685   1.516   3.467   9.920 -0.7952  0.0566  0.3570
  105OSM   H10T10686   1.579   3.607  10.008 -2.6904 -0.9652  4.2359
  105OSM   C11S10687   1.503   3.636   9.788 -1.0381 -0.5227  0.1016
  105OSM   H11S10688   1.514   3.746   9.785  1.2428 -0.7719 -2.5075
  105OSM   H11T10689   1.410   3.612   9.733  0.3875  0.2124 -2.6883
  105OSM   C12S10690   1.614   3.568   9.713  0.6799  0.0685 -0.1230
  105OSM   H12S10691   1.622   3.461   9.740  3.0241  0.0932 -0.5906
  105OSM   H12T10692   1.712   3.619   9.728  0.5443  1.4799 -3.5593
  105OSM   C13S10693   1.582   3.574   9.561 -0.5678 -0.0269  0.6195
  105OSM   H13S10694   1.606   3.680   9.537  2.5994 -0.9639 -0.7196
  105OSM   H13T10695   1.475   3.554   9.539 -0.6677  1.8538 -0.7198
  105OSM   C14S10696   1.668   3.485   9.473 -0.5839  0.1259  0.1691
  105OSM   H14S10697   1.660   3.382   9.515 -0.7810 -0.1039 -0.4291
  105OSM   H14T10698   1.773   3.511   9.499  0.1626 -0.2016 -2.4601
  105OSM   C15S10699   1.649   3.498   9.323 -0.6288  0.0767  0.3675
  105OSM   H15S10700   1.668   3.600   9.284 -1.3446  0.4599  1.0161
  105OSM   H15T10701   1.545   3.480   9.290 -0.7287 -1.1932  1.3318
  105OSM   C16S10702   1.740   3.400   9.248  0.4858  0.2164  0.0430
  105OSM   H16S10703   1.705   3.298   9.274 -0.5298  0.5151 -0.1362
  105OSM   H16T10704   1.843   3.400   9.289  0.8604 -1.0131 -0.8496
  105OSM   C17S10705   1.733   3.403   9.100 -0.0735 -0.0492  0.7253
  105OSM   H17S10706   1.762   3.501   9.055 -2.8885 -0.1327 -1.3581
  105OSM   H17T10707   1.627   3.392   9.069 -0.3264 -0.2260  1.6440
  105OSM   C18S10708   1.820   3.297   9.032 -0.1837 -0.0473  0.7486
  105OSM   H18S10709   1.924   3.336   9.034 -0.5842  1.1720 -0.6047
  105OSM   H18T10710   1.787   3.287   8.926  2.3789 -1.7575  0.0792
  105OSM   H18U10711   1.821   3.201   9.086 -0.6706 -1.2738 -1.3651
  105OSM    C1F10712   1.407   4.069  10.496  0.1474 -0.1460  0.0475
  105OSM     OF10713   1.497   4.147  10.521 -0.1890  0.6670 -0.2046
  105OSM    C2F10714   1.289   4.103  10.414 -0.0043  0.1607  0.3919
  105OSM    H2F10715   1.240   4.193  10.456  0.3435 -0.0310  1.2163
  105OSM    H2G10716   1.215   4.023  10.390  0.9792 -0.4238 -0.7217
  105OSM    C3F10717   1.333   4.138  10.267  0.2616  0.2240  0.1782
  105OSM    H3F10718   1.421   4.205  10.267 -0.5914  1.3620 -0.2394
  105OSM    H3G10719   1.249   4.194  10.220  0.5571  1.8572  1.5463
  105OSM    C4F10720   1.374   4.016  10.185 -0.8709  0.8617  0.0582
  105OSM    H4F10721   1.338   3.919  10.225  1.5102  0.1482  0.5572
  105OSM    H4G10722   1.483   3.998  10.197 -1.2123 -0.0977  1.9552
  105OSM    C5F10723   1.336   4.017  10.039 -0.2780  0.3336 -0.4119
  105OSM    H5F10724   1.384   3.931   9.989 -2.6303 -0.9904 -0.4182
  105OSM    H5G10725   1.375   4.115  10.003 -0.8433  0.1912 -1.3979
  105OSM    C6F10726   1.185   4.005  10.015 -0.0522  0.0320 -0.0736
  105OSM    H6F10727   1.135   4.090  10.067  1.3136  0.0949  1.1784
  105OSM    H6G10728   1.152   3.912  10.066  2.8796 -1.1789 -0.3046
  105OSM    C7F10729   1.150   3.987   9.870  0.2313 -0.3708  0.8648
  105OSM    H7F10730   1.042   3.975   9.848  0.6919  0.5207 -2.0980
  105OSM    H7G10731   1.207   3.898   9.836  0.2962  0.0444 -0.1306
  105OSM    C8F10732   1.184   4.107   9.788 -0.5737  0.8541 -0.3420
  105OSM    H8F10733   1.288   4.139   9.810  0.4030 -0.3262 -3.0681
  105OSM    H8G10734   1.114   4.193   9.800 -1.8777 -0.2243 -0.0827
  105OSM    C9F10735   1.200   4.074   9.641  0.4385 -1.2074 -0.5740
  105OSM    H9F10736   1.108   4.100   9.586 -1.4524 -3.1141  1.5629
  105OSM   C10F10737   1.300   4.013   9.573  0.1114 -0.0090 -0.4331
  105OSM   H10F10738   1.272   3.982   9.472 -3.6690  1.6112  0.0088
  105OSM   C11F10739   1.430   3.954   9.621 -0.0925  0.4988 -0.3920
  105OSM   H11F10740   1.433   3.845   9.601 -2.0474  0.2155  0.7515
  105OSM   H11G10741   1.429   3.969   9.731 -0.2259 -1.2720 -0.1299
  105OSM   C12F10742   1.558   4.013   9.560  0.4513  0.7003 -0.4975
  105OSM   H12F10743   1.644   3.956   9.600  1.1364  0.5984 -2.0694
  105OSM   H12G10744   1.572   4.116   9.600 -0.6117  0.2912  0.9317
  105OSM   C13F10745   1.557   4.019   9.410  0.5353  0.1685 -0.1539
  105OSM   H13F10746   1.470   4.071   9.363 -1.4977 -3.1076 -0.1121
  105OSM   H13G10747   1.545   3.917   9.368  3.8407 -0.1086 -0.5419
  105OSM   C14F10748   1.686   4.082   9.360  0.4240  0.3479 -0.5348
  105OSM   H14F10749   1.769   4.036   9.418 -1.6449  0.5629  2.6927
  105OSM   H14G10750   1.667   4.190   9.372 -0.6271  0.1534 -0.4518
  105OSM   C15F10751   1.715   4.053   9.214  0.1621 -0.1567 -0.1181
  105OSM   H15F10752   1.633   4.097   9.153  2.3297  2.8797 -0.9337
  105OSM   H15G10753   1.714   3.942   9.207  1.5837 -0.2802  1.4375
  105OSM   C16F10754   1.862   4.077   9.168  0.0458 -0.1562 -0.9260
  105OSM   H16F10755   1.933   4.017   9.229 -2.0510 -0.3757  1.4185
  105OSM   H16G10756   1.888   4.183   9.188 -0.0329  0.0076 -1.6694
  105OSM   C17F10757   1.891   4.056   9.020  0.1294  0.5480 -0.1430
  105OSM   H17F10758   1.790   4.039   8.976 -0.9530  1.2648  1.9630
  105OSM   H17G10759   1.954   3.965   9.010 -2.1845 -1.0659 -0.5257
  105OSM   C18F10760   1.951   4.175   8.941  0.0067 -0.0632 -0.2941
  105OSM   H18F10761   1.981   4.149   8.837  2.0961  3.6206 -0.6921
  105OSM   H18G10762   2.042   4.215   8.990  1.3785 -0.1441 -2.7389
  105OSM   H18H10763   1.875   4.256   8.933  2.5631  2.5135  0.4884
  106OSM      N10764   0.147   2.788  10.854 -1.1616 -0.2925  0.1142
  106OSM    C1510765   0.212   2.651  10.861 -0.4853 -1.5293 -0.1822
  106OSM   H15A10766   0.168   2.585  10.788  0.9013 -1.0717 -1.4857
  106OSM   H15B10767   0.203   2.604  10.957  3.0466  2.0444  2.0505
  106OSM   H15C10768   0.319   2.656  10.848 -0.3978  0.3286  1.0829
  106OSM    C1410769  -0.003   2.768  10.850 -0.1143  0.1327  0.6201
  106OSM   H14A10770  -0.057   2.861  10.833 -0.4998  0.1464  1.8857
  106OSM   H14B10771  -0.040   2.732  10.945 -0.4520  1.5711  1.0586
  106OSM   H14C10772  -0.035   2.713  10.763 -0.3277  0.8328  0.2452
  106OSM    C1310773   0.181   2.857  10.983  0.2044  0.0102  0.0635
  106OSM   H13A10774   0.099   2.918  11.018 -1.1511 -1.5127 -0.3861
  106OSM   H13B10775   0.266   2.922  10.968  1.9072 -1.6929  2.0187
  106OSM   H13C10776   0.200   2.781  11.057 -0.1803 -0.9830 -0.8419
  106OSM    C1210777   0.190   2.875  10.743 -0.2945  0.1365  0.5685
  106OSM   H12A10778   0.178   2.980  10.768 -2.2331 -0.3549  1.7409
  106OSM   H12B10779   0.129   2.849  10.658 -1.1029  3.0490  0.1814
  106OSM    C1110780   0.334   2.859  10.693  0.3447 -0.6015  0.0303
  106OSM   H11A10781   0.355   2.907  10.595 -0.3845 -0.0930  0.1262
  106OSM   H11B10782   0.369   2.754  10.681  1.0258 -0.1584 -2.0405
  106OSM      P10783   0.470   3.060  10.799  0.0868  0.3037  0.2605
  106OSM    O1310784   0.365   3.124  10.873 -0.1746  0.0332  0.6357
  106OSM    O1410785   0.604   3.063  10.845  0.0824 -0.4338 -0.8491
  106OSM    O1110786   0.475   3.111  10.647  0.7694  0.0007 -1.0950
  106OSM    O1210787   0.430   2.913  10.782 -0.1976 -0.1249 -0.3045
  106OSM    C1S10788   0.582   3.073  10.568  0.5088 -0.3733 -0.3356
  106OSM    H1S10789   0.580   2.964  10.547  2.0781 -0.8782  1.8551
  106OSM    H1T10790   0.678   3.112  10.609 -1.1300  3.2127  0.3294
  106OSM     NF10791   0.630   3.066  10.310 -0.8620 -0.1619  0.3054
  106OSM    HNF10792   0.708   3.118  10.275 -1.3566  1.0784  0.9871
  106OSM    C2S10793   0.555   3.133  10.420  0.2156  0.3705 -0.4727
  106OSM    H2S10794   0.448   3.118  10.394 -0.0036 -1.8884  1.5339
  106OSM    C3S10795   0.575   3.286  10.418  0.1423  0.1026  0.1272
  106OSM    H3S10796   0.677   3.310  10.454 -0.2913  1.4032  0.4700
  106OSM     O310797   0.492   3.358  10.514  0.6619  0.0341 -0.0437
  106OSM    HO310798   0.436   3.294  10.558 -0.5696  0.4028 -1.0450
  106OSM    C4S10799   0.556   3.342  10.275  0.2127  0.2716  0.3250
  106OSM    H4S10800   0.645   3.318  10.215 -0.2214  3.2769 -1.6287
  106OSM    C5S10801   0.450   3.404  10.215  0.5443  0.7265 -0.6129
  106OSM    H5S10802   0.361   3.421  10.276 -0.1604 -0.5105 -1.2696
  106OSM    C6S10803   0.453   3.455  10.078  0.0456 -0.2635  0.2199
  106OSM    H6S10804   0.495   3.558  10.072 -1.3859  0.2708 -0.8927
  106OSM    H6T10805   0.345   3.461  10.052 -0.0448 -0.4011  0.5620
  106OSM    C7S10806   0.532   3.370   9.980  0.0030  0.4316  0.4105
  106OSM    H7S10807   0.496   3.266   9.997  0.6280  0.2468  0.6380
  106OSM    H7T10808   0.637   3.384  10.013  0.7658 -1.1928 -1.2515
  106OSM    C8S10809   0.515   3.419   9.837  0.1633 -0.0082 -0.2400
  106OSM    H8S10810   0.537   3.528   9.828 -1.6071  0.6572  2.8280
  106OSM    H8T10811   0.409   3.405   9.806 -0.5288  0.2365  1.8950
  106OSM    C9S10812   0.596   3.332   9.749 -0.6727  0.1251  0.3990
  106OSM    H9S10813   0.576   3.222   9.745 -0.8247  0.0427  2.7191
  106OSM    H9T10814   0.697   3.335   9.795 -0.3777 -0.2168 -0.2162
  106OSM   C10S10815   0.612   3.394   9.613 -0.9652 -0.4088  0.4214
  106OSM   H10S10816   0.639   3.502   9.620 -0.4119 -0.4498 -1.0036
  106OSM   H10T10817   0.514   3.386   9.561 -0.7906  0.5732 -0.0789
  106OSM   C11S10818   0.711   3.311   9.530 -0.1981 -0.3863  0.1068
  106OSM   H11S10819   0.687   3.203   9.542  1.5570 -0.7476  0.4883
  106OSM   H11T10820   0.810   3.325   9.580 -0.7806  0.8145  0.9522
  106OSM   C12S10821   0.706   3.361   9.383  0.0881  0.0800  0.2593
  106OSM   H12S10822   0.680   3.468   9.379  2.4272  0.6379 -0.5934
  106OSM   H12T10823   0.618   3.303   9.347 -1.2729  1.5949  1.0926
  106OSM   C13S10824   0.838   3.339   9.309  0.0725  0.4200 -0.2548
  106OSM   H13S10825   0.864   3.232   9.324  0.8578  0.6711  0.1592
  106OSM   H13T10826   0.921   3.379   9.371  1.6298 -0.8270 -1.4789
  106OSM   C14S10827   0.839   3.386   9.162  0.5775 -0.0954  0.1506
  106OSM   H14S10828   0.819   3.495   9.167  0.5865 -0.1553  1.7694
  106OSM   H14T10829   0.747   3.351   9.110 -1.7724  3.3229  1.8402
  106OSM   C15S10830   0.959   3.347   9.070  0.0756  0.3715  0.5374
  106OSM   H15S10831   0.954   3.382   8.965 -0.9038  0.5627  0.6415
  106OSM   H15T10832   0.981   3.238   9.066 -4.3716 -0.6157  0.6348
  106OSM   C16S10833   1.096   3.397   9.126 -0.1433  0.2166  0.7756
  106OSM   H16S10834   1.120   3.349   9.223  2.5872  1.6862  0.8710
  106OSM   H16T10835   1.089   3.507   9.146  0.0437  0.2764  0.5129
  106OSM   C17S10836   1.214   3.360   9.036 -0.1684 -0.1689  0.2709
  106OSM   H17S10837   1.203   3.250   9.025 -1.5542 -0.0936  0.8173
  106OSM   H17T10838   1.310   3.374   9.091 -0.1067  1.6152 -0.2436
  106OSM   C18S10839   1.214   3.439   8.911 -0.4491 -0.2702 -0.0860
  106OSM   H18S10840   1.220   3.541   8.953 -1.1250 -0.9086  1.6366
  106OSM   H18T10841   1.133   3.440   8.835  0.3697  2.0129 -0.9358
  106OSM   H18U10842   1.310   3.438   8.857  0.1343  1.3684  0.8888
  106OSM    C1F10843   0.619   2.934  10.289 -0.8622  0.1568 -0.2935
  106OSM     OF10844   0.544   2.864  10.360 -0.4634  0.2784 -0.8104
  106OSM    C2F10845   0.697   2.876  10.178  0.1803 -0.1089  0.2481
  106OSM    H2F10846   0.802   2.858  10.208  1.3007  0.8912 -2.9361
  106OSM    H2G10847   0.702   2.952  10.098  2.2812  1.0222  1.3967
  106OSM    C3F10848   0.619   2.754  10.110  0.4930  0.4168 -0.5594
  106OSM    H3F10849   0.523   2.800  10.080 -0.8240 -1.2841  0.9613
  106OSM    H3G10850   0.598   2.677  10.187  4.0008  1.1953  1.2867
  106OSM    C4F10851   0.682   2.681   9.992  0.1476  0.0730 -0.6683
  106OSM    H4F10852   0.609   2.606   9.955 -0.3480  0.1725  0.0928
  106OSM    H4G10853   0.772   2.631  10.033 -0.2759 -1.7557 -1.9250
  106OSM    C5F10854   0.728   2.770   9.880  0.5920 -0.7829 -0.2290
  106OSM    H5F10855   0.813   2.826   9.925  1.0159 -1.6605  0.0721
  106OSM    H5G10856   0.656   2.839   9.833  2.4978  2.7560  1.8300
  106OSM    C6F10857   0.783   2.690   9.762  0.5106  0.3456  1.1673
  106OSM    H6F10858   0.697   2.650   9.704 -0.2407  2.3720  0.8320
  106OSM    H6G10859   0.845   2.602   9.789  0.1932 -0.1173  0.4297
  106OSM    C7F10860   0.844   2.785   9.660 -0.3150  0.8378  0.0172
  106OSM    H7F10861   0.940   2.819   9.704  0.0387 -0.0995 -0.0266
  106OSM    H7G10862   0.779   2.870   9.630 -0.5207  0.6725 -0.0060
  106OSM    C8F10863   0.877   2.709   9.528  0.1868  0.2092 -0.2342
  106OSM    H8F10864   0.891   2.602   9.554 -1.1802  0.4980  1.7138
  106OSM    H8G10865   0.974   2.747   9.490  0.8301 -0.1470  1.0358
  106OSM    C9F10866   0.775   2.714   9.416  0.1285  0.8511 -0.4523
  106OSM    H9F10867   0.676   2.673   9.443 -0.4285  2.5079  0.0683
  106OSM   C10F10868   0.804   2.726   9.284  0.2389  0.2262 -0.0517
  106OSM   H10F10869   0.715   2.741   9.220  1.1980 -0.5168 -1.5599
  106OSM   C11F10870   0.931   2.766   9.220 -0.8463  0.0711 -0.1398
  106OSM   H11F10871   0.995   2.679   9.246  2.1287  2.1935 -0.0505
  106OSM   H11G10872   0.971   2.858   9.267 -1.1673 -0.2183  0.6931
  106OSM   C12F10873   0.898   2.772   9.070  0.0200  0.0155 -0.6699
  106OSM   H12F10874   0.832   2.861   9.060  1.1997  1.1057  0.8479
  106OSM   H12G10875   0.849   2.682   9.027 -0.6622 -1.2868  2.6605
  106OSM   C13F10876   1.028   2.806   8.993 -0.2152  0.5238  0.2413
  106OSM   H13F10877   1.093   2.717   8.981  0.3490  0.9611  0.0376
  106OSM   H13G10878   1.080   2.887   9.048  0.2784  0.2024  0.2466
  106OSM   C14F10879   0.985   2.842   8.847 -0.0841 -0.0800 -0.1097
  106OSM   H14F10880   0.878   2.871   8.854  0.1368  0.3790  1.5805
  106OSM   H14G10881   0.975   2.752   8.783  0.7242 -0.4866  0.3299
  106OSM   C15F10882   1.067   2.955   8.788 -0.1457 -0.6444 -0.3015
  106OSM   H15F10883   1.166   2.909   8.768  0.3651  0.4401 -0.3173
  106OSM   H15G10884   1.070   3.038   8.862  1.9335 -0.3955 -0.6399
  106OSM   C16F10885   1.015   3.001   8.648  0.1758  0.0479  0.2823
  106OSM   H16F10886   1.074   3.091   8.619 -0.6003 -0.5488 -3.3361
  106OSM   H16G10887   0.908   3.029   8.658 -0.2470 -1.9309  1.6524
  106OSM   C17F10888   1.037   2.904   8.533  0.3999  1.0861 -0.0071
  106OSM   H17F10889   0.989   2.807   8.557  0.2225  1.1901  0.0566
  106OSM   H17G10890   1.147   2.887   8.539  0.2419 -0.2605 -0.7549
  106OSM   C18F10891   0.999   2.937   8.387  0.2996  0.1316 -0.1409
  106OSM   H18F10892   1.002   2.846   8.323 -0.0601  0.3731 -0.5024
  106OSM   H18G10893   1.049   3.028   8.348  0.4235  0.9374  1.8107
  106OSM   H18H10894   0.893   2.970   8.391  0.2810 -0.0751  1.1699
  107OSM      N10895   2.905   0.645  10.781  0.4069  0.5667 -0.4610
  107OSM    C1510896   2.809   0.654  10.895  0.0258 -0.7209 -0.3003
  107OSM   H15A10897   2.705   0.647  10.867 -0.6118 -0.5885  1.9285
  107OSM   H15B10898   2.826   0.750  10.942  3.7382 -0.7943 -1.3262
  107OSM   H15C10899   2.832   0.577  10.967 -0.7195  0.7226  1.5163
  107OSM    C1410900   2.875   0.523  10.699 -0.2353  0.4021  0.0874
  107OSM   H14A10901   2.787   0.545  10.640 -0.0355 -0.0817 -0.4025
  107OSM   H14B10902   2.849   0.438  10.760  1.4548  1.4890  2.3627
  107OSM   H14C10903   2.955   0.486  10.636 -0.6644  0.0129 -0.2338
  107OSM    C1310904   2.889   0.763  10.692 -0.3131 -0.5888 -0.4903
  107OSM   H13A10905   2.900   0.857  10.743  0.7317 -1.4613  0.9452
  107OSM   H13B10906   2.791   0.754  10.646 -0.6355  1.0633 -0.1607
  107OSM   H13C10907   2.952   0.754  10.605 -1.4266  3.7442 -1.8627
  107OSM    C1210908   3.048   0.633  10.836 -0.2497 -0.9778 -0.5908
  107OSM   H12A10909   3.074   0.714  10.903  1.3263 -2.5637  0.7619
  107OSM   H12B10910   3.118   0.637  10.754 -1.1510 -3.0342 -1.5015
  107OSM    C1110911   3.069   0.496  10.915  0.7918  0.4005 -0.2474
  107OSM   H11A10912   3.026   0.410  10.859 -0.1371  1.1750 -0.7242
  107OSM   H11B10913   3.015   0.498  11.012 -0.1260 -0.2128 -0.7399
  107OSM      P10914   3.288   0.385  10.817 -0.3303  0.0066 -0.5576
  107OSM    O1310915   3.425   0.383  10.869  0.9939  0.6652 -0.2508
  107OSM    O1410916   3.212   0.261  10.801  0.0848  1.1145  0.3102
  107OSM    O1110917   3.283   0.475  10.691  0.2094 -0.0725  0.0167
  107OSM    O1210918   3.209   0.478  10.925 -0.6635 -0.4521 -0.1864
  107OSM    C1S10919   3.401   0.483  10.607  0.1545  0.1060  0.4933
  107OSM    H1S10920   3.471   0.397  10.602  1.8724  1.4435  1.0533
  107OSM    H1T10921   3.473   0.561  10.638  2.2746 -1.3315 -0.7069
  107OSM     NF10922   3.479   0.511  10.361  0.0149 -0.4921 -0.3656
  107OSM    HNF10923   3.530   0.591  10.331 -0.0043 -1.0153 -1.8466
  107OSM    C2S10924   3.367   0.532  10.456  0.6401  0.1073 -0.4594
  107OSM    H2S10925   3.282   0.468  10.424 -0.4810  0.3027  1.9954
  107OSM    C3S10926   3.301   0.678  10.466  0.1431 -0.9165 -0.2773
  107OSM    H3S10927   3.382   0.752  10.487 -0.7275  0.0581 -0.3241
  107OSM     O310928   3.219   0.697  10.577 -0.0277  0.5550  0.5755
  107OSM    HO310929   3.223   0.611  10.619 -2.2037 -0.1520 -0.5479
  107OSM    C4S10930   3.242   0.721  10.339 -0.0097 -0.2843  0.6852
  107OSM    H4S10931   3.308   0.772  10.268 -1.8118 -0.1399 -0.9450
  107OSM    C5S10932   3.118   0.697  10.305 -0.0853  0.0122  0.0767
  107OSM    H5S10933   3.052   0.645  10.375 -0.0370 -0.0298  0.0905
  107OSM    C6S10934   3.053   0.743  10.176  0.4449  0.1108  0.3441
  107OSM    H6S10935   2.978   0.823  10.191 -1.7958 -1.8197 -0.3095
  107OSM    H6T10936   2.993   0.658  10.136 -0.8606  1.6127 -0.9594
  107OSM    C7S10937   3.149   0.793  10.066  0.0321  0.0918 -0.8741
  107OSM    H7S10938   3.224   0.714  10.040  1.2388  1.0429 -0.3256
  107OSM    H7T10939   3.208   0.882  10.095  0.1103  0.5292 -2.3369
  107OSM    C8S10940   3.074   0.825   9.935 -0.1958  0.1967 -0.2396
  107OSM    H8S10941   3.020   0.921   9.954 -1.0791 -0.1362 -0.9968
  107OSM    H8T10942   3.002   0.744   9.908 -1.1059  1.1616 -0.7726
  107OSM    C9S10943   3.173   0.854   9.819  0.6522  0.5913  0.1834
  107OSM    H9S10944   3.240   0.767   9.804  0.5125  0.6929 -1.0803
  107OSM    H9T10945   3.230   0.945   9.847 -1.0355  1.4711  0.8246
  107OSM   C10S10946   3.106   0.881   9.684 -0.6824  0.5462 -0.4175
  107OSM   H10S10947   3.035   0.964   9.702  0.6726  1.4905  0.6455
  107OSM   H10T10948   3.051   0.789   9.654 -2.4094  0.6477  2.2942
  107OSM   C11S10949   3.201   0.933   9.578 -0.0282  0.0892  0.2420
  107OSM   H11S10950   3.300   0.884   9.574 -0.8674 -1.6854  0.8316
  107OSM   H11T10951   3.222   1.042   9.589  0.3124  0.0795 -0.2898
  107OSM   C12S10952   3.132   0.933   9.442  0.8532 -0.9438 -0.1525
  107OSM   H12S10953   3.050   1.009   9.440 -0.5924 -2.4451  1.2805
  107OSM   H12T10954   3.077   0.838   9.426  1.7246 -1.9854  2.8319
  107OSM   C13S10955   3.223   0.961   9.327 -0.1453  0.3340 -0.3262
  107OSM   H13S10956   3.285   0.870   9.316 -0.0517  0.4250 -0.5601
  107OSM   H13T10957   3.307   1.032   9.342  3.0719 -3.3711  0.0241
  107OSM   C14S10958   3.156   0.972   9.189  0.6265  0.0542 -0.4205
  107OSM   H14S10959   3.082   0.890   9.185 -1.7920  2.2002 -0.4236
  107OSM   H14T10960   3.236   0.954   9.113 -0.2586 -2.1905 -0.8556
  107OSM   C15S10961   3.098   1.111   9.162  0.4683 -0.5751  0.7365
  107OSM   H15S10962   3.169   1.168   9.097  0.1445 -0.9585  0.0463
  107OSM   H15T10963   3.081   1.165   9.257  0.3549  1.7272 -0.5424
  107OSM   C16S10964   2.969   1.092   9.080  0.5480 -0.3756  0.0525
  107OSM   H16S10965   2.897   1.029   9.138  0.7150  0.0409  0.7145
  107OSM   H16T10966   2.994   1.037   8.987 -2.0186  0.8851 -1.4356
  107OSM   C17S10967   2.892   1.216   9.027 -0.2579  0.6438 -0.2910
  107OSM   H17S10968   2.939   1.265   8.939  1.2242  0.1589  0.2027
  107OSM   H17T10969   2.874   1.287   9.110 -0.6014 -1.0941  1.1667
  107OSM   C18S10970   2.757   1.165   8.969 -0.6344  0.2945  0.0453
  107OSM   H18S10971   2.779   1.105   8.878  0.0446 -0.2829  0.5774
  107OSM   H18T10972   2.700   1.253   8.934  0.7097  1.4075  0.5714
  107OSM   H18U10973   2.694   1.109   9.041  0.0907  1.0909  1.3266
  107OSM    C1F10974   3.516   0.386  10.326 -1.2163 -0.0410  0.3281
  107OSM     OF10975   3.455   0.286  10.363  0.0839  0.0291 -0.3233
  107OSM    C2F10976   3.654   0.390  10.255  0.2737 -0.2697 -0.0180
  107OSM    H2F10977   3.725   0.346  10.328  0.3063 -2.1481 -1.1632
  107OSM    H2G10978   3.690   0.490  10.224 -2.2234  1.0047  0.9624
  107OSM    C3F10979   3.656   0.293  10.138  0.3097  0.0862  0.2960
  107OSM    H3F10980   3.591   0.351  10.068  0.0462  0.3497  0.7569
  107OSM    H3G10981   3.621   0.190  10.163 -1.5873  0.9017  1.1364
  107OSM    C4F10982   3.793   0.280  10.067  0.3841  0.2483  0.7173
  107OSM    H4F10983   3.856   0.254  10.154 -0.0123 -2.4698  0.2351
  107OSM    H4G10984   3.819   0.379  10.024  0.3301  0.2033  0.5782
  107OSM    C5F10985   3.791   0.172   9.953 -0.6182 -0.3530 -0.3057
  107OSM    H5F10986   3.758   0.076   9.996  0.6009 -1.1045 -1.0257
  107OSM    H5G10987   3.897   0.170   9.920  0.0853  1.8607  1.6194
  107OSM    C6F10988   3.695   0.219   9.837  0.6650  0.2332 -0.2142
  107OSM    H6F10989   3.711   0.328   9.818 -0.5835  0.5646  0.5743
  107OSM    H6G10990   3.591   0.205   9.875  1.7911  0.2232  3.0048
  107OSM    C7F10991   3.702   0.131   9.712 -0.0830 -0.7191  0.5847
  107OSM    H7F10992   3.694   0.022   9.734  1.2015 -0.4536  2.5299
  107OSM    H7G10993   3.800   0.149   9.663 -1.4501  2.3429 -1.1581
  107OSM    C8F10994   3.596   0.167   9.601  0.0231  0.3804  0.1688
  107OSM    H8F10995   3.489   0.168   9.634 -1.0237 -3.5579 -2.8664
  107OSM    H8G10996   3.600   0.087   9.525 -0.8990  1.0148 -0.5690
  107OSM    C9F10997   3.626   0.302   9.541 -0.3761  0.2212  0.0674
  107OSM    H9F10998   3.638   0.383   9.614 -3.7481  0.6159  0.2564
  107OSM   C10F10999   3.661   0.327   9.417  0.2078  0.2928 -0.2517
  107OSM   H10F11000   3.699   0.428   9.398 -0.9686  1.1046  1.5059
  107OSM   C11F11001   3.682   0.234   9.295  0.5436  0.0862  0.2805
  107OSM   H11F11002   3.661   0.130   9.327 -1.0769  0.4265  0.3776
  107OSM   H11G11003   3.783   0.240   9.250  1.4818  1.4071  2.4520
  107OSM   C12F11004   3.573   0.262   9.194  0.4413 -0.1530 -0.4057
  107OSM   H12F11005   3.473   0.241   9.238  1.0972 -0.3706  1.0165
  107OSM   H12G11006   3.592   0.188   9.114  1.5722  2.5298 -2.6671
  107OSM   C13F11007   3.585   0.397   9.128  0.3676 -0.5690 -0.0849
  107OSM   H13F11008   3.691   0.429   9.132  0.7929 -2.1153  1.9322
  107OSM   H13G11009   3.537   0.459   9.207  0.6636 -0.5340  0.0672
  107OSM   C14F11010   3.511   0.408   8.991  0.4831 -0.4512  0.3375
  107OSM   H14F11011   3.404   0.387   9.014  0.2302  1.5966  1.1551
  107OSM   H14G11012   3.555   0.331   8.923  0.9266  0.0755  0.0219
  107OSM   C15F11013   3.522   0.548   8.922 -0.3946 -0.3887  0.5457
  107OSM   H15F11014   3.626   0.563   8.887  0.3774 -2.8205  1.6965
  107OSM   H15G11015   3.496   0.629   8.994 -0.6850  1.8103 -1.9356
  107OSM   C16F11016   3.428   0.569   8.801 -0.9983 -0.2160 -0.7800
  107OSM   H16F11017   3.358   0.647   8.837 -1.3312 -0.2851 -1.2795
  107OSM   H16G11018   3.376   0.473   8.780  0.8410 -1.4575  0.2123
  107OSM   C17F11019   3.513   0.609   8.679  0.0629 -0.1657 -0.1723
  107OSM   H17F11020   3.585   0.526   8.659  0.3118  0.5517 -2.3962
  107OSM   H17G11021   3.575   0.699   8.699 -1.7913  1.4389 -1.4791
  107OSM   C18F11022   3.443   0.646   8.552 -0.2719 -0.3188  0.4133
  107OSM   H18F11023   3.377   0.735   8.560  0.9764  0.5537  1.1913
  107OSM   H18G11024   3.389   0.557   8.513 -2.1204  2.2219 -3.1663
  107OSM   H18H11025   3.520   0.663   8.474  0.4270  1.6776  1.5253
  108OSM      N11026   0.596   2.320  10.771 -0.5463 -0.5056 -0.2398
  108OSM    C1511027   0.683   2.445  10.788 -0.5102 -0.0035  0.1952
  108OSM   H15A11028   0.734   2.445  10.884  1.6740 -0.0585 -0.9349
  108OSM   H15B11029   0.629   2.535  10.764 -0.1618 -0.4197 -2.2629
  108OSM   H15C11030   0.767   2.455  10.721 -0.7667 -0.4996 -0.1933
  108OSM    C1411031   0.684   2.201  10.806 -0.5586  0.2900  0.2259
  108OSM   H14A11032   0.772   2.196  10.744 -1.8804 -1.5411 -1.5560
  108OSM   H14B11033   0.623   2.112  10.798 -0.5607  0.2890  0.2545
  108OSM   H14C11034   0.712   2.192  10.910  0.8523 -2.3302 -0.3370
  108OSM    C1311035   0.478   2.321  10.866  0.0629 -0.1839  0.2760
  108OSM   H13A11036   0.499   2.297  10.970 -1.7186 -0.7711  0.5127
  108OSM   H13B11037   0.402   2.249  10.840 -0.6056  1.1494 -1.5583
  108OSM   H13C11038   0.432   2.419  10.860 -1.5376 -0.9279  0.0252
  108OSM    C1211039   0.556   2.308  10.628  0.3677  0.5506  0.1445
  108OSM   H12A11040   0.644   2.288  10.568  0.5622 -1.1040  0.9411
  108OSM   H12B11041   0.513   2.404  10.605  2.2602  1.4474  0.2748
  108OSM    C1111042   0.451   2.206  10.598  0.4546 -0.1262 -0.2853
  108OSM   H11A11043   0.470   2.116  10.660 -1.4054  0.7904  1.6896
  108OSM   H11B11044   0.455   2.174  10.492 -0.8152  0.5666 -0.5664
  108OSM      P11045   0.249   2.373  10.556  0.2183 -0.0255  0.6112
  108OSM    O1311046   0.144   2.422  10.651 -0.1689  0.3293 -0.2575
  108OSM    O1411047   0.347   2.468  10.499  0.2042  0.7649  0.1553
  108OSM    O1111048   0.177   2.306  10.439 -0.2317  0.5529 -0.1079
  108OSM    O1211049   0.319   2.250  10.630  0.0940 -0.0416  0.2823
  108OSM    C1S11050   0.075   2.211  10.476  0.1567 -0.5030  0.4884
  108OSM    H1S11051  -0.005   2.263  10.533 -0.4510  0.5609 -1.2788
  108OSM    H1T11052   0.118   2.128  10.535  1.1123 -1.7375 -1.8532
  108OSM     NF11053  -0.083   2.043  10.382  0.5168 -0.2712  0.1452
  108OSM    HNF11054  -0.052   1.949  10.392 -0.0417 -0.5102 -0.2869
  108OSM    C2S11055   0.021   2.141  10.350 -0.2735 -0.1230  0.4166
  108OSM    H2S11056  -0.027   2.213  10.281 -1.3726  0.9588  2.2803
  108OSM    C3S11057   0.134   2.073  10.268 -0.2746 -0.2363 -0.6082
  108OSM    H3S11058   0.201   2.010  10.330  1.5114  1.4554 -0.7903
  108OSM     O311059   0.220   2.167  10.212  0.7150  0.9266  0.2061
  108OSM    HO311060   0.221   2.226  10.287 -3.3260  1.9031 -0.3910
  108OSM    C4S11061   0.077   1.993  10.152 -0.1573 -0.2561 -0.0078
  108OSM    H4S11062   0.077   1.886  10.177  0.0739  0.3166  2.5640
  108OSM    C5S11063   0.005   2.036  10.045 -0.1360  0.2452  0.3771
  108OSM    H5S11064  -0.019   2.142  10.025  0.9011  0.6444  1.2059
  108OSM    C6S11065  -0.062   1.954   9.940 -0.2300  0.1608  0.5817
  108OSM    H6S11066  -0.148   2.011   9.898 -0.6475 -1.3564 -0.6525
  108OSM    H6T11067  -0.098   1.852   9.964 -2.3564  0.2740 -1.9413
  108OSM    C7S11068   0.029   1.924   9.814  0.5143  0.5231  0.6891
  108OSM    H7S11069   0.114   1.863   9.851  0.3185  0.3231  0.8062
  108OSM    H7T11070   0.074   2.020   9.781 -1.3352  1.4930  0.9282
  108OSM    C8S11071  -0.052   1.864   9.693  0.3304 -0.7185 -0.3488
  108OSM    H8S11072  -0.142   1.927   9.678  0.3405  0.0432  2.4250
  108OSM    H8T11073  -0.094   1.772   9.739 -0.5379  0.0073  0.3387
  108OSM    C9S11074   0.024   1.871   9.559  0.2436 -0.1640  0.1249
  108OSM    H9S11075  -0.029   1.795   9.499  0.2349 -1.0315  1.2182
  108OSM    H9T11076   0.132   1.852   9.578  0.6646  0.5235 -1.4523
  108OSM   C10S11077   0.020   1.998   9.480 -0.0110 -0.5334 -0.3221
  108OSM   H10S11078   0.048   2.083   9.545  1.5735 -1.0159 -0.3420
  108OSM   H10T11079  -0.084   2.017   9.447 -1.2415 -0.3812  3.4092
  108OSM   C11S11080   0.117   1.997   9.355 -0.3579 -0.4170  0.5989
  108OSM   H11S11081   0.223   1.987   9.385 -0.1630  1.7935  0.6918
  108OSM   H11T11082   0.097   2.096   9.309 -0.7116 -0.0647  1.4891
  108OSM   C12S11083   0.100   1.891   9.245  0.8129 -0.5871  0.6499
  108OSM   H12S11084  -0.005   1.866   9.222  0.7282 -0.5201  0.9576
  108OSM   H12T11085   0.134   1.795   9.290  2.5612 -0.0476  0.5359
  108OSM   C13S11086   0.161   1.947   9.117  0.2946 -0.2211 -0.5213
  108OSM   H13S11087   0.272   1.939   9.118  0.4660  1.7608 -1.0248
  108OSM   H13T11088   0.113   2.046   9.103  0.3056  0.3235  2.7394
  108OSM   C14S11089   0.101   1.858   8.998  0.2012  0.3646  0.4161
  108OSM   H14S11090  -0.006   1.885   8.993  0.0824 -0.4298 -1.4519
  108OSM   H14T11091   0.111   1.750   9.022 -1.4563  0.2579  0.6854
  108OSM   C15S11092   0.166   1.877   8.865 -1.3395  0.6573 -0.4947
  108OSM   H15S11093   0.115   1.813   8.789  0.3512 -0.5697 -0.6259
  108OSM   H15T11094   0.275   1.856   8.873 -1.7028 -0.6773  1.5621
  108OSM   C16S11095   0.161   2.021   8.818 -0.1852 -0.0533  0.0180
  108OSM   H16S11096   0.219   2.080   8.893  0.8099  0.3207 -1.0358
  108OSM   H16T11097   0.061   2.065   8.798 -0.7600 -1.7630 -0.9153
  108OSM   C17S11098   0.232   2.042   8.683 -0.4123  0.2124  0.4751
  108OSM   H17S11099   0.207   1.956   8.618  0.8013 -1.3027  1.9497
  108OSM   H17T11100   0.341   2.046   8.708  0.1055  1.7691 -1.9410
  108OSM   C18S11101   0.180   2.165   8.612  0.4891 -0.3580  0.9156
  108OSM   H18S11102   0.073   2.142   8.591  1.0303 -2.1295  0.0033
  108OSM   H18T11103   0.236   2.175   8.516 -3.7600 -1.0534 -1.7727
  108OSM   H18U11104   0.184   2.255   8.677  0.6108 -0.2936  0.8180
  108OSM    C1F11105  -0.196   2.071  10.445  1.0011 -0.6535 -0.2828
  108OSM     OF11106  -0.224   2.189  10.461  0.2301 -0.5254 -0.1011
  108OSM    C2F11107  -0.291   1.950  10.476 -0.1266 -0.6711 -0.1846
  108OSM    H2F11108  -0.292   1.951  10.587  1.2592  0.0463 -0.1634
  108OSM    H2G11109  -0.258   1.848  10.445 -0.8906 -0.4896 -1.6284
  108OSM    C3F11110  -0.435   1.981  10.425  0.2190 -0.2331 -1.3300
  108OSM    H3F11111  -0.462   2.081  10.463 -1.6686 -1.6492  1.1826
  108OSM    H3G11112  -0.499   1.913  10.485  1.8639 -0.5646  0.0868
  108OSM    C4F11113  -0.467   1.971  10.276 -0.3748  0.0384 -0.4343
  108OSM    H4F11114  -0.430   2.063  10.226 -1.2360  0.9109  0.5228
  108OSM    H4G11115  -0.577   1.972  10.268 -0.2869  0.2145 -1.7579
  108OSM    C5F11116  -0.418   1.847  10.206  0.3190 -0.0270  0.1656
  108OSM    H5F11117  -0.447   1.768  10.279 -0.3109 -1.8416 -1.9788
  108OSM    H5G11118  -0.308   1.857  10.195  0.3169 -1.9120 -2.0325
  108OSM    C6F11119  -0.480   1.802  10.075  0.1420  0.1170 -0.1362
  108OSM    H6F11120  -0.588   1.802  10.100  0.1019 -0.1570 -0.3050
  108OSM    H6G11121  -0.444   1.700  10.049 -2.4440 -0.6641 -0.7978
  108OSM    C7F11122  -0.460   1.898   9.955  0.0928  0.7024 -0.3465
  108OSM    H7F11123  -0.354   1.885   9.924  0.8286  0.4016  2.1681
  108OSM    H7G11124  -0.470   2.004   9.988  0.0981  0.7000 -0.3381
  108OSM    C8F11125  -0.540   1.867   9.824  1.2201 -0.1873 -0.3513
  108OSM    H8F11126  -0.647   1.887   9.850  0.7095 -0.8465 -1.9085
  108OSM    H8G11127  -0.545   1.757   9.810  0.5861 -0.3203  0.8249
  108OSM    C9F11128  -0.488   1.956   9.708  0.4688  0.1729 -0.6932
  108OSM    H9F11129  -0.483   2.062   9.736 -0.4874  0.2721 -0.8818
  108OSM   C10F11130  -0.460   1.912   9.593 -0.4348  0.8396 -0.1535
  108OSM   H10F11131  -0.431   1.981   9.512  3.4661  0.3470  0.7432
  108OSM   C11F11132  -0.461   1.764   9.552 -0.1572 -0.6174  0.3400
  108OSM   H11F11133  -0.483   1.696   9.636  0.8313  0.4656  1.4955
  108OSM   H11G11134  -0.360   1.738   9.514  0.0618 -0.2490  0.6670
  108OSM   C12F11135  -0.555   1.728   9.433 -0.3799  0.6621  0.5389
  108OSM   H12F11136  -0.656   1.732   9.479 -0.7792  1.4201 -0.3771
  108OSM   H12G11137  -0.540   1.626   9.391 -1.3637 -0.6610  3.3056
  108OSM   C13F11138  -0.550   1.819   9.313 -0.0176  0.2623  0.1088
  108OSM   H13F11139  -0.443   1.828   9.288  0.7676 -1.5414  2.5685
  108OSM   H13G11140  -0.585   1.920   9.341  0.2244  0.7344 -1.3007
  108OSM   C14F11141  -0.626   1.758   9.189  0.0502 -0.0888 -0.5608
  108OSM   H14F11142  -0.734   1.740   9.205  0.5220 -2.8133 -0.1803
  108OSM   H14G11143  -0.576   1.661   9.167 -1.5357 -1.0452 -0.0522
  108OSM   C15F11144  -0.590   1.837   9.061 -0.6714 -0.6584  0.5136
  108OSM   H15F11145  -0.482   1.860   9.061 -0.6381 -0.7048 -1.6369
  108OSM   H15G11146  -0.646   1.933   9.057  0.0640 -0.1547  1.9935
  108OSM   C16F11147  -0.621   1.755   8.939  0.6863  0.6622 -0.0496
  108OSM   H16F11148  -0.560   1.662   8.929 -0.7973 -0.2518 -0.8697
  108OSM   H16G11149  -0.598   1.821   8.853  1.4388  1.4670  0.7704
  108OSM   C17F11150  -0.769   1.725   8.925  0.8239 -0.0766  0.2771
  108OSM   H17F11151  -0.818   1.823   8.942  0.6607 -0.0767 -0.1900
  108OSM   H17G11152  -0.808   1.658   9.005  0.2686  2.0055  1.7678
  108OSM   C18F11153  -0.805   1.662   8.789 -0.1786 -0.2066 -0.8653
  108OSM   H18F11154  -0.910   1.626   8.791 -0.0190 -0.8193  3.9365
  108OSM   H18G11155  -0.743   1.573   8.767 -0.8707 -1.2959  1.3724
  108OSM   H18H11156  -0.783   1.733   8.706  0.1650  1.7306  0.8233
  109OSM      N11157   6.140   6.614  11.086  0.3108 -0.6369 -0.4628
  109OSM    C1511158   6.148   6.472  11.132  0.0859  0.0594  0.2690
  109OSM   H15A11159   6.192   6.464  11.230 -0.8370 -2.7285  0.4958
  109OSM   H15B11160   6.209   6.414  11.066 -0.2651 -0.3090  0.2647
  109OSM   H15C11161   6.052   6.422  11.125  0.6774 -0.7001 -2.9602
  109OSM    C1411162   6.084   6.692  11.196 -0.0273 -0.7717  0.0016
  109OSM   H14A11163   6.063   6.795  11.176  0.0316 -0.9786 -1.1748
  109OSM   H14B11164   6.160   6.692  11.273 -1.5704  1.6152  1.5520
  109OSM   H14C11165   5.991   6.653  11.233 -0.3424 -1.0257 -1.0457
  109OSM    C1311166   6.286   6.651  11.067  0.1559  0.9011 -0.5903
  109OSM   H13A11167   6.343   6.618  11.153 -0.5407  0.2336 -0.3788
  109OSM   H13B11168   6.299   6.756  11.046 -0.8130  1.4818  1.5640
  109OSM   H13C11169   6.326   6.594  10.984  3.1850 -1.2267  2.1821
  109OSM    C1211170   6.063   6.644  10.959 -0.5906  0.0302  0.3725
  109OSM   H12A11171   6.124   6.626  10.872  2.1122  2.5882  1.6234
  109OSM   H12B11172   6.044   6.751  10.954  4.4890  0.9866 -1.6994
  109OSM    C1111173   5.925   6.584  10.951 -0.5590  0.1605  0.7012
  109OSM   H11A11174   5.943   6.475  10.965  1.3950 -0.0073 -2.5944
  109OSM   H11B11175   5.886   6.601  10.848  1.8177 -0.7855 -0.3765
  109OSM      P11176   5.747   6.760  11.026  0.4509 -0.0860  0.1316
  109OSM    O1311177   5.611   6.710  11.035  0.1675  0.1608 -0.3542
  109OSM    O1411178   5.786   6.878  11.111  0.3459  0.5547 -0.3839
  109OSM    O1111179   5.768   6.798  10.874  0.2829  0.2941  0.0139
  109OSM    O1211180   5.838   6.636  11.054 -0.9026 -0.4618  0.7709
  109OSM    C1S11181   5.727   6.918  10.817 -0.0729  0.3140  0.2839
  109OSM    H1S11182   5.775   7.010  10.858 -0.4803  0.3913  0.5911
  109OSM    H1T11183   5.618   6.936  10.826 -0.1386  1.4371 -2.2498
  109OSM     NF11184   5.757   7.062  10.612  0.1498 -0.6860  0.1046
  109OSM    HNF11185   5.674   7.081  10.560 -0.7228 -2.3693  0.8504
  109OSM    C2S11186   5.781   6.931  10.664  0.2340  0.5427  0.4088
  109OSM    H2S11187   5.890   6.914  10.665  0.1277 -0.1485  0.7493
  109OSM    C3S11188   5.712   6.819  10.584 -0.0858  0.3870 -0.5580
  109OSM    H3S11189   5.603   6.825  10.605  0.3932 -0.9399  2.5797
  109OSM     O311190   5.734   6.686  10.625 -0.0831 -0.0453  0.0236
  109OSM    HO311191   5.770   6.706  10.711  0.7050  2.5429 -0.8404
  109OSM    C4S11192   5.748   6.832  10.443  0.1069  0.3520 -0.4193
  109OSM    H4S11193   5.854   6.850  10.420  0.1013  1.0302  0.0813
  109OSM    C5S11194   5.666   6.806  10.339  0.4956 -0.1551  0.0872
  109OSM    H5S11195   5.560   6.794  10.364  0.3488  0.6092 -0.1467
  109OSM    C6S11196   5.690   6.811  10.187  0.1105 -0.2798  0.2457
  109OSM    H6S11197   5.798   6.815  10.161  0.0115 -0.7273 -0.2319
  109OSM    H6T11198   5.643   6.906  10.155 -0.4569 -0.5932  0.1429
  109OSM    C7S11199   5.634   6.694  10.110  0.4337  0.0484  0.2235
  109OSM    H7S11200   5.523   6.701  10.114  0.4993  2.0871 -0.8587
  109OSM    H7T11201   5.666   6.597  10.154  0.7483 -0.6293 -1.4493
  109OSM    C8S11202   5.683   6.685   9.964  0.3568  0.1337  0.1304
  109OSM    H8S11203   5.631   6.598   9.920  0.6176 -0.0679  0.2213
  109OSM    H8T11204   5.791   6.661   9.954  0.6254  1.6702 -0.8662
  109OSM    C9S11205   5.643   6.801   9.870  0.3508  0.3311 -0.0796
  109OSM    H9S11206   5.687   6.895   9.909  1.1905 -1.1761  2.7330
  109OSM    H9T11207   5.533   6.810   9.871  0.2794 -0.4387 -0.5164
  109OSM   C10S11208   5.704   6.795   9.724 -0.0759 -0.7384 -0.1850
  109OSM   H10S11209   5.697   6.688   9.694  0.3335 -1.1675  1.2237
  109OSM   H10T11210   5.809   6.832   9.728 -0.2753 -0.1799 -0.1508
  109OSM   C11S11211   5.626   6.888   9.627  0.6671  0.7744 -0.6039
  109OSM   H11S11212   5.638   6.990   9.668 -1.1209  0.0265  1.8986
  109OSM   H11T11213   5.519   6.856   9.622  0.4897  1.3671 -0.5872
  109OSM   C12S11214   5.694   6.884   9.492  0.4353 -0.1559  0.0251
  109OSM   H12S11215   5.719   6.784   9.448  3.3641  0.4307  0.2485
  109OSM   H12T11216   5.785   6.944   9.513  1.9811 -3.2761  2.6957
  109OSM   C13S11217   5.608   6.959   9.390 -0.0618  0.1420 -0.2922
  109OSM   H13S11218   5.589   7.063   9.425  0.2941  0.7315 -1.7591
  109OSM   H13T11219   5.505   6.919   9.382 -0.3450  1.0451 -1.4180
  109OSM   C14S11220   5.683   6.991   9.261 -0.8438 -0.3275  0.4622
  109OSM   H14S11221   5.793   7.004   9.274 -0.4650 -2.8302  0.0161
  109OSM   H14T11222   5.627   7.074   9.212 -0.1499  1.8686  3.2263
  109OSM   C15S11223   5.659   6.889   9.153 -0.1072  0.0275  0.1704
  109OSM   H15S11224   5.553   6.861   9.135  0.4235 -1.3841 -0.8069
  109OSM   H15T11225   5.713   6.795   9.177 -0.3870 -0.3990 -0.8212
  109OSM   C16S11226   5.732   6.930   9.018  0.7197 -1.0359 -0.8825
  109OSM   H16S11227   5.840   6.917   9.040  0.8151 -0.1591 -0.8330
  109OSM   H16T11228   5.718   7.040   9.009 -0.5178 -0.8742  2.1053
  109OSM   C17S11229   5.701   6.855   8.893 -0.0156 -0.1897  0.1957
  109OSM   H17S11230   5.788   6.872   8.826  0.5767 -0.7364  0.8277
  109OSM   H17T11231   5.618   6.914   8.848  2.9636  1.3121 -3.5947
  109OSM   C18S11232   5.679   6.705   8.911 -0.1002 -0.3449  1.5226
  109OSM   H18S11233   5.579   6.680   8.953 -0.5193  1.5237  1.6935
  109OSM   H18T11234   5.765   6.659   8.964 -0.0511 -1.7877  0.2270
  109OSM   H18U11235   5.676   6.659   8.810  1.3875 -2.4973  2.4106
  109OSM    C1F11236   5.812   7.174  10.661  0.7361 -0.1460  0.0987
  109OSM     OF11237   5.908   7.175  10.740 -0.2871 -0.3177 -0.3654
  109OSM    C2F11238   5.752   7.303  10.614  0.0191 -0.2390 -1.5033
  109OSM    H2F11239   5.811   7.379  10.671 -0.2672 -0.4552 -0.9151
  109OSM    H2G11240   5.650   7.296  10.657  0.1063  0.5027 -1.1689
  109OSM    C3F11241   5.748   7.325  10.463  0.6535 -0.3941  0.4138
  109OSM    H3F11242   5.677   7.407  10.442  3.5116  1.6192 -1.7106
  109OSM    H3G11243   5.717   7.229  10.416 -0.5862  0.1899  0.0174
  109OSM    C4F11244   5.889   7.361  10.413  0.5655 -0.1572 -0.4784
  109OSM    H4F11245   5.953   7.271  10.413 -0.2021 -0.7173  0.5754
  109OSM    H4G11246   5.929   7.434  10.486 -0.3865 -0.0683 -0.0296
  109OSM    C5F11247   5.867   7.432  10.276 -0.4403  1.2508  0.4225
  109OSM    H5F11248   5.783   7.504  10.275 -2.2151 -0.7872 -2.4603
  109OSM    H5G11249   5.853   7.354  10.199  1.0965  0.8356  0.5336
  109OSM    C6F11250   5.997   7.500  10.232 -0.3453 -0.1162 -0.0082
  109OSM    H6F11251   6.072   7.420  10.243 -0.3604 -0.0757  0.4306
  109OSM    H6G11252   6.026   7.579  10.304  1.0479  1.8636 -2.6722
  109OSM    C7F11253   5.994   7.556  10.088 -0.9189 -0.4181  0.1944
  109OSM    H7F11254   5.895   7.603  10.067  0.5692  2.1981 -1.1512
  109OSM    H7G11255   5.992   7.472  10.015  1.4476 -0.6556  0.3743
  109OSM    C8F11256   6.105   7.663  10.063 -0.4084 -0.5597 -0.3309
  109OSM    H8F11257   6.108   7.736  10.147 -0.7106 -0.6131 -0.2727
  109OSM    H8G11258   6.094   7.721   9.969 -0.3309  0.9700  0.5850
  109OSM    C9F11259   6.238   7.604  10.061  0.3840 -0.3280  0.1250
  109OSM    H9F11260   6.312   7.640  10.133  0.9888  2.8360 -2.0065
  109OSM   C10F11261   6.287   7.535   9.955 -0.0848 -0.1838 -0.4104
  109OSM   H10F11262   6.381   7.480   9.972 -1.2819 -3.0082 -2.5947
  109OSM   C11F11263   6.215   7.507   9.820 -0.5820  0.6381 -0.5572
  109OSM   H11F11264   6.112   7.550   9.820 -0.5154  0.8195  0.7318
  109OSM   H11G11265   6.203   7.399   9.799 -0.7089  0.7884 -1.2767
  109OSM   C12F11266   6.297   7.547   9.704 -0.0480  0.1587  0.9030
  109OSM   H12F11267   6.401   7.508   9.703 -0.3815 -0.7391 -1.4652
  109OSM   H12G11268   6.300   7.658   9.699  0.0640  0.1178  0.0926
  109OSM   C13F11269   6.226   7.514   9.577  0.6911  0.0727  1.0600
  109OSM   H13F11270   6.126   7.562   9.578  1.6885  2.3965 -2.6848
  109OSM   H13G11271   6.209   7.404   9.576 -1.5388  0.3919  1.2110
  109OSM   C14F11272   6.297   7.534   9.441 -0.5225  0.3981  0.1242
  109OSM   H14F11273   6.384   7.466   9.430 -0.7132  0.3233 -0.9985
  109OSM   H14G11274   6.331   7.639   9.429 -1.2708  0.6882  0.5113
  109OSM   C15F11275   6.209   7.500   9.318 -0.4973 -0.0867 -0.7108
  109OSM   H15F11276   6.131   7.579   9.319  0.2447  0.6525  0.4677
  109OSM   H15G11277   6.157   7.403   9.307  1.9907 -1.3348 -2.0458
  109OSM   C16F11278   6.282   7.534   9.189  0.1354  0.6427  0.0002
  109OSM   H16F11279   6.381   7.483   9.183  0.1894  0.6846  0.5491
  109OSM   H16G11280   6.321   7.638   9.194 -0.2879  0.6950  3.2849
  109OSM   C17F11281   6.190   7.503   9.064 -0.3955 -0.5584 -0.9659
  109OSM   H17F11282   6.088   7.545   9.074  0.8922  2.5320 -0.3603
  109OSM   H17G11283   6.181   7.392   9.059 -0.0978 -0.7722  2.4849
  109OSM   C18F11284   6.251   7.560   8.940  0.2731 -0.3832  0.2942
  109OSM   H18F11285   6.360   7.541   8.928  0.3156 -0.1077  0.2443
  109OSM   H18G11286   6.241   7.671   8.940 -1.3578 -0.5166  0.2031
  109OSM   H18H11287   6.196   7.519   8.852 -0.3119  1.8818 -0.4242
  110OSM      N11288   6.808   5.402  11.408  0.7093 -0.0632 -0.7941
  110OSM    C1511289   6.874   5.275  11.429  0.2552  0.3640 -0.0848
  110OSM   H15A11290   6.976   5.256  11.402  0.2801 -0.0890  0.3154
  110OSM   H15B11291   6.817   5.191  11.392 -0.2542  0.2643  0.9033
  110OSM   H15C11292   6.876   5.253  11.535 -0.6430 -1.0856 -0.3496
  110OSM    C1411293   6.663   5.378  11.459 -0.1640  0.1358  0.3068
  110OSM   H14A11294   6.627   5.277  11.445  1.5496 -0.4742  0.1381
  110OSM   H14B11295   6.595   5.447  11.411 -0.9801 -2.1203 -1.8593
  110OSM   H14C11296   6.664   5.394  11.566  0.6501 -0.3666  0.3833
  110OSM    C1311297   6.887   5.515  11.472  0.2771  0.0805  0.3229
  110OSM   H13A11298   6.971   5.539  11.409  1.5173 -1.3542  1.3958
  110OSM   H13B11299   6.923   5.499  11.572 -0.4435 -0.4390  0.5053
  110OSM   H13C11300   6.831   5.607  11.462  0.3775  0.1468  0.3639
  110OSM    C1211301   6.793   5.433  11.260 -0.1809  0.8217 -0.4290
  110OSM   H12A11302   6.729   5.518  11.239 -1.9853 -0.9467 -2.4311
  110OSM   H12B11303   6.746   5.355  11.201 -0.2936 -0.2924  1.1261
  110OSM    C1111304   6.923   5.465  11.177 -0.0952  1.1187  0.1706
  110OSM   H11A11305   6.903   5.453  11.069  0.1297 -0.8510  0.3248
  110OSM   H11B11306   7.009   5.401  11.209  1.5830  4.1412  1.9747
  110OSM      P11307   6.889   5.721  11.150 -0.1211  0.0541 -0.3407
  110OSM    O1311308   6.769   5.670  11.085 -0.2961 -0.1911  0.0869
  110OSM    O1411309   6.866   5.803  11.266  0.1740  0.4461 -0.3067
  110OSM    O1111310   6.976   5.807  11.042 -0.5805 -0.3617  0.0082
  110OSM    O1211311   6.975   5.602  11.191  0.0181 -0.7684 -0.2333
  110OSM    C1S11312   7.043   5.729  10.941  0.2729 -0.4991 -0.3313
  110OSM    H1S11313   6.980   5.662  10.879 -0.2535  0.4303 -0.8148
  110OSM    H1T11314   7.116   5.660  10.989 -1.1271 -1.5698  0.2732
  110OSM     NF11315   7.151   5.728  10.724 -1.0001 -1.1819 -0.2318
  110OSM    HNF11316   7.244   5.691  10.728  0.8000  3.1149  0.7072
  110OSM    C2S11317   7.111   5.813  10.835 -0.5919 -0.4808  1.2450
  110OSM    H2S11318   7.049   5.894  10.791  0.6127 -0.0032  0.3991
  110OSM    C3S11319   7.235   5.895  10.900 -0.0439  0.1375  0.4073
  110OSM    H3S11320   7.301   5.823  10.952 -1.2043  0.0810  1.8568
  110OSM     O311321   7.189   5.989  10.996  0.0606 -0.8017  0.5262
  110OSM    HO311322   7.095   5.970  11.003 -0.1802 -0.5363 -1.8227
  110OSM    C4S11323   7.325   5.976  10.800 -0.2122  0.5991  0.1007
  110OSM    H4S11324   7.418   5.921  10.785  0.0911  1.6828 -2.1914
  110OSM    C5S11325   7.317   6.107  10.764  0.1346  0.0969 -0.1774
  110OSM    H5S11326   7.245   6.174  10.813  0.6929  0.4014  0.2344
  110OSM    C6S11327   7.404   6.186  10.664 -0.1375 -0.3140  0.0220
  110OSM    H6S11328   7.475   6.108  10.630  1.2308  1.0206 -0.2448
  110OSM    H6T11329   7.464   6.258  10.724 -0.0675  0.6219 -1.1420
  110OSM    C7S11330   7.335   6.262  10.547 -0.3560  0.3311  0.0134
  110OSM    H7S11331   7.411   6.311  10.484 -0.8753  2.1842  0.7827
  110OSM    H7T11332   7.281   6.347  10.595 -2.7577 -0.9072 -0.4331
  110OSM    C8S11333   7.230   6.181  10.466 -0.1929 -0.1452 -0.6026
  110OSM    H8S11334   7.143   6.168  10.534 -0.2950  1.9985 -0.2838
  110OSM    H8T11335   7.263   6.082  10.428  0.1221 -0.2257 -0.1237
  110OSM    C9S11336   7.179   6.261  10.340 -0.2274 -0.0443 -0.3520
  110OSM    H9S11337   7.120   6.185  10.284  2.0036 -1.6437 -0.5742
  110OSM    H9T11338   7.265   6.300  10.283  0.4908  0.1338  0.8355
  110OSM   C10S11339   7.087   6.378  10.379 -0.3307 -0.8235  1.0406
  110OSM   H10S11340   7.149   6.457  10.428 -0.8461  0.9968 -1.1521
  110OSM   H10T11341   7.015   6.333  10.450 -2.2410  1.6903  0.7502
  110OSM   C11S11342   7.003   6.448  10.265  0.3755 -0.0878  0.6095
  110OSM   H11S11343   6.936   6.532  10.296 -1.3938 -0.6126 -1.6738
  110OSM   H11T11344   6.936   6.367  10.229 -0.3251  0.4808  0.6128
  110OSM   C12S11345   7.095   6.514  10.162 -0.0838  0.4855  0.2766
  110OSM   H12S11346   7.177   6.442  10.144 -1.3862 -1.0189  0.2166
  110OSM   H12T11347   7.132   6.607  10.210  1.8827 -0.6463  0.9984
  110OSM   C13S11348   7.026   6.555  10.035 -0.0475  0.1229  0.5747
  110OSM   H13S11349   6.954   6.635  10.059  1.2968  1.7370 -0.6496
  110OSM   H13T11350   6.974   6.466   9.993 -0.1498  0.8929 -0.9833
  110OSM   C14S11351   7.125   6.600   9.928  0.3669  0.1211 -0.0650
  110OSM   H14S11352   7.193   6.514   9.907  2.4922  1.7227  0.0877
  110OSM   H14T11353   7.194   6.685   9.949  1.2043 -0.3887 -0.7133
  110OSM   C15S11354   7.056   6.643   9.804  0.3754 -0.2980  0.7593
  110OSM   H15S11355   7.124   6.713   9.750 -0.6759 -0.7434 -1.1512
  110OSM   H15T11356   6.962   6.700   9.817  0.8757  0.8359 -0.4578
  110OSM   C16S11357   7.028   6.524   9.709  0.0178  0.1634 -0.2190
  110OSM   H16S11358   6.946   6.460   9.751 -0.0095  1.0862  1.1661
  110OSM   H16T11359   7.120   6.463   9.709  1.3771  2.1399 -2.6655
  110OSM   C17S11360   6.977   6.578   9.572 -0.0069  0.0800 -0.2787
  110OSM   H17S11361   7.059   6.635   9.523  1.3965 -0.2818  1.6066
  110OSM   H17T11362   6.890   6.646   9.585  0.3743  0.6062 -0.4325
  110OSM   C18S11363   6.948   6.465   9.475 -0.0529 -0.0901  0.3946
  110OSM   H18S11364   6.857   6.413   9.511 -1.5188  2.2483  0.2360
  110OSM   H18T11365   7.031   6.391   9.476  1.4334  1.5329  0.8806
  110OSM   H18U11366   6.929   6.501   9.371 -1.7605  0.6896  0.9497
  110OSM    C1F11367   7.062   5.690  10.629  0.7862 -0.6539  0.2308
  110OSM     OF11368   6.943   5.721  10.647 -0.4224  0.0323 -0.4049
  110OSM    C2F11369   7.106   5.617  10.505  0.0489 -0.4586  0.2585
  110OSM    H2F11370   7.167   5.526  10.526  0.1451 -0.1975  1.1299
  110OSM    H2G11371   7.157   5.685  10.433 -3.4182 -0.6506 -2.4695
  110OSM    C3F11372   6.991   5.548  10.429  0.0102  0.1209 -0.2250
  110OSM    H3F11373   6.920   5.627  10.396  0.0701  0.6711  0.9416
  110OSM    H3G11374   6.938   5.475  10.495  1.2032  0.6547  1.3480
  110OSM    C4F11375   7.024   5.462  10.299  0.1820  0.0358 -0.0394
  110OSM    H4F11376   6.955   5.377  10.285  0.4033  0.1609 -1.9591
  110OSM    H4G11377   7.124   5.416  10.318 -0.1756 -0.2372  1.2594
  110OSM    C5F11378   7.008   5.552  10.176 -0.2457  0.4655  0.0082
  110OSM    H5F11379   7.083   5.633  10.187  2.5780 -2.3405  2.1814
  110OSM    H5G11380   6.904   5.591  10.169  0.4362  2.0701 -1.6157
  110OSM    C6F11381   7.035   5.462  10.049  0.6850  0.0690 -0.2352
  110OSM    H6F11382   6.932   5.424  10.034 -0.7907  3.3214  1.1672
  110OSM    H6G11383   7.103   5.377  10.071  0.4951  0.3645  1.6184
  110OSM    C7F11384   7.084   5.534   9.926 -0.7157  0.4646 -0.2829
  110OSM    H7F11385   7.194   5.548   9.937 -0.8538  0.5995  1.0415
  110OSM    H7G11386   7.035   5.633   9.925 -0.4456  0.6280  1.3910
  110OSM    C8F11387   7.051   5.446   9.798 -0.0483 -0.0833 -0.0101
  110OSM    H8F11388   6.945   5.416   9.813 -0.5078  1.5903  0.1979
  110OSM    H8G11389   7.117   5.359   9.819  0.3077 -0.1139 -1.2229
  110OSM    C9F11390   7.060   5.515   9.664  0.0311  0.2519 -0.6091
  110OSM    H9F11391   7.003   5.609   9.658 -0.0875  0.4449  2.6031
  110OSM   C10F11392   7.138   5.491   9.557 -0.4817 -0.5384 -0.8280
  110OSM   H10F11393   7.113   5.547   9.465  0.7003  1.0414 -0.2191
  110OSM   C11F11394   7.232   5.374   9.544  0.6470  0.2496 -0.0297
  110OSM   H11F11395   7.182   5.285   9.503 -1.6506  0.7428  1.6204
  110OSM   H11G11396   7.284   5.338   9.635  0.3878  2.6150  1.0873
  110OSM   C12F11397   7.348   5.409   9.455  0.0426  1.0145  1.3653
  110OSM   H12F11398   7.407   5.315   9.448  0.9630  1.7664 -1.2501
  110OSM   H12G11399   7.418   5.478   9.509  0.5486  0.3228  1.5984
  110OSM   C13F11400   7.314   5.453   9.310  0.0315  0.0111 -0.2031
  110OSM   H13F11401   7.274   5.557   9.311  2.0675  0.8328 -0.4279
  110OSM   H13G11402   7.245   5.374   9.275  0.2544 -1.5983  2.8043
  110OSM   C14F11403   7.440   5.457   9.229 -0.0999  0.7211  0.1849
  110OSM   H14F11404   7.473   5.352   9.219 -0.4125  0.6229  0.1825
  110OSM   H14G11405   7.516   5.523   9.276 -0.2562  0.8592  0.2431
  110OSM   C15F11406   7.409   5.501   9.082  0.4684 -0.6654 -0.3238
  110OSM   H15F11407   7.398   5.610   9.066  0.6867 -0.6051 -0.0712
  110OSM   H15G11408   7.312   5.456   9.052 -0.9658  0.7705  1.9776
  110OSM   C16F11409   7.515   5.451   8.980 -0.8440 -0.1678 -0.0991
  110OSM   H16F11410   7.484   5.345   8.967 -3.5742  0.5844 -0.0893
  110OSM   H16G11411   7.619   5.455   9.019 -0.6213 -2.3555 -0.4240
  110OSM   C17F11412   7.521   5.546   8.851 -0.0751  0.0386  0.5079
  110OSM   H17F11413   7.600   5.499   8.789 -1.8165  2.8022 -4.0274
  110OSM   H17G11414   7.559   5.642   8.892  2.7486 -1.5666  1.8293
  110OSM   C18F11415   7.393   5.561   8.778  0.4044 -0.5268  0.2834
  110OSM   H18F11416   7.322   5.629   8.831  1.7991  0.8562  0.4159
  110OSM   H18G11417   7.341   5.464   8.764 -0.8229 -0.2125  2.3201
  110OSM   H18H11418   7.424   5.605   8.681  0.9412 -2.9457 -0.6764
  111OSM      N11419   0.902   3.251  10.944 -0.0741  0.1196 -0.1666
  111OSM    C1511420   1.004   3.341  10.996 -0.1868  0.5377 -0.4175
  111OSM   H15A11421   1.040   3.303  11.090  0.3693 -2.8489 -1.9343
  111OSM   H15B11422   0.958   3.437  11.018 -1.3347 -0.8249  3.4508
  111OSM   H15C11423   1.082   3.363  10.925 -0.1613  0.9842 -0.2547
  111OSM    C1411424   0.959   3.112  10.956  0.3361  0.3213 -0.6065
  111OSM   H14A11425   1.051   3.111  10.899 -1.8341 -0.3990 -4.2031
  111OSM   H14B11426   0.889   3.042  10.912  0.3868  0.8561 -1.5484
  111OSM   H14C11427   0.974   3.077  11.057  0.7494  0.3928 -0.6410
  111OSM    C1311428   0.774   3.261  11.034 -0.2063  0.8836  0.3759
  111OSM   H13A11429   0.727   3.357  11.020  1.3392  1.9136  2.1248
  111OSM   H13B11430   0.778   3.242  11.140 -2.0767  0.8369  0.4497
  111OSM   H13C11431   0.702   3.186  11.005  1.5539 -0.8230  0.2414
  111OSM    C1211432   0.864   3.264  10.794  0.1092 -0.4100 -0.0029
  111OSM   H12A11433   0.797   3.183  10.766  2.1505 -2.7724  1.7126
  111OSM   H12B11434   0.957   3.258  10.740  0.3362 -0.7711  0.4204
  111OSM    C1111435   0.797   3.396  10.752  0.0418  0.5254 -0.1420
  111OSM   H11A11436   0.703   3.402  10.812 -1.0778  0.5049 -1.8545
  111OSM   H11B11437   0.760   3.397  10.647 -1.1026  0.9713  0.2614
  111OSM      P11438   0.994   3.551  10.684 -0.0407  0.4072  0.1958
  111OSM    O1311439   1.050   3.678  10.738 -0.1122 -0.9272  0.1187
  111OSM    O1411440   1.092   3.443  10.696 -0.3968  0.0564 -0.2018
  111OSM    O1111441   0.929   3.568  10.544 -0.0907  0.0708  0.2506
  111OSM    O1211442   0.873   3.513  10.776  0.2524 -0.4975  0.0901
  111OSM    C1S11443   0.819   3.649  10.505  1.3128 -0.0149  0.0544
  111OSM    H1S11444   0.791   3.724  10.582  0.1564  0.0664 -0.4358
  111OSM    H1T11445   0.728   3.586  10.508  0.6588  0.8785 -0.7398
  111OSM     NF11446   0.729   3.838  10.369 -0.0203 -0.3455  0.3036
  111OSM    HNF11447   0.634   3.818  10.347 -0.0032 -0.1252  0.0203
  111OSM    C2S11448   0.819   3.724  10.363 -0.0925  0.8095 -0.3114
  111OSM    H2S11449   0.925   3.754  10.349  1.2820 -3.2791  0.8205
  111OSM    C3S11450   0.796   3.611  10.259 -0.2316  0.1276  0.9445
  111OSM    H3S11451   0.690   3.582  10.276 -0.2902 -0.8923 -0.9506
  111OSM     O311452   0.872   3.490  10.287  0.0617  0.7372 -0.4226
  111OSM    HO311453   0.910   3.510  10.372  0.2938  2.6842 -0.9670
  111OSM    C4S11454   0.822   3.656  10.113  0.1347  0.4820 -0.8145
  111OSM    H4S11455   0.904   3.595  10.072  2.2290  2.0675  0.9024
  111OSM    C5S11456   0.743   3.732  10.041 -0.5929 -0.1021 -0.6486
  111OSM    H5S11457   0.651   3.772  10.086 -0.3031 -1.6775  1.4392
  111OSM    C6S11458   0.770   3.763   9.892  0.1355  0.5399 -0.2128
  111OSM    H6S11459   0.798   3.870   9.882 -0.1592  0.5554 -0.9247
  111OSM    H6T11460   0.679   3.743   9.832  0.3233  0.9989 -0.6602
  111OSM    C7S11461   0.887   3.682   9.819  0.0559  0.5652  0.2077
  111OSM    H7S11462   0.864   3.573   9.815 -3.7261  1.2649  1.3215
  111OSM    H7T11463   0.979   3.687   9.882  0.8092  0.7292 -0.8854
  111OSM    C8S11464   0.918   3.734   9.677  0.0516  0.1565  0.2750
  111OSM    H8S11465   0.919   3.845   9.676 -0.0012  0.1685  1.2277
  111OSM    H8T11466   0.829   3.693   9.624 -0.4945 -1.3536  2.3358
  111OSM    C9S11467   1.048   3.678   9.622  0.0847 -1.0489  0.2004
  111OSM    H9S11468   1.035   3.568   9.628 -3.5466 -0.7535 -0.6560
  111OSM    H9T11469   1.131   3.707   9.689 -0.7340 -0.2786  0.8901
  111OSM   C10S11470   1.070   3.728   9.481  0.6851 -0.0919 -0.3894
  111OSM   H10S11471   1.086   3.838   9.490 -0.2789 -0.1023  1.8788
  111OSM   H10T11472   0.983   3.700   9.418  1.8161 -2.7247 -0.8581
  111OSM   C11S11473   1.191   3.672   9.404  0.0326 -0.0388  0.6703
  111OSM   H11S11474   1.188   3.564   9.376  0.3069  0.0326  0.3653
  111OSM   H11T11475   1.284   3.684   9.463  0.5271 -0.7263  0.0461
  111OSM   C12S11476   1.227   3.743   9.276  0.0695 -0.8605  0.7895
  111OSM   H12S11477   1.269   3.839   9.316  2.7131 -1.7512  0.2806
  111OSM   H12T11478   1.146   3.749   9.201  2.2157  1.5484 -1.4739
  111OSM   C13S11479   1.345   3.679   9.205 -0.7124 -0.0192  0.5521
  111OSM   H13S11480   1.313   3.578   9.171  1.6985 -0.7901  0.4981
  111OSM   H13T11481   1.426   3.680   9.280 -0.6077 -2.1553  0.5030
  111OSM   C14S11482   1.388   3.757   9.077 -0.3054  0.2570 -0.0231
  111OSM   H14S11483   1.405   3.863   9.106  0.4959  0.2916 -0.5890
  111OSM   H14T11484   1.302   3.782   9.011 -1.4992  0.8154  1.7216
  111OSM   C15S11485   1.513   3.708   9.008 -0.1917 -0.6221  0.0646
  111OSM   H15S11486   1.491   3.602   8.982 -0.6322 -0.7382  0.8924
  111OSM   H15T11487   1.593   3.723   9.083 -2.0545 -3.9884  2.8716
  111OSM   C16S11488   1.543   3.790   8.880  0.0025  0.0921  0.9876
  111OSM   H16S11489   1.566   3.896   8.904 -2.0395  0.4623  1.4066
  111OSM   H16T11490   1.458   3.788   8.808  1.9223 -2.3445 -1.3363
  111OSM   C17S11491   1.665   3.729   8.814  0.9033  1.1001  0.1298
  111OSM   H17S11492   1.658   3.619   8.798 -0.6823  1.3980 -1.3765
  111OSM   H17T11493   1.748   3.734   8.888  0.4454  0.6886  0.6747
  111OSM   C18S11494   1.716   3.799   8.686  0.3849  0.1339  0.3642
  111OSM   H18S11495   1.650   3.773   8.601  1.1999  0.4125 -0.3564
  111OSM   H18T11496   1.822   3.772   8.667  0.1141 -1.6735  1.2802
  111OSM   H18U11497   1.724   3.909   8.700  1.0180  0.4090 -1.9951
  111OSM    C1F11498   0.768   3.954  10.419  0.0234  0.2673  0.1100
  111OSM     OF11499   0.874   3.963  10.481  0.0783 -0.4900 -0.0959
  111OSM    C2F11500   0.683   4.073  10.390  0.1973  0.0477  0.4256
  111OSM    H2F11501   0.633   4.102  10.486  2.7010  0.4008  1.6643
  111OSM    H2G11502   0.612   4.050  10.308  1.9655  0.7670 -1.3282
  111OSM    C3F11503   0.759   4.200  10.347  0.2480  0.2663  0.4216
  111OSM    H3F11504   0.834   4.236  10.421 -0.2639  0.1595  1.0027
  111OSM    H3G11505   0.681   4.277  10.335 -0.6369 -0.7961 -0.7836
  111OSM    C4F11506   0.830   4.192  10.208  0.7933  0.2900 -0.3031
  111OSM    H4F11507   0.905   4.110  10.208  0.2949 -0.1736  0.0724
  111OSM    H4G11508   0.892   4.283  10.197  0.3820  0.3029 -2.6707
  111OSM    C5F11509   0.738   4.173  10.086  0.7700 -0.3120 -0.2710
  111OSM    H5F11510   0.679   4.267  10.079  2.4092  0.8053  0.3690
  111OSM    H5G11511   0.660   4.098  10.110  1.4323  0.0123  3.1530
  111OSM    C6F11512   0.815   4.155   9.953  0.7087 -0.2781  0.6518
  111OSM    H6F11513   0.875   4.063   9.968  0.8862 -0.3439 -0.3774
  111OSM    H6G11514   0.898   4.225   9.929  0.2310 -0.2741 -1.1244
  111OSM    C7F11515   0.718   4.141   9.834 -0.1605  0.5450  0.9060
  111OSM    H7F11516   0.631   4.209   9.841 -2.1256 -1.7553 -0.4048
  111OSM    H7G11517   0.673   4.039   9.834  2.0438 -0.4823 -0.8863
  111OSM    C8F11518   0.780   4.168   9.698 -0.6590 -0.0921  1.1044
  111OSM    H8F11519   0.865   4.097   9.690 -1.2425 -0.7274  0.3846
  111OSM    H8G11520   0.815   4.272   9.681  1.2478 -1.0925 -1.4664
  111OSM    C9F11521   0.697   4.133   9.573 -0.2856  0.6428 -0.5189
  111OSM    H9F11522   0.589   4.141   9.594  0.0487  1.6207  0.8761
  111OSM   C10F11523   0.739   4.091   9.453  0.1636 -0.5559 -0.3941
  111OSM   H10F11524   0.663   4.090   9.373  1.0982  1.0795 -1.3314
  111OSM   C11F11525   0.880   4.070   9.407  0.2520  0.0939  0.4263
  111OSM   H11F11526   0.895   3.960   9.411  0.2684  0.1154  1.0071
  111OSM   H11G11527   0.958   4.114   9.473  0.4051  1.3466 -0.5936
  111OSM   C12F11528   0.895   4.128   9.262  0.5489  0.2273 -1.0232
  111OSM   H12F11529   0.908   4.238   9.256  0.4932  0.2128 -1.3840
  111OSM   H12G11530   0.806   4.095   9.204 -2.5186  2.8970  1.9645
  111OSM   C13F11531   1.021   4.082   9.190  0.5935 -0.2334 -0.0321
  111OSM   H13F11532   1.023   3.973   9.171  1.5436 -0.0955 -0.7759
  111OSM   H13G11533   1.117   4.113   9.236 -0.9565  3.8780  0.6993
  111OSM   C14F11534   1.032   4.141   9.045  0.3100 -0.2284  0.8910
  111OSM   H14F11535   1.042   4.251   9.047  2.6655 -0.3377 -1.8706
  111OSM   H14G11536   0.943   4.126   8.979  0.3982 -1.2907  1.0006
  111OSM   C15F11537   1.148   4.074   8.970  0.6037  1.3053  0.9700
  111OSM   H15F11538   1.131   3.971   8.931 -0.9118  2.4913 -1.5580
  111OSM   H15G11539   1.236   4.068   9.038  0.5294 -0.0291  0.9779
  111OSM   C16F11540   1.183   4.160   8.848  0.2647 -0.5564  0.5747
  111OSM   H16F11541   1.215   4.251   8.902  0.1123 -0.9175  1.2759
  111OSM   H16G11542   1.095   4.178   8.782  0.3411  2.3027  1.2068
  111OSM   C17F11543   1.311   4.109   8.775 -0.5253  0.5591  0.4713
  111OSM   H17F11544   1.367   4.034   8.835 -0.9712 -1.1127 -1.1499
  111OSM   H17G11545   1.381   4.193   8.757  0.7374 -0.8484 -1.3754
  111OSM   C18F11546   1.285   4.037   8.642  0.1328  0.7285  1.0864
  111OSM   H18F11547   1.216   3.953   8.664 -0.4235  0.9495  0.1752
  111OSM   H18G11548   1.376   4.000   8.591 -1.5310 -0.3643 -1.1434
  111OSM   H18H11549   1.229   4.104   8.574  0.3585 -0.4165 -0.2450
  112OSM      N11550   6.755   1.676  11.210 -0.0527 -0.4368  0.2163
  112OSM    C1511551   6.670   1.785  11.258  0.1536  0.4259 -0.6237
  112OSM   H15A11552   6.707   1.837  11.344 -0.3016  0.1890 -0.2844
  112OSM   H15B11553   6.576   1.744  11.293  0.9532 -1.1258 -0.2500
  112OSM   H15C11554   6.658   1.859  11.180 -0.9168 -0.5756 -1.4356
  112OSM    C1411555   6.887   1.724  11.185  0.3517  0.2053  0.7010
  112OSM   H14A11556   6.895   1.791  11.100 -1.1759  1.7286  1.7380
  112OSM   H14B11557   6.948   1.640  11.157 -0.6993 -0.3685  0.1172
  112OSM   H14C11558   6.933   1.777  11.268  0.4940 -1.6094  1.7921
  112OSM    C1311559   6.765   1.584  11.333 -0.4193  0.1215 -0.1230
  112OSM   H13A11560   6.799   1.486  11.302 -0.2962  0.1899 -0.2013
  112OSM   H13B11561   6.667   1.565  11.377  0.5559 -3.5883  0.6128
  112OSM   H13C11562   6.839   1.620  11.403  0.0006 -0.2047 -0.3987
  112OSM    C1211563   6.693   1.596  11.093 -0.5782 -0.0479  0.4133
  112OSM   H12A11564   6.665   1.678  11.029 -0.7321 -0.8176 -0.5178
  112OSM   H12B11565   6.615   1.531  11.130 -0.2003 -0.1616  1.0121
  112OSM    C1111566   6.789   1.514  11.010 -0.1439  0.4902 -0.0507
  112OSM   H11A11567   6.734   1.445  10.942 -1.2792  1.4792 -0.1558
  112OSM   H11B11568   6.853   1.449  11.072  0.5117 -0.0185 -1.2390
  112OSM      P11569   7.010   1.558  10.880  0.0484 -0.0673  0.3107
  112OSM    O1311570   7.091   1.666  10.834  0.2987 -0.2971  0.2648
  112OSM    O1411571   7.077   1.463  10.975  0.1108  0.0684  0.0264
  112OSM    O1111572   6.973   1.472  10.759  0.0121  0.1651  0.7976
  112OSM    O1211573   6.868   1.604  10.936 -1.0644  0.0618  0.3253
  112OSM    C1S11574   6.882   1.500  10.655 -0.4835  0.1599 -0.4131
  112OSM    H1S11575   6.849   1.606  10.656 -3.3033 -0.6020 -2.9332
  112OSM    H1T11576   6.787   1.444  10.669 -1.1221  1.6199  1.3134
  112OSM     NF11577   6.814   1.497  10.421  0.0574 -0.4100 -0.8769
  112OSM    HNF11578   6.748   1.428  10.393 -0.7122  0.6080 -1.5793
  112OSM    C2S11579   6.922   1.454  10.508 -0.0343 -0.1411 -0.0372
  112OSM    H2S11580   7.018   1.505  10.482 -0.5550  1.9264  1.9678
  112OSM    C3S11581   6.964   1.298  10.516 -0.4682 -0.0578 -0.1428
  112OSM    H3S11582   6.877   1.231  10.529 -0.0731 -0.4221  0.6390
  112OSM     O311583   7.064   1.271  10.618 -0.2528 -0.4421  0.1080
  112OSM    HO311584   7.073   1.348  10.674  0.1460  0.3676 -1.0616
  112OSM    C4S11585   7.037   1.253  10.390  0.7682 -0.4805 -1.2185
  112OSM    H4S11586   7.136   1.299  10.384  1.7325 -2.3550 -0.2167
  112OSM    C5S11587   6.993   1.176  10.295 -0.4391 -0.2071 -0.2309
  112OSM    H5S11588   6.896   1.124  10.301 -0.8313  0.4115 -1.0594
  112OSM    C6S11589   7.074   1.134  10.176  0.2713  0.2208  0.8900
  112OSM    H6S11590   7.088   1.024  10.162 -2.7939 -0.1823  0.4572
  112OSM    H6T11591   7.176   1.177  10.174  0.1309  0.5765  1.3342
  112OSM    C7S11592   7.007   1.174  10.045  0.1865  0.2718 -1.0212
  112OSM    H7S11593   7.021   1.283  10.032  3.8388  0.2078  1.6003
  112OSM    H7T11594   6.901   1.142  10.053  0.2538  0.2344 -0.2161
  112OSM    C8S11595   7.082   1.110   9.926 -1.4516  0.7125  0.7359
  112OSM    H8S11596   7.067   1.001   9.939  0.0883  0.4043  0.0264
  112OSM    H8T11597   7.188   1.139   9.912 -1.3837  0.9466  1.6928
  112OSM    C9S11598   7.014   1.144   9.794 -0.3986  0.0573  0.9501
  112OSM    H9S11599   7.032   1.254   9.793  1.3448 -0.2309 -0.0303
  112OSM    H9T11600   6.907   1.114   9.807  0.3450 -1.9678  2.7535
  112OSM   C10S11601   7.073   1.074   9.670  0.2002  0.2654 -0.0105
  112OSM   H10S11602   7.039   0.968   9.671  0.4970  0.1720  0.6226
  112OSM   H10T11603   7.183   1.078   9.688  0.2484  0.3550 -0.3212
  112OSM   C11S11604   7.036   1.134   9.534 -0.2499 -0.2110 -0.2741
  112OSM   H11S11605   7.038   1.245   9.530 -0.3845 -0.1930  0.1587
  112OSM   H11T11606   6.928   1.107   9.528 -0.4986  0.4879  0.8951
  112OSM   C12S11607   7.112   1.074   9.419 -0.0057 -0.6493 -0.0420
  112OSM   H12S11608   7.125   0.968   9.450  0.0651 -0.5853  0.1466
  112OSM   H12T11609   7.218   1.108   9.416 -0.9675  2.6390  1.2684
  112OSM   C13S11610   7.053   1.091   9.274  0.1463  0.3186  0.0759
  112OSM   H13S11611   7.060   1.201   9.257  0.4657  0.6326  2.0297
  112OSM   H13T11612   6.949   1.051   9.271 -0.7134  2.4975  0.0918
  112OSM   C14S11613   7.138   1.020   9.167  0.3593  0.5599  0.8343
  112OSM   H14S11614   7.167   0.913   9.174 -1.2685  0.0965  0.7341
  112OSM   H14T11615   7.237   1.072   9.170  0.4948  0.2656  1.5629
  112OSM   C15S11616   7.072   1.024   9.028 -0.4139 -0.5792  0.0822
  112OSM   H15S11617   7.043   1.124   8.990  0.6471  0.3918  1.7678
  112OSM   H15T11618   6.981   0.960   9.029 -0.3436 -0.8855 -4.1771
  112OSM   C16S11619   7.163   0.965   8.917 -0.4291 -0.0029 -0.8043
  112OSM   H16S11620   7.188   0.861   8.946  1.9303  0.7154 -0.1043
  112OSM   H16T11621   7.260   1.020   8.912  0.7134 -1.8725  0.0310
  112OSM   C17S11622   7.096   0.970   8.776 -0.3640 -0.1909  0.2099
  112OSM   H17S11623   7.047   1.069   8.764 -0.7990 -0.5942 -1.4426
  112OSM   H17T11624   7.014   0.895   8.777  0.5542 -1.1991  0.4845
  112OSM   C18S11625   7.196   0.938   8.657 -0.0398  0.6702  0.3730
  112OSM   H18S11626   7.263   0.852   8.681 -0.8121  0.4484  1.7835
  112OSM   H18T11627   7.258   1.027   8.635  1.8172 -0.4884  0.7082
  112OSM   H18U11628   7.136   0.905   8.570  0.3549  0.3483  0.2166
  112OSM    C1F11629   6.786   1.622  10.384  0.4215 -0.5717  0.5300
  112OSM     OF11630   6.837   1.720  10.442  0.0899 -0.5586  0.5522
  112OSM    C2F11631   6.684   1.633  10.268  0.4443 -0.0230 -0.7541
  112OSM    H2F11632   6.693   1.737  10.230 -1.6866  0.4035 -0.1467
  112OSM    H2G11633   6.580   1.624  10.306  0.4709  2.6155  0.0339
  112OSM    C3F11634   6.718   1.540  10.145  0.3771  0.9765  0.4576
  112OSM    H3F11635   6.726   1.433  10.173  0.2830 -0.1891 -3.6280
  112OSM    H3G11636   6.819   1.561  10.103  1.9513 -2.9859  1.9921
  112OSM    C4F11637   6.620   1.548  10.032 -0.3079 -0.6717  0.2824
  112OSM    H4F11638   6.615   1.653   9.995 -1.8033 -0.6493  0.5381
  112OSM    H4G11639   6.524   1.507  10.069  0.5705 -3.9043 -0.8768
  112OSM    C5F11640   6.649   1.457   9.910 -0.1601 -0.5174  0.4981
  112OSM    H5F11641   6.563   1.485   9.847 -0.6611 -1.5274  0.7167
  112OSM    H5G11642   6.638   1.351   9.944  2.0861 -0.9821 -0.1177
  112OSM    C6F11643   6.780   1.487   9.840  0.8966  0.1020 -0.2477
  112OSM    H6F11644   6.862   1.449   9.905  1.5792 -2.6139 -2.6027
  112OSM    H6G11645   6.787   1.593   9.808  1.5708  0.6390  1.6071
  112OSM    C7F11646   6.778   1.397   9.708  0.2806 -0.5010 -0.2745
  112OSM    H7F11647   6.754   1.292   9.732  0.5439 -0.2198  1.2738
  112OSM    H7G11648   6.880   1.402   9.665  0.2446 -3.3642 -0.7585
  112OSM    C8F11649   6.680   1.458   9.605 -0.1216  0.3665  0.7725
  112OSM    H8F11650   6.724   1.551   9.563  0.3030  0.3159  1.0976
  112OSM    H8G11651   6.576   1.481   9.636 -0.2157 -0.2123  0.8911
  112OSM    C9F11652   6.664   1.349   9.505  0.5493  0.9931  0.6567
  112OSM    H9F11653   6.584   1.278   9.532  2.9209 -2.0193 -0.0259
  112OSM   C10F11654   6.721   1.340   9.385 -0.2803  0.1415  0.0676
  112OSM   H10F11655   6.709   1.243   9.334  0.6851 -0.1185  0.3271
  112OSM   C11F11656   6.820   1.441   9.329 -0.0512  0.6439 -0.4489
  112OSM   H11F11657   6.900   1.384   9.278 -1.6509 -1.0466 -1.1081
  112OSM   H11G11658   6.870   1.502   9.408  0.8767  0.8862 -1.2156
  112OSM   C12F11659   6.774   1.533   9.215 -0.1442 -0.7038  0.4645
  112OSM   H12F11660   6.847   1.617   9.210  1.9676 -2.5531 -1.2912
  112OSM   H12G11661   6.677   1.582   9.234  0.1714  0.0856  0.0805
  112OSM   C13F11662   6.759   1.467   9.073 -0.9184 -0.1424  0.1473
  112OSM   H13F11663   6.702   1.373   9.087 -1.2737 -0.0816 -0.8488
  112OSM   H13G11664   6.857   1.430   9.038  0.2586  2.8911  0.0505
  112OSM   C14F11665   6.666   1.544   8.979 -0.3772  0.0151 -0.2447
  112OSM   H14F11666   6.697   1.649   9.000  0.4518 -0.6531  1.9363
  112OSM   H14G11667   6.564   1.523   9.019 -0.1088 -0.7801  0.0100
  112OSM   C15F11668   6.696   1.509   8.836  0.0732 -1.0295  0.4991
  112OSM   H15F11669   6.687   1.398   8.835  2.0200 -1.1883 -0.3767
  112OSM   H15G11670   6.793   1.539   8.791 -1.3406 -0.7270 -2.4771
  112OSM   C16F11671   6.590   1.553   8.726  0.6031  0.4847 -0.3927
  112OSM   H16F11672   6.621   1.538   8.621  0.5108 -0.3747 -0.3040
  112OSM   H16G11673   6.587   1.664   8.733  0.4896  0.4040  1.1865
  112OSM   C17F11674   6.451   1.491   8.758  1.2212 -0.2364  0.3049
  112OSM   H17F11675   6.422   1.506   8.864 -0.3672 -2.7630  0.2502
  112OSM   H17G11676   6.467   1.382   8.752  1.5991 -0.1876  0.4151
  112OSM   C18F11677   6.339   1.542   8.663  0.2864 -0.4365  0.2316
  112OSM   H18F11678   6.249   1.476   8.663  0.7893 -1.1359  0.8632
  112OSM   H18G11679   6.377   1.589   8.570  0.0317  0.1659  0.4260
  112OSM   H18H11680   6.308   1.640   8.705  2.4582  1.8913 -3.4034
  113OSM      N11681   0.430   1.027  10.806 -0.1016 -0.3041  0.3188
  113OSM    C1511682   0.291   1.075  10.840  0.4387  0.1483  0.2339
  113OSM   H15A11683   0.241   0.991  10.885  0.0570  0.6883  0.8174
  113OSM   H15B11684   0.239   1.110  10.751 -1.4095  2.7157  2.2414
  113OSM   H15C11685   0.297   1.165  10.900 -2.1924  1.0620 -0.7871
  113OSM    C1411686   0.489   1.141  10.736 -0.0909  0.2567  0.3640
  113OSM   H14A11687   0.424   1.171  10.655  2.2949  2.5655 -0.7660
  113OSM   H14B11688   0.592   1.122  10.706 -1.0940 -0.1444 -3.0977
  113OSM   H14C11689   0.498   1.232  10.794  0.2435  0.7535 -0.4560
  113OSM    C1311690   0.502   0.996  10.934 -0.6331  0.6489  0.1053
  113OSM   H13A11691   0.461   0.908  10.981 -0.7583  0.4473 -0.3779
  113OSM   H13B11692   0.504   1.069  11.013 -2.3787  1.2306 -0.3700
  113OSM   H13C11693   0.602   0.963  10.910 -0.5016  0.3500  1.0375
  113OSM    C1211694   0.435   0.904  10.718 -0.2684  0.0928  0.2178
  113OSM   H12A11695   0.539   0.888  10.695 -0.7537 -2.7631 -0.0905
  113OSM   H12B11696   0.386   0.924  10.624  0.8144 -0.3700 -0.4532
  113OSM    C1111697   0.370   0.768  10.765 -0.7544 -0.3267  0.2262
  113OSM   H11A11698   0.343   0.706  10.677 -0.6751  1.9018 -1.4058
  113OSM   H11B11699   0.269   0.783  10.810 -0.7718  0.3785 -0.0383
  113OSM      P11700   0.556   0.599  10.799  0.1539 -0.0678 -0.2419
  113OSM    O1311701   0.634   0.556  10.908 -0.5336  0.2301  0.0193
  113OSM    O1411702   0.478   0.503  10.718  0.1249 -0.0441  0.4125
  113OSM    O1111703   0.646   0.689  10.701 -0.3515  0.3334  0.0853
  113OSM    O1211704   0.460   0.704  10.853 -0.2580 -0.0723 -0.4223
  113OSM    C1S11705   0.767   0.628  10.646  0.1975  0.3672 -0.5260
  113OSM    H1S11706   0.813   0.545  10.704 -0.2532  1.7361  1.8275
  113OSM    H1T11707   0.856   0.693  10.637  2.4586 -2.2950  1.8191
  113OSM     NF11708   0.867   0.535  10.453  0.4830 -0.3656 -1.1265
  113OSM    HNF11709   0.901   0.616  10.405 -1.0256  0.1825 -1.2912
  113OSM    C2S11710   0.732   0.566  10.508  0.2862 -0.6649 -0.1382
  113OSM    H2S11711   0.665   0.478  10.516  0.3134 -0.8826 -1.9751
  113OSM    C3S11712   0.653   0.673  10.425 -0.2077 -0.0526 -0.3897
  113OSM    H3S11713   0.712   0.766  10.433  3.3886 -2.2163 -0.4808
  113OSM     O311714   0.524   0.696  10.472 -0.1379  0.4450  0.3009
  113OSM    HO311715   0.526   0.681  10.567 -1.3569  2.8448  0.7712
  113OSM    C4S11716   0.647   0.633  10.279 -0.4520 -0.1371 -0.4560
  113OSM    H4S11717   0.750   0.611  10.247 -1.5622 -2.2655 -2.6472
  113OSM    C5S11718   0.536   0.618  10.204  0.0746  0.3062  0.1944
  113OSM    H5S11719   0.436   0.628  10.247 -0.2960 -1.0759 -0.3155
  113OSM    C6S11720   0.536   0.585  10.062  0.2180  0.1480 -0.2336
  113OSM    H6S11721   0.490   0.670  10.009 -0.6452  0.5959  1.2070
  113OSM    H6T11722   0.480   0.490  10.049 -0.6266  0.6619 -0.3910
  113OSM    C7S11723   0.671   0.564   9.984  0.4523 -0.5175  0.0530
  113OSM    H7S11724   0.724   0.472  10.016  0.0243 -0.4815  0.8571
  113OSM    H7T11725   0.732   0.654  10.007 -0.3008  0.3633 -1.2995
  113OSM    C8S11726   0.651   0.580   9.839  0.2831 -0.2394 -0.2450
  113OSM    H8S11727   0.748   0.597   9.789  0.1567  0.9673 -0.0827
  113OSM    H8T11728   0.581   0.661   9.809  2.7816  1.1091 -2.6828
  113OSM    C9S11729   0.596   0.444   9.794  0.4831 -0.2629 -0.1869
  113OSM    H9S11730   0.487   0.430   9.810  0.5745  2.6003  3.6756
  113OSM    H9T11731   0.654   0.361   9.840  2.0000 -0.0079 -1.5897
  113OSM   C10S11732   0.625   0.413   9.647  0.3127  0.1793 -0.7163
  113OSM   H10S11733   0.593   0.308   9.627  0.3711 -0.2539  1.3204
  113OSM   H10T11734   0.735   0.432   9.644  0.3317 -0.0312 -1.4854
  113OSM   C11S11735   0.557   0.508   9.556  0.0491  0.5187 -0.6329
  113OSM   H11S11736   0.566   0.613   9.591  0.6454  0.6345 -1.1242
  113OSM   H11T11737   0.448   0.489   9.555  0.1326 -0.2355  1.4683
  113OSM   C12S11738   0.620   0.510   9.414  0.8771 -0.8480  0.3925
  113OSM   H12S11739   0.730   0.522   9.421  0.7340  0.1155  1.3045
  113OSM   H12T11740   0.583   0.600   9.360 -0.8833 -0.9533  1.3782
  113OSM   C13S11741   0.599   0.383   9.327 -0.0979  0.5076  0.8251
  113OSM   H13S11742   0.494   0.347   9.317 -0.5525  1.8860  0.6134
  113OSM   H13T11743   0.654   0.295   9.369  0.4671  0.9801  1.0858
  113OSM   C14S11744   0.660   0.410   9.183 -0.2301 -0.3146  0.4732
  113OSM   H14S11745   0.768   0.430   9.198  0.4558 -0.5879 -3.6496
  113OSM   H14T11746   0.609   0.503   9.150  1.9017  0.6600 -0.1731
  113OSM   C15S11747   0.657   0.292   9.087  0.8462 -0.4664  0.1672
  113OSM   H15S11748   0.550   0.267   9.078  0.3684  0.9620  1.6922
  113OSM   H15T11749   0.713   0.205   9.130  1.4725 -0.2908 -0.2780
  113OSM   C16S11750   0.709   0.334   8.959  0.4826 -0.5085 -0.1993
  113OSM   H16S11751   0.819   0.349   8.950  0.6288 -2.3345 -1.8877
  113OSM   H16T11752   0.665   0.429   8.921  1.9257  0.7570  1.1829
  113OSM   C17S11753   0.690   0.219   8.850  0.0974 -0.4150  0.1962
  113OSM   H17S11754   0.668   0.282   8.761  0.2502 -0.2278  0.2922
  113OSM   H17T11755   0.604   0.159   8.888 -1.7834  1.3744 -1.0706
  113OSM   C18S11756   0.808   0.126   8.823  0.2761  0.2271  0.6209
  113OSM   H18S11757   0.771   0.053   8.748 -0.8869  0.2986  1.1194
  113OSM   H18T11758   0.844   0.091   8.922 -0.3415 -1.0494  0.4035
  113OSM   H18U11759   0.896   0.179   8.781  1.6843  0.0721  3.2409
  113OSM    C1F11760   0.948   0.434  10.489 -0.1083 -0.4578  0.2108
  113OSM     OF11761   0.909   0.351  10.567  0.0030  0.7202 -0.8266
  113OSM    C2F11762   1.095   0.429  10.448 -0.0393 -1.0956  0.1273
  113OSM    H2F11763   1.165   0.405  10.531 -0.1061  1.2959  0.9304
  113OSM    H2G11764   1.119   0.534  10.420 -1.3110 -1.1595 -1.2796
  113OSM    C3F11765   1.119   0.316  10.344  0.2843  0.0059 -1.1624
  113OSM    H3F11766   1.063   0.223  10.366 -1.0976  1.0345 -0.2131
  113OSM    H3G11767   1.226   0.293  10.358  0.5535  2.0013  0.2383
  113OSM    C4F11768   1.102   0.352  10.199  0.0339  0.5753 -0.7994
  113OSM    H4F11769   1.176   0.430  10.174  0.2498  0.3141 -0.9799
  113OSM    H4G11770   1.001   0.395  10.182 -0.8219 -1.7568 -1.8007
  113OSM    C5F11771   1.118   0.234  10.107  0.1040  0.0494 -0.0650
  113OSM    H5F11772   1.040   0.155  10.120 -1.0716  0.5741 -3.6379
  113OSM    H5G11773   1.214   0.178  10.115  1.8993  3.1451  0.7812
  113OSM    C6F11774   1.111   0.279   9.959 -0.2033  0.2683  0.1453
  113OSM    H6F11775   1.185   0.361   9.954  1.1653 -0.8869  0.8638
  113OSM    H6G11776   1.017   0.327   9.926 -0.2450 -1.6610 -2.7634
  113OSM    C7F11777   1.152   0.167   9.871 -0.3117  0.4385 -0.3989
  113OSM    H7F11778   1.068   0.094   9.865 -0.5957  0.8716 -1.7043
  113OSM    H7G11779   1.237   0.116   9.922 -1.1793 -1.7516 -1.0474
  113OSM    C8F11780   1.181   0.212   9.721  0.2545 -0.6510  1.2700
  113OSM    H8F11781   1.214   0.114   9.681 -1.2449 -0.6935  0.0878
  113OSM    H8G11782   1.267   0.281   9.740  0.5813 -0.4116 -0.9393
  113OSM    C9F11783   1.061   0.275   9.649 -0.2466 -0.0421 -0.1043
  113OSM    H9F11784   1.019   0.371   9.685  1.3422  1.0096 -1.0222
  113OSM   C10F11785   1.000   0.214   9.546  0.2203 -0.5102 -0.4580
  113OSM   H10F11786   0.908   0.264   9.512  0.1681  0.5710  1.2525
  113OSM   C11F11787   1.045   0.088   9.472  0.4785  0.1282  0.3480
  113OSM   H11F11788   0.953   0.049   9.423  1.8599 -0.3060 -2.0066
  113OSM   H11G11789   1.083   0.011   9.543 -3.2256 -1.2563  0.9827
  113OSM   C12F11790   1.145   0.128   9.354  0.1681  0.7529  0.7169
  113OSM   H12F11791   1.234   0.183   9.390  0.9441 -1.8402  2.9022
  113OSM   H12G11792   1.079   0.194   9.293 -0.4533 -0.4187  0.1013
  113OSM   C13F11793   1.188   0.011   9.264 -0.1950  0.4798 -0.7078
  113OSM   H13F11794   1.097  -0.041   9.226 -1.0011  1.6264 -0.3665
  113OSM   H13G11795   1.239  -0.065   9.327  1.0572 -0.8119 -3.1937
  113OSM   C14F11796   1.265   0.049   9.139 -0.4305 -0.0369  0.1793
  113OSM   H14F11797   1.372   0.073   9.159 -0.4090  0.1134 -0.1048
  113OSM   H14G11798   1.220   0.150   9.129 -0.0928  0.3951  2.6878
  113OSM   C15F11799   1.232  -0.030   9.005  0.1802  0.3398 -0.3244
  113OSM   H15F11800   1.124  -0.049   9.019  0.2215 -0.7493 -1.4135
  113OSM   H15G11801   1.292  -0.122   9.021  1.6703  1.3936  0.2983
  113OSM   C16F11802   1.281   0.028   8.873  0.3590  0.0753 -0.7892
  113OSM   H16F11803   1.245  -0.025   8.782 -1.7925 -1.3535  0.8672
  113OSM   H16G11804   1.392   0.023   8.884  0.5238  1.2109 -1.7648
  113OSM   C17F11805   1.249   0.184   8.860  0.0515  0.5790  0.4759
  113OSM   H17F11806   1.292   0.239   8.946  0.5372  0.4670  0.3078
  113OSM   H17G11807   1.139   0.195   8.857 -0.0296 -0.4009 -2.2091
  113OSM   C18F11808   1.316   0.254   8.733  0.1173 -0.1660 -0.5308
  113OSM   H18F11809   1.301   0.362   8.753  1.0208 -0.5587  2.4229
  113OSM   H18G11810   1.267   0.232   8.636 -0.6390 -0.3104 -0.1183
  113OSM   H18H11811   1.421   0.219   8.734  0.0293 -0.4274 -0.3207
  114OSM      N11812   1.066   6.315  11.853 -0.2064 -0.1027 -0.3213
  114OSM    C1511813   1.080   6.388  11.984  0.7894 -0.9185  0.4350
  114OSM   H15A11814   1.171   6.359  12.035 -1.0436 -1.6107  3.4063
  114OSM   H15B11815   1.005   6.354  12.052 -0.1802 -2.1018 -1.1964
  114OSM   H15C11816   1.075   6.496  11.971  2.4311 -1.1277 -2.4386
  114OSM    C1411817   1.193   6.357  11.777 -0.0025  0.4831  0.0115
  114OSM   H14A11818   1.205   6.304  11.683 -0.3537  1.2714 -0.4818
  114OSM   H14B11819   1.277   6.336  11.841 -0.2509  1.1440  0.5524
  114OSM   H14C11820   1.205   6.461  11.752 -0.1889  0.4984 -0.0134
  114OSM    C1311821   1.075   6.166  11.875  0.0014  0.7474 -0.3821
  114OSM   H13A11822   0.990   6.120  11.922 -0.2087  0.3121 -1.1820
  114OSM   H13B11823   1.168   6.140  11.924 -2.2772 -2.9989  2.2051
  114OSM   H13C11824   1.092   6.126  11.776  1.5703  1.6875 -0.5138
  114OSM    C1211825   0.941   6.357  11.783 -0.0540 -0.2597  0.3221
  114OSM   H12A11826   0.963   6.463  11.780  1.8036 -0.5127  3.1634
  114OSM   H12B11827   0.851   6.333  11.837 -1.2260  0.2524 -1.3451
  114OSM    C1111828   0.908   6.291  11.645 -0.2162 -0.3002  0.5297
  114OSM   H11A11829   0.832   6.366  11.613  0.6567  0.8728  1.1632
  114OSM   H11B11830   0.861   6.191  11.650 -2.0249  0.4451 -0.9219
  114OSM      P11831   1.086   6.165  11.491 -0.2273 -0.1447  0.5850
  114OSM    O1311832   1.226   6.175  11.544  0.2954 -0.0462 -0.0050
  114OSM    O1411833   1.007   6.046  11.533  0.3310  0.0878 -0.2734
  114OSM    O1111834   1.081   6.184  11.329 -0.0362  0.0802  0.0386
  114OSM    O1211835   1.014   6.293  11.547  0.1891 -0.0406  0.1780
  114OSM    C1S11836   1.186   6.251  11.256 -0.0169 -0.4124 -1.1046
  114OSM    H1S11837   1.286   6.204  11.267  0.0361 -0.4013 -1.5366
  114OSM    H1T11838   1.198   6.359  11.277  3.5169 -1.1537  1.1898
  114OSM     NF11839   1.271   6.284  11.018  0.6739  0.7850 -0.3223
  114OSM    HNF11840   1.260   6.372  10.972  1.8696  0.3850 -1.4160
  114OSM    C2S11841   1.155   6.235  11.099 -0.0112  0.2506  0.1405
  114OSM    H2S11842   1.135   6.130  11.068  0.9671 -0.1102  0.7259
  114OSM    C3S11843   1.037   6.319  11.061 -0.2246  0.4967  0.1872
  114OSM    H3S11844   1.051   6.426  11.086 -1.2033  0.9215 -1.0237
  114OSM     O311845   0.923   6.293  11.140  0.0270 -0.2997 -0.1513
  114OSM    HO311846   0.961   6.260  11.222  0.8464  2.9081  0.8254
  114OSM    C4S11847   1.005   6.299  10.911  0.1735 -0.2913  0.1962
  114OSM    H4S11848   1.015   6.197  10.871  0.6313 -0.4667  0.7568
  114OSM    C5S11849   0.988   6.400  10.823  0.4523  0.0974 -0.0646
  114OSM    H5S11850   0.990   6.502  10.865  0.7275 -0.3417  0.9848
  114OSM    C6S11851   0.966   6.405  10.674 -0.5947  0.3501 -0.2732
  114OSM    H6S11852   1.042   6.471  10.627 -1.3495  0.9543 -0.6677
  114OSM    H6T11853   0.869   6.456  10.659 -2.1016 -2.0285  1.0643
  114OSM    C7S11854   0.959   6.263  10.602 -0.3700 -0.1720  0.0294
  114OSM    H7S11855   0.880   6.203  10.651  0.7246 -1.7781 -0.1591
  114OSM    H7T11856   1.059   6.217  10.615 -0.3525 -0.7760 -2.0589
  114OSM    C8S11857   0.926   6.274  10.454 -0.5096 -0.0237 -0.2868
  114OSM    H8S11858   1.009   6.335  10.412  0.8955 -1.7910 -0.1291
  114OSM    H8T11859   0.828   6.327  10.456 -1.4536 -1.6291 -2.4252
  114OSM    C9S11860   0.912   6.141  10.386 -0.0760 -0.1528  0.5859
  114OSM    H9S11861   0.829   6.086  10.435  0.1697 -0.7296  0.3528
  114OSM    H9T11862   0.999   6.075  10.403 -0.5378 -1.1220 -0.7397
  114OSM   C10S11863   0.905   6.141  10.233 -0.2894 -0.7684  0.9696
  114OSM   H10S11864   0.847   6.052  10.201 -2.1327 -0.7639  4.0964
  114OSM   H10T11865   1.000   6.139  10.175  0.9270  0.5603  2.8942
  114OSM   C11S11866   0.826   6.263  10.177  0.4300 -0.9653 -0.6719
  114OSM   H11S11867   0.874   6.361  10.196  1.2842 -1.1243 -1.9550
  114OSM   H11T11868   0.729   6.266  10.232  0.8860  1.6621  0.0331
  114OSM   C12S11869   0.783   6.247  10.023  0.5693 -0.2325 -0.1274
  114OSM   H12S11870   0.735   6.150   9.997  0.4325 -0.2115  0.0392
  114OSM   H12T11871   0.877   6.236   9.966 -0.8726  1.7936 -3.0162
  114OSM   C13S11872   0.699   6.372   9.979  0.5598  0.4089  0.6681
  114OSM   H13S11873   0.764   6.461   9.996  0.9319 -0.0219  1.5208
  114OSM   H13T11874   0.609   6.382  10.044 -0.9265 -1.1142 -1.0806
  114OSM   C14S11875   0.672   6.373   9.823 -0.7476  0.4228 -0.4642
  114OSM   H14S11876   0.765   6.349   9.767  0.4750  2.2490  0.7122
  114OSM   H14T11877   0.637   6.477   9.803  0.4705  0.9257 -0.0822
  114OSM   C15S11878   0.561   6.273   9.799 -0.2891 -0.4133  0.4484
  114OSM   H15S11879   0.484   6.284   9.878  0.7043 -1.4812  1.5858
  114OSM   H15T11880   0.598   6.172   9.829  0.0403 -0.3255  0.3339
  114OSM   C16S11881   0.509   6.274   9.658  0.4012 -0.0850  0.2098
  114OSM   H16S11882   0.472   6.377   9.642  1.9962  0.6078  0.8621
  114OSM   H16T11883   0.419   6.210   9.645 -0.0955  0.7031 -0.2863
  114OSM   C17S11884   0.600   6.234   9.541 -0.2011 -0.0837 -0.0446
  114OSM   H17S11885   0.642   6.135   9.567 -2.2500 -1.3281 -1.3710
  114OSM   H17T11886   0.688   6.302   9.541 -0.8029  0.7064 -0.2072
  114OSM   C18S11887   0.528   6.236   9.405  0.7665 -0.4507  0.2636
  114OSM   H18S11888   0.454   6.317   9.392  1.1157 -0.3390 -1.1109
  114OSM   H18T11889   0.466   6.146   9.388  1.0060  0.0227 -3.6019
  114OSM   H18U11890   0.612   6.236   9.331  1.2996 -2.0511  0.8386
  114OSM    C1F11891   1.388   6.232  11.002 -0.1606 -0.9755  0.6571
  114OSM     OF11892   1.422   6.124  11.058  0.3088  0.1520  0.5277
  114OSM    C2F11893   1.476   6.296  10.907 -0.2091  0.1984 -0.0097
  114OSM    H2F11894   1.570   6.301  10.966 -0.1927 -2.4470  0.2520
  114OSM    H2G11895   1.442   6.399  10.885  0.6779 -0.0588 -2.7044
  114OSM    C3F11896   1.516   6.218  10.782 -0.0212  0.1099  0.2825
  114OSM    H3F11897   1.546   6.115  10.811  2.3774  0.1478 -1.8531
  114OSM    H3G11898   1.607   6.264  10.737  0.4593 -0.0197  1.1059
  114OSM    C4F11899   1.411   6.220  10.669 -0.6969  0.1629  0.2433
  114OSM    H4F11900   1.378   6.323  10.641 -1.9889 -0.0594  0.8688
  114OSM    H4G11901   1.326   6.164  10.714 -0.7528  0.9862  1.1778
  114OSM    C5F11902   1.466   6.153  10.544  0.2087  0.1913  0.5032
  114OSM    H5F11903   1.503   6.060  10.591 -1.6157 -0.4140  0.7588
  114OSM    H5G11904   1.548   6.212  10.498  0.6544 -2.1257 -1.8510
  114OSM    C6F11905   1.357   6.129  10.439  0.0369 -0.1578  0.5403
  114OSM    H6F11906   1.350   6.225  10.383 -1.5857 -0.6969 -0.2104
  114OSM    H6G11907   1.257   6.127  10.486  0.0369  0.2043  0.5588
  114OSM    C7F11908   1.393   6.027  10.339  0.2550 -0.7979  0.0874
  114OSM    H7F11909   1.356   5.927  10.373 -0.5174 -0.3137  0.6834
  114OSM    H7G11910   1.503   6.016  10.348  0.3538  0.2721  0.1712
  114OSM    C8F11911   1.347   6.049  10.191 -0.3328 -0.3177 -0.1781
  114OSM    H8F11912   1.390   6.145  10.154  2.0171 -1.3884 -0.3695
  114OSM    H8G11913   1.238   6.053  10.207 -0.5630 -0.1246 -1.7312
  114OSM    C9F11914   1.365   5.932  10.103  0.6125 -0.0419 -0.7226
  114OSM    H9F11915   1.330   5.842  10.157  1.8966  1.3649  2.5761
  114OSM   C10F11916   1.412   5.934   9.978 -0.6576  0.0581 -0.1833
  114OSM   H10F11917   1.428   5.841   9.922  2.7942  0.6519 -0.2963
  114OSM   C11F11918   1.453   6.064   9.903  0.2110  0.3798 -0.5031
  114OSM   H11F11919   1.411   6.161   9.939 -2.0005 -0.5831 -0.3771
  114OSM   H11G11920   1.412   6.048   9.801 -0.8336 -0.5940  0.0575
  114OSM   C12F11921   1.605   6.079   9.894 -0.1707  0.6679 -0.4785
  114OSM   H12F11922   1.651   5.985   9.856  0.4051  0.7346  0.0426
  114OSM   H12G11923   1.640   6.099   9.997 -1.1715  1.1748 -0.2303
  114OSM   C13F11924   1.653   6.188   9.798 -0.4101 -0.8455 -0.3265
  114OSM   H13F11925   1.763   6.179   9.799 -0.2762  0.7641  1.6724
  114OSM   H13G11926   1.624   6.288   9.836  0.6224 -0.8656  0.5361
  114OSM   C14F11927   1.604   6.183   9.649 -0.1938  0.4639  0.0766
  114OSM   H14F11928   1.645   6.277   9.605  2.2354 -1.2862 -1.5357
  114OSM   H14G11929   1.493   6.181   9.648 -0.2320  1.9818 -0.2556
  114OSM   C15F11930   1.658   6.065   9.578  0.4284  0.4120 -0.8530
  114OSM   H15F11931   1.602   5.979   9.622 -0.9490  2.0270  0.6601
  114OSM   H15G11932   1.763   6.045   9.606  0.9994  2.0065 -1.7903
  114OSM   C16F11933   1.637   6.076   9.429 -0.1336 -0.0203  0.2165
  114OSM   H16F11934   1.553   6.147   9.411  0.9340  1.1512 -0.1887
  114OSM   H16G11935   1.613   5.974   9.390 -0.3453  0.8517 -2.0513
  114OSM   C17F11936   1.763   6.113   9.351  0.4398 -0.4753 -1.2850
  114OSM   H17F11937   1.840   6.052   9.402 -0.8878 -1.0322  0.0843
  114OSM   H17G11938   1.792   6.220   9.360 -0.0290 -0.5405  1.1816
  114OSM   C18F11939   1.742   6.073   9.201 -0.5801 -0.1786 -0.2897
  114OSM   H18F11940   1.729   5.964   9.185  2.1832 -0.3252 -2.0305
  114OSM   H18G11941   1.833   6.109   9.147  0.0070 -1.2568 -0.0207
  114OSM   H18H11942   1.650   6.125   9.166 -0.9256 -1.9173 -2.0522
  115OSM      N11943   3.689   2.909   6.270 -0.0506 -0.2522 -0.4461
  115OSM    C1511944   3.686   2.894   6.420  0.0217 -0.0953  1.0377
  115OSM   H15A11945   3.624   2.973   6.458 -2.3882 -1.2022 -0.4157
  115OSM   H15B11946   3.785   2.894   6.463 -0.2682  1.8195  1.7289
  115OSM   H15C11947   3.629   2.803   6.438  0.7553 -1.0399 -1.2251
  115OSM    C1411948   3.712   3.051   6.218 -0.0318  0.2720  0.6382
  115OSM   H14A11949   3.769   3.103   6.294 -0.3945 -0.3262  1.3268
  115OSM   H14B11950   3.623   3.107   6.195  0.5457  1.6952  1.8103
  115OSM   H14C11951   3.772   3.058   6.129  0.3194 -0.5423  0.8028
  115OSM    C1311952   3.804   2.819   6.216 -0.7359  0.1804 -0.1966
  115OSM   H13A11953   3.800   2.711   6.221  0.1233  0.1877  0.6011
  115OSM   H13B11954   3.898   2.841   6.264 -1.2016  0.7947  0.4358
  115OSM   H13C11955   3.829   2.839   6.113 -0.0187 -1.7260 -0.4033
  115OSM    C1211956   3.564   2.860   6.201  0.8479  0.0156  0.2616
  115OSM   H12A11957   3.554   2.759   6.238  0.4577 -0.0201  0.0678
  115OSM   H12B11958   3.580   2.860   6.094  3.0432  1.4865  0.5548
  115OSM    C1111959   3.434   2.935   6.236  0.4528  0.2670 -0.1382
  115OSM   H11A11960   3.419   3.022   6.168  0.5909 -0.2652 -0.8623
  115OSM   H11B11961   3.434   2.969   6.342 -0.6648 -0.0475 -0.0343
  115OSM      P11962   3.178   2.878   6.284  0.0661  0.2654  0.1434
  115OSM    O1311963   3.132   3.002   6.219 -0.1249  0.5085 -0.0515
  115OSM    O1411964   3.098   2.758   6.261  0.4231  0.2402 -0.6183
  115OSM    O1111965   3.188   2.897   6.442  0.6008 -0.7502  0.5780
  115OSM    O1211966   3.326   2.842   6.219 -0.0268 -0.0765 -1.0885
  115OSM    C1S11967   3.276   2.816   6.520  0.0512 -0.1951  0.1765
  115OSM    H1S11968   3.383   2.814   6.489  0.0297  2.1772 -0.1630
  115OSM    H1T11969   3.254   2.707   6.509  1.5589 -0.4141 -0.8452
  115OSM     NF11970   3.352   2.823   6.756 -0.3691 -0.3266 -0.6917
  115OSM    HNF11971   3.330   2.753   6.824  1.3971 -2.0670 -1.8631
  115OSM    C2S11972   3.244   2.853   6.667 -0.4020  0.4393 -0.2018
  115OSM    H2S11973   3.220   2.962   6.672  2.4592  1.0698  0.6703
  115OSM    C3S11974   3.101   2.790   6.701  0.5579  0.1105  0.2098
  115OSM    H3S11975   3.115   2.681   6.715 -0.7689 -0.3160 -1.5879
  115OSM     O311976   3.001   2.804   6.600 -0.3585 -0.3874 -0.0329
  115OSM    HO311977   3.042   2.878   6.554 -1.2109  0.6523  0.8607
  115OSM    C4S11978   3.049   2.846   6.833  0.2651 -0.7268  0.2610
  115OSM    H4S11979   3.037   2.955   6.840 -1.8098 -0.9507  0.4525
  115OSM    C5S11980   2.995   2.776   6.937 -0.4599 -0.4577  0.9868
  115OSM    H5S11981   2.987   2.667   6.948  0.0480 -0.4214  1.7008
  115OSM    C6S11982   2.936   2.843   7.061 -0.2169  0.7755 -0.0454
  115OSM    H6S11983   3.020   2.831   7.132  0.1549  0.1103 -0.5902
  115OSM    H6T11984   2.839   2.796   7.091 -0.4707  0.0556 -1.9110
  115OSM    C7S11985   2.904   2.992   7.055  0.8851 -0.0600  0.4033
  115OSM    H7S11986   2.816   3.002   6.987  1.3826 -1.9651 -0.5382
  115OSM    H7T11987   2.989   3.049   7.011  0.5713  0.0733 -0.0357
  115OSM    C8S11988   2.866   3.051   7.190 -0.3394 -0.0167 -0.5578
  115OSM    H8S11989   2.784   2.986   7.230  0.0965  0.3273  0.9327
  115OSM    H8T11990   2.813   3.149   7.186  1.9623  1.3116  0.6712
  115OSM    C9S11991   2.990   3.065   7.280 -0.4030 -0.1801  0.3151
  115OSM    H9S11992   3.029   3.167   7.258  2.6425 -1.3768 -0.1167
  115OSM    H9T11993   3.072   2.995   7.255  1.1716  1.9878 -0.8033
  115OSM   C10S11994   2.957   3.058   7.432 -0.0433  0.4842  0.3411
  115OSM   H10S11995   2.879   3.130   7.464 -1.5432 -0.0019 -2.0885
  115OSM   H10T11996   3.050   3.095   7.481  1.5569 -0.4643 -1.8832
  115OSM   C11S11997   2.923   2.920   7.484  0.1760 -0.4722 -0.4358
  115OSM   H11S11998   3.012   2.855   7.465  0.5234 -0.8500  2.3685
  115OSM   H11T11999   2.841   2.879   7.422 -0.6595 -1.2583  1.1783
  115OSM   C12S12000   2.893   2.916   7.637  0.8086  0.1555  0.1715
  115OSM   H12S12001   2.854   2.815   7.660  1.3052  0.4450  2.4612
  115OSM   H12T12002   2.813   2.988   7.663 -0.0996 -0.5061 -0.7680
  115OSM   C13S12003   3.014   2.949   7.728 -0.0247 -0.2379  0.5716
  115OSM   H13S12004   2.999   3.054   7.764  1.7652  0.7606 -1.5015
  115OSM   H13T12005   3.106   2.938   7.667 -0.7743  0.3028 -0.6743
  115OSM   C14S12006   3.031   2.865   7.859  0.4940  0.1853  0.0522
  115OSM   H14S12007   3.120   2.908   7.910  2.3528 -3.2127 -0.1844
  115OSM   H14T12008   3.057   2.761   7.831  0.7359  1.2069 -3.7951
  115OSM   C15S12009   2.906   2.883   7.943  0.0646 -0.5481 -0.1971
  115OSM   H15S12010   2.831   2.828   7.883 -0.7159 -0.3977  0.6338
  115OSM   H15T12011   2.889   2.993   7.943 -0.3051 -0.6052  0.3665
  115OSM   C16S12012   2.886   2.824   8.085  1.1541  0.0878  0.8225
  115OSM   H16S12013   2.899   2.717   8.061 -0.1414 -0.2214  1.4716
  115OSM   H16T12014   2.780   2.839   8.114  0.7259  0.1076 -0.7058
  115OSM   C17S12015   2.987   2.872   8.186  1.4503 -0.0128 -0.4340
  115OSM   H17S12016   3.085   2.824   8.161  1.0709 -0.4939 -1.0222
  115OSM   H17T12017   2.951   2.843   8.287 -1.1343  2.8310 -0.4635
  115OSM   C18S12018   3.001   3.024   8.192 -0.3241 -1.1047 -0.3269
  115OSM   H18S12019   3.062   3.065   8.107  1.2136 -1.0828  0.7643
  115OSM   H18T12020   3.047   3.055   8.288 -0.6011  1.3354 -0.9538
  115OSM   H18U12021   2.897   3.057   8.173 -0.4746 -1.8685 -0.8522
  115OSM    C1F12022   3.456   2.902   6.760 -0.5893  0.0112 -0.0755
  115OSM     OF12023   3.478   2.981   6.675  0.4524  0.1300  0.4509
  115OSM    C2F12024   3.534   2.885   6.892 -0.0155 -1.0400 -0.0240
  115OSM    H2F12025   3.584   2.981   6.916  0.2609 -1.1043 -0.3174
  115OSM    H2G12026   3.606   2.805   6.861  1.9546  0.9390 -0.6491
  115OSM    C3F12027   3.454   2.838   7.019 -0.3015  0.1412  0.9049
  115OSM    H3F12028   3.408   2.738   7.002 -0.0496  0.4826 -2.0409
  115OSM    H3G12029   3.368   2.906   7.034 -1.1524 -1.1096  1.7695
  115OSM    C4F12030   3.547   2.832   7.146  0.3145  0.2227  0.7524
  115OSM    H4F12031   3.598   2.929   7.161  0.1523  0.6408 -1.2292
  115OSM    H4G12032   3.615   2.745   7.130  1.6385  1.3338  0.2747
  115OSM    C5F12033   3.459   2.801   7.265 -0.9976  0.2130  0.0794
  115OSM    H5F12034   3.420   2.697   7.257 -0.4088 -0.0337  0.3623
  115OSM    H5G12035   3.372   2.867   7.283 -1.6433 -0.1339 -1.6587
  115OSM    C6F12036   3.537   2.806   7.396 -0.2065  0.0833  0.3470
  115OSM    H6F12037   3.600   2.896   7.379 -0.0048 -0.1239 -0.0127
  115OSM    H6G12038   3.598   2.714   7.407  1.2595  0.7523 -1.9677
  115OSM    C7F12039   3.440   2.810   7.516  0.2479  0.4898  0.3875
  115OSM    H7F12040   3.358   2.735   7.510  1.3079 -0.4634 -3.5981
  115OSM    H7G12041   3.389   2.909   7.517 -0.0472  0.3471 -0.1583
  115OSM    C8F12042   3.508   2.788   7.658 -0.0350  0.4712  0.4448
  115OSM    H8F12043   3.589   2.859   7.681  1.5143 -1.2632  0.4532
  115OSM    H8G12044   3.556   2.688   7.651 -2.6261 -0.7011 -1.5689
  115OSM    C9F12045   3.392   2.794   7.752 -0.3838 -0.0247 -0.3210
  115OSM    H9F12046   3.324   2.876   7.726 -0.7794 -0.5466 -0.9314
  115OSM   C10F12047   3.377   2.732   7.868  0.1037  0.1201 -0.3448
  115OSM   H10F12048   3.299   2.774   7.933  1.7568  2.2820  0.3175
  115OSM   C11F12049   3.461   2.628   7.925  0.0034 -0.2188 -0.4743
  115OSM   H11F12050   3.562   2.640   7.881 -0.2249 -0.6945 -1.1338
  115OSM   H11G12051   3.434   2.524   7.897 -0.1443 -0.1987 -0.4114
  115OSM   C12F12052   3.475   2.661   8.069  0.0768  0.2390  0.0227
  115OSM   H12F12053   3.539   2.578   8.106  1.4210  0.5701 -1.5305
  115OSM   H12G12054   3.380   2.662   8.127  0.1123 -1.4593  0.1230
  115OSM   C13F12055   3.552   2.790   8.097 -0.1113  0.2456 -0.8091
  115OSM   H13F12056   3.488   2.872   8.059 -0.6198  0.0728 -0.3295
  115OSM   H13G12057   3.652   2.789   8.048  1.4337  0.7694  2.2592
  115OSM   C14F12058   3.585   2.808   8.241  0.2993 -0.0428  0.3314
  115OSM   H14F12059   3.671   2.877   8.241  1.4858 -1.4972  0.6033
  115OSM   H14G12060   3.627   2.714   8.282  0.2197 -0.9866 -1.6850
  115OSM   C15F12061   3.471   2.867   8.331 -0.0331  0.7052  0.3193
  115OSM   H15F12062   3.388   2.795   8.347  0.4289 -0.5718 -2.5985
  115OSM   H15G12063   3.429   2.956   8.279  0.8108  0.5999 -0.5621
  115OSM   C16F12064   3.515   2.893   8.472  0.1329 -0.1096  0.0268
  115OSM   H16F12065   3.596   2.970   8.473 -0.4977  0.5532  0.1683
  115OSM   H16G12066   3.555   2.806   8.529 -1.2205 -1.8844 -1.6592
  115OSM   C17F12067   3.399   2.946   8.555  0.2541  0.0851 -0.0624
  115OSM   H17F12068   3.314   2.874   8.556 -0.6043  1.0859  0.6384
  115OSM   H17G12069   3.367   3.043   8.512  1.4218  0.7490  0.5199
  115OSM   C18F12070   3.434   2.979   8.698  0.3389 -0.0028 -0.3457
  115OSM   H18F12071   3.487   2.884   8.724  0.7232  0.0079 -1.0755
  115OSM   H18G12072   3.346   2.991   8.765  1.2631 -0.6992  1.0111
  115OSM   H18H12073   3.506   3.063   8.707 -0.1866  0.5192 -0.9963
  116OSM      N12074   1.947   0.455   6.347 -0.2060 -0.3519  0.0380
  116OSM    C1512075   1.881   0.437   6.219  1.0056  0.0535  0.0177
  116OSM   H15A12076   1.816   0.350   6.217 -1.1116  1.5494  1.7720
  116OSM   H15B12077   1.957   0.442   6.142  0.8339 -1.8812 -0.3049
  116OSM   H15C12078   1.811   0.516   6.200 -2.6548 -2.5333  2.0421
  116OSM    C1412079   1.845   0.471   6.455 -0.7988 -0.3075  0.7793
  116OSM   H14A12080   1.786   0.561   6.450  2.5638  1.8967 -0.6531
  116OSM   H14B12081   1.900   0.479   6.547 -0.2131  0.3374  0.3772
  116OSM   H14C12082   1.772   0.391   6.450  1.6721 -2.6010  0.4358
  116OSM    C1312083   2.025   0.333   6.387 -0.1651  0.0477 -0.1643
  116OSM   H13A12084   2.064   0.334   6.488  1.7197 -2.7065 -0.8408
  116OSM   H13B12085   2.108   0.310   6.323 -0.8483 -1.8222 -0.4041
  116OSM   H13C12086   1.964   0.245   6.376  0.4378 -0.2631 -1.0632
  116OSM    C1212087   2.034   0.576   6.335 -0.5861  0.2758 -0.6746
  116OSM   H12A12088   2.078   0.583   6.434 -2.9907 -1.2795  0.5500
  116OSM   H12B12089   1.974   0.664   6.318  0.5226  0.9233 -1.2460
  116OSM    C1112090   2.149   0.581   6.237 -0.1734  1.0293  0.0076
  116OSM   H11A12091   2.201   0.677   6.258 -0.8198  0.8195  2.7359
  116OSM   H11B12092   2.114   0.606   6.134 -1.1087  1.1814  0.3557
  116OSM      P12093   2.378   0.455   6.256 -0.2503 -0.3144 -0.3582
  116OSM    O1312094   2.413   0.311   6.256 -0.1213 -0.3234  0.0990
  116OSM    O1412095   2.455   0.550   6.177  0.1233  0.6067  0.2641
  116OSM    O1112096   2.379   0.495   6.406  0.3483 -0.7370 -0.7214
  116OSM    O1212097   2.228   0.462   6.223  0.0244  0.3618  0.3292
  116OSM    C1S12098   2.406   0.406   6.510 -0.1352  0.2566 -0.0724
  116OSM    H1S12099   2.508   0.364   6.497 -1.0121 -1.4055 -1.6562
  116OSM    H1T12100   2.341   0.316   6.512 -0.7944  0.7377  0.6473
  116OSM     NF12101   2.412   0.389   6.757  0.1371  0.5455  0.0947
  116OSM    HNF12102   2.337   0.349   6.809 -0.0121 -0.3216 -0.7774
  116OSM    C2S12103   2.385   0.479   6.648 -0.3526  0.3754  0.0174
  116OSM    H2S12104   2.458   0.562   6.662  0.7241 -0.3707 -1.0419
  116OSM    C3S12105   2.236   0.532   6.647  0.3867 -0.6734 -0.0600
  116OSM    H3S12106   2.164   0.452   6.619 -0.7345  0.1952  0.2875
  116OSM     O312107   2.217   0.650   6.568 -0.1951  0.3108  0.3876
  116OSM    HO312108   2.291   0.645   6.507  1.0137  1.2526  1.7724
  116OSM    C4S12109   2.199   0.575   6.779  0.0110  0.0888  0.5868
  116OSM    H4S12110   2.265   0.656   6.812 -2.3559  2.2317  0.2017
  116OSM    C5S12111   2.098   0.527   6.858 -0.6405 -0.1617 -0.1548
  116OSM    H5S12112   2.038   0.442   6.823 -1.1958 -0.1188  0.6778
  116OSM    C6S12113   2.070   0.577   6.997 -0.5312  0.5235 -0.0454
  116OSM    H6S12114   2.100   0.496   7.067 -1.8574  0.8179  0.8704
  116OSM    H6T12115   1.964   0.597   7.021 -0.8054 -1.8860  0.9174
  116OSM    C7S12116   2.139   0.708   7.038 -0.6124  0.2861  0.2496
  116OSM    H7S12117   2.128   0.786   6.960  4.1721  1.3790  0.4899
  116OSM    H7T12118   2.248   0.705   7.058 -0.5489  1.6010  0.1222
  116OSM    C8S12119   2.080   0.774   7.168  0.2553 -0.1840 -0.5613
  116OSM    H8S12120   1.969   0.772   7.173  0.1410  0.7742 -2.4409
  116OSM    H8T12121   2.130   0.873   7.177  2.1416 -0.8101 -3.4849
  116OSM    C9S12122   2.111   0.697   7.308  0.2353  0.2554  0.1105
  116OSM    H9S12123   2.218   0.691   7.340  0.7100 -3.0063 -1.8572
  116OSM    H9T12124   2.099   0.592   7.273 -0.7445 -0.4484  2.4432
  116OSM   C10S12125   2.021   0.737   7.418 -0.2908 -0.1337  0.6170
  116OSM   H10S12126   1.913   0.744   7.392 -0.7011 -2.9342  1.4109
  116OSM   H10T12127   2.043   0.839   7.457  0.8671 -0.0343 -0.2620
  116OSM   C11S12128   2.033   0.635   7.534  0.1751  0.3229 -0.6563
  116OSM   H11S12129   2.141   0.643   7.560  0.2422 -1.0433 -0.4873
  116OSM   H11T12130   2.015   0.531   7.497 -0.4266 -0.2650  1.2685
  116OSM   C12S12131   1.941   0.667   7.651  0.3531  0.0632  0.4149
  116OSM   H12S12132   1.907   0.578   7.710  1.8484  1.0389  2.8387
  116OSM   H12T12133   1.853   0.724   7.614 -0.1772 -0.4859  0.7896
  116OSM   C13S12134   2.013   0.759   7.742 -0.2958 -0.0563 -0.4526
  116OSM   H13S12135   2.060   0.841   7.683  2.3610 -0.9913  0.3074
  116OSM   H13T12136   2.104   0.715   7.787  1.0442 -0.1485 -3.1921
  116OSM   C14S12137   1.921   0.805   7.851 -0.0710 -0.3323 -0.2180
  116OSM   H14S12138   1.875   0.714   7.895  2.0184 -2.6162 -2.6357
  116OSM   H14T12139   1.836   0.856   7.800  0.8707  4.3766  2.6501
  116OSM   C15S12140   1.978   0.880   7.966 -0.1926 -0.5408  0.2776
  116OSM   H15S12141   2.023   0.972   7.923 -1.3486 -0.0438  0.1186
  116OSM   H15T12142   2.050   0.815   8.020 -1.0120 -1.0326  0.7935
  116OSM   C16S12143   1.885   0.931   8.068 -0.5417  0.0156  0.7995
  116OSM   H16S12144   1.809   0.998   8.023  1.3968  0.9048 -1.2147
  116OSM   H16T12145   1.934   0.994   8.146 -0.4688  0.1854  0.6156
  116OSM   C17S12146   1.824   0.809   8.139  0.3585  0.5021 -0.0077
  116OSM   H17S12147   1.909   0.751   8.181  0.9504  1.6687  0.4499
  116OSM   H17T12148   1.768   0.731   8.083  2.3745  0.2621 -1.7159
  116OSM   C18S12149   1.726   0.843   8.257  0.3288  0.0349  0.8531
  116OSM   H18S12150   1.677   0.755   8.303  1.9663 -0.1784  2.2201
  116OSM   H18T12151   1.639   0.908   8.231  1.7742  2.1539  1.1041
  116OSM   H18U12152   1.768   0.897   8.345 -1.3476 -0.2220  1.8217
  116OSM    C1F12153   2.536   0.352   6.790 -0.0928  0.2148 -0.1476
  116OSM     OF12154   2.631   0.372   6.718  0.1457 -0.2335 -0.7737
  116OSM    C2F12155   2.543   0.279   6.915 -0.1320 -0.2615 -1.4638
  116OSM    H2F12156   2.541   0.171   6.891  1.0347 -0.4635 -0.6774
  116OSM    H2G12157   2.460   0.313   6.980  1.0564 -0.5606  0.2263
  116OSM    C3F12158   2.681   0.295   6.985  0.2147  0.1874 -0.6091
  116OSM    H3F12159   2.687   0.406   6.991 -1.9371  0.3081 -0.4729
  116OSM    H3G12160   2.768   0.264   6.923  1.0436 -1.2583  1.2228
  116OSM    C4F12161   2.690   0.225   7.121 -0.8833  1.1513  0.6160
  116OSM    H4F12162   2.710   0.116   7.111 -1.3354  0.9631  1.6111
  116OSM    H4G12163   2.593   0.227   7.175  0.0308 -1.4641  2.4902
  116OSM    C5F12164   2.799   0.292   7.206  0.1813  0.0873 -0.2897
  116OSM    H5F12165   2.792   0.401   7.229  3.3657  0.4036 -0.4879
  116OSM    H5G12166   2.889   0.284   7.141 -1.4129 -0.7495 -2.4734
  116OSM    C6F12167   2.817   0.229   7.352  0.0029  0.1271 -0.4472
  116OSM    H6F12168   2.851   0.123   7.357  0.6738  0.3290 -0.6459
  116OSM    H6G12169   2.714   0.247   7.391 -0.3788  0.7616 -1.7347
  116OSM    C7F12170   2.920   0.299   7.441  0.1098  0.4584  0.2279
  116OSM    H7F12171   2.884   0.403   7.457 -1.1759  0.0196  0.2937
  116OSM    H7G12172   3.014   0.296   7.382  0.1747  1.0479  0.2952
  116OSM    C8F12173   2.954   0.230   7.573 -0.2067 -0.3910  1.1620
  116OSM    H8F12174   3.049   0.281   7.601  0.9952 -1.8564 -0.1185
  116OSM    H8G12175   2.974   0.123   7.554 -1.2533 -0.4295  0.2750
  116OSM    C9F12176   2.847   0.256   7.675  0.2806 -0.3070  0.2463
  116OSM    H9F12177   2.746   0.225   7.643  1.6314 -1.0983 -3.5855
  116OSM   C10F12178   2.861   0.302   7.808 -0.0702  0.3877 -0.1102
  116OSM   H10F12179   2.770   0.309   7.868 -1.8364 -1.4184 -2.4396
  116OSM   C11F12180   2.986   0.331   7.887  0.3252 -0.4107 -0.3795
  116OSM   H11F12181   2.995   0.441   7.885  0.6511 -0.3910  1.5494
  116OSM   H11G12182   3.081   0.291   7.846 -0.2373 -1.1611 -0.9846
  116OSM   C12F12183   2.977   0.285   8.038 -0.1114  0.1966 -0.1868
  116OSM   H12F12184   2.902   0.342   8.097  0.5072  0.0219  0.7826
  116OSM   H12G12185   3.065   0.326   8.091 -1.1531  1.0874  0.9053
  116OSM   C13F12186   2.967   0.136   8.061 -0.6762  0.1953  0.4036
  116OSM   H13F12187   3.047   0.108   8.133  0.0673  0.9222 -0.1382
  116OSM   H13G12188   2.986   0.079   7.968 -0.8727  1.4271 -0.4045
  116OSM   C14F12189   2.834   0.095   8.119 -0.0046 -0.0471  0.2524
  116OSM   H14F12190   2.750   0.122   8.053 -0.0544  0.1628  0.4028
  116OSM   H14G12191   2.817   0.148   8.215  1.6811 -1.2827  1.2650
  116OSM   C15F12192   2.818  -0.053   8.150 -0.5877  0.1175  0.2320
  116OSM   H15F12193   2.840  -0.102   8.053  0.9269 -0.7493  0.9832
  116OSM   H15G12194   2.717  -0.083   8.185 -1.4284  0.1256 -2.0974
  116OSM   C16F12195   2.925  -0.105   8.255 -0.3371  0.1145  0.1321
  116OSM   H16F12196   2.907  -0.048   8.348  0.8297 -0.6963  0.8746
  116OSM   H16G12197   3.027  -0.082   8.218 -0.2889 -0.5963 -0.2034
  116OSM   C17F12198   2.916  -0.255   8.279  0.2527  0.8690 -0.7087
  116OSM   H17F12199   2.898  -0.318   8.189 -2.5105  1.1184 -0.3909
  116OSM   H17G12200   2.827  -0.276   8.342 -1.0986  4.7121 -1.2163
  116OSM   C18F12201   3.038  -0.309   8.339  0.1009  0.3353  0.6481
  116OSM   H18F12202   3.038  -0.420   8.351  1.6250  0.2722  0.1786
  116OSM   H18G12203   3.068  -0.275   8.441  1.6706 -0.7159  0.5579
  116OSM   H18H12204   3.118  -0.280   8.267  2.2432 -0.8102  2.5048
  117OSM      N12205   0.891   2.530   5.922  0.3339 -0.3522 -0.4500
  117OSM    C1512206   0.847   2.401   5.867  0.5608 -0.4854 -0.2174
  117OSM   H15A12207   0.750   2.375   5.908  0.9071 -0.2371  0.7671
  117OSM   H15B12208   0.907   2.321   5.907 -0.2565 -1.2342 -0.4599
  117OSM   H15C12209   0.847   2.389   5.760  0.3067 -0.9003 -0.1731
  117OSM    C1412210   1.023   2.569   5.866 -0.3652 -1.0345 -0.1670
  117OSM   H14A12211   1.013   2.591   5.761 -1.2549 -1.1023 -0.1007
  117OSM   H14B12212   1.094   2.493   5.892 -1.2158 -1.1210  1.9795
  117OSM   H14C12213   1.062   2.651   5.925 -1.0375  0.0699 -1.2231
  117OSM    C1312214   0.776   2.626   5.884  0.4252  0.3723  0.4869
  117OSM   H13A12215   0.759   2.634   5.777 -0.7305 -1.6060  0.4873
  117OSM   H13B12216   0.809   2.728   5.898 -1.7744  1.2766 -0.6518
  117OSM   H13C12217   0.680   2.618   5.933 -0.4541  1.3817 -0.9980
  117OSM    C1212218   0.905   2.506   6.074 -0.3882  0.3777 -0.8069
  117OSM   H12A12219   0.983   2.432   6.082 -0.2401  0.6851  0.7840
  117OSM   H12B12220   0.826   2.452   6.123 -0.0918  2.0458  1.6104
  117OSM    C1112221   0.948   2.626   6.156 -0.0429 -0.5647  0.0215
  117OSM   H11A12222   0.927   2.617   6.265  1.4188  0.2955  0.3970
  117OSM   H11B12223   0.894   2.718   6.127  0.6537 -0.1486  0.0244
  117OSM      P12224   1.198   2.575   6.222  0.0738  0.6334  0.1714
  117OSM    O1312225   1.259   2.464   6.148 -0.3222 -0.6069 -0.1350
  117OSM    O1412226   1.289   2.677   6.276 -0.0304  0.1242 -0.3522
  117OSM    O1112227   1.118   2.510   6.340  0.1916  0.1288 -0.2457
  117OSM    O1212228   1.090   2.648   6.135 -0.6975  0.4182 -0.5410
  117OSM    C1S12229   1.181   2.428   6.439 -0.3188 -0.4530 -0.1299
  117OSM    H1S12230   1.260   2.485   6.492 -1.1747 -0.7566  1.4752
  117OSM    H1T12231   1.230   2.341   6.390 -1.0447 -0.4846 -0.8028
  117OSM     NF12232   1.117   2.350   6.676 -0.1472  0.3442  0.0012
  117OSM    HNF12233   1.119   2.253   6.697 -0.5524  0.0597 -1.2577
  117OSM    C2S12234   1.068   2.394   6.542 -0.0667  0.2247  0.0789
  117OSM    H2S12235   1.004   2.480   6.570 -0.0542  0.3174 -0.1814
  117OSM    C3S12236   0.974   2.285   6.482 -1.0111  0.0157  0.3685
  117OSM    H3S12237   1.027   2.188   6.466  1.9637  1.6915 -0.2736
  117OSM     O312238   0.937   2.317   6.348  0.1655  0.0439  0.0155
  117OSM    HO312239   0.999   2.385   6.318  1.0897 -0.3904  0.9336
  117OSM    C4S12240   0.847   2.250   6.556 -0.0961 -0.5923  0.2218
  117OSM    H4S12241   0.860   2.167   6.627 -3.6852 -0.5802  0.9790
  117OSM    C5S12242   0.722   2.305   6.550  0.0926  0.0688  0.7997
  117OSM    H5S12243   0.700   2.384   6.477  0.1416 -0.1544  0.5415
  117OSM    C6S12244   0.596   2.265   6.623 -0.0310 -0.2117 -0.4004
  117OSM    H6S12245   0.544   2.183   6.568 -1.6729  0.4286  0.1516
  117OSM    H6T12246   0.524   2.350   6.619 -0.0917 -0.2579 -0.2656
  117OSM    C7S12247   0.622   2.228   6.765  0.1259 -0.8766 -0.5425
  117OSM    H7S12248   0.708   2.157   6.775 -1.5148 -2.6680  1.3032
  117OSM    H7T12249   0.535   2.171   6.803  0.3890 -0.6316  0.4559
  117OSM    C8S12250   0.639   2.344   6.867 -0.4429  0.2858 -0.6873
  117OSM    H8S12251   0.545   2.402   6.873 -0.2822  0.7159 -1.9891
  117OSM    H8T12252   0.713   2.423   6.843  1.5149 -1.1940  0.3069
  117OSM    C9S12253   0.650   2.294   7.012 -0.2095 -0.7974 -0.3218
  117OSM    H9S12254   0.731   2.219   7.016 -1.3532 -2.2027 -2.5965
  117OSM    H9T12255   0.556   2.250   7.051  0.3610 -0.3420  1.6058
  117OSM   C10S12256   0.685   2.407   7.116 -0.3050  0.3164  0.3368
  117OSM   H10S12257   0.608   2.487   7.107 -0.1424  0.4754  0.3319
  117OSM   H10T12258   0.777   2.444   7.067 -1.3678 -0.5574 -2.3975
  117OSM   C11S12259   0.708   2.342   7.251 -0.3298  0.4363 -0.1092
  117OSM   H11S12260   0.819   2.341   7.258 -0.3545  1.1231  0.4277
  117OSM   H11T12261   0.672   2.237   7.250  1.8181 -0.3555  1.2712
  117OSM   C12S12262   0.635   2.414   7.365  0.0870 -0.1714 -0.3900
  117OSM   H12S12263   0.527   2.414   7.339 -0.5608  0.9253  2.1111
  117OSM   H12T12264   0.664   2.521   7.355  1.9557 -0.8497 -2.6297
  117OSM   C13S12265   0.664   2.357   7.507 -0.1889 -0.2031  0.8677
  117OSM   H13S12266   0.769   2.326   7.489 -0.3585 -1.2938  1.6884
  117OSM   H13T12267   0.596   2.272   7.528  0.1097  0.3634  4.6148
  117OSM   C14S12268   0.654   2.463   7.615  0.2917 -0.2912 -0.4195
  117OSM   H14S12269   0.552   2.508   7.621  1.5041  2.4196  0.4581
  117OSM   H14T12270   0.723   2.545   7.586  1.7075 -0.9729  0.9718
  117OSM   C15S12271   0.691   2.416   7.759 -0.1378 -0.4385  0.0358
  117OSM   H15S12272   0.788   2.368   7.733 -0.6669 -2.2139  1.2590
  117OSM   H15T12273   0.625   2.344   7.811 -1.0286  0.5838  0.3409
  117OSM   C16S12274   0.725   2.534   7.854  0.3348  0.1586 -0.2913
  117OSM   H16S12275   0.638   2.603   7.860  0.4241  0.1921  0.7095
  117OSM   H16T12276   0.815   2.575   7.804  0.4267 -1.4256 -1.4510
  117OSM   C17S12277   0.755   2.483   7.996 -0.5909  0.3388  0.3220
  117OSM   H17S12278   0.835   2.407   7.984 -0.8379  0.3987 -1.8602
  117OSM   H17T12279   0.663   2.428   8.027 -1.2575  0.8618 -0.7049
  117OSM   C18S12280   0.781   2.595   8.102  0.0053 -0.2824  0.2514
  117OSM   H18S12281   0.693   2.656   8.129  0.8762 -0.1929  3.0008
  117OSM   H18T12282   0.854   2.665   8.055 -2.5475  0.9747 -1.9660
  117OSM   H18U12283   0.827   2.548   8.191 -1.5692  1.1357  1.8250
  117OSM    C1F12284   1.167   2.435   6.765 -0.3710 -0.0053  0.5558
  117OSM     OF12285   1.162   2.555   6.751 -0.0530 -0.2397 -0.0690
  117OSM    C2F12286   1.220   2.377   6.890  0.3208  0.0193 -1.0139
  117OSM    H2F12287   1.327   2.400   6.905  0.0602  1.9119 -1.9619
  117OSM    H2G12288   1.205   2.267   6.883  0.2759  0.1736 -3.5996
  117OSM    C3F12289   1.146   2.440   7.009  0.5614 -0.1381  0.6653
  117OSM    H3F12290   1.035   2.442   7.006  0.4973 -1.3602  1.7096
  117OSM    H3G12291   1.172   2.548   6.998  1.5630 -0.3454  0.9407
  117OSM    C4F12292   1.177   2.397   7.147  0.6824  0.2635  0.6685
  117OSM    H4F12293   1.287   2.411   7.156  0.9108 -1.4771  0.8630
  117OSM    H4G12294   1.172   2.288   7.168 -0.0484  0.4671  1.6054
  117OSM    C5F12295   1.104   2.481   7.253 -0.2958  0.6570 -0.4994
  117OSM    H5F12296   1.009   2.424   7.257 -0.0618  0.3374  0.5454
  117OSM    H5G12297   1.093   2.589   7.229  1.2466  0.8347 -0.4763
  117OSM    C6F12298   1.162   2.470   7.397  0.4217 -0.4046  0.1743
  117OSM    H6F12299   1.267   2.502   7.418  0.1975  0.6896 -0.3390
  117OSM    H6G12300   1.148   2.363   7.424  0.7131 -0.8771 -1.4952
  117OSM    C7F12301   1.077   2.553   7.495 -0.0390  0.6013 -0.0334
  117OSM    H7F12302   0.982   2.496   7.491 -0.0029  0.5565 -0.2874
  117OSM    H7G12303   1.059   2.660   7.472  0.7608  0.9799  1.0463
  117OSM    C8F12304   1.135   2.557   7.634  0.8223 -0.0230 -0.4572
  117OSM    H8F12305   1.076   2.636   7.685  0.7666  0.5543 -1.4183
  117OSM    H8G12306   1.236   2.601   7.620  1.5897 -1.3672  0.6590
  117OSM    C9F12307   1.148   2.426   7.711  0.1537  0.3803  0.6926
  117OSM    H9F12308   1.153   2.328   7.661  1.7643  0.7966 -0.0184
  117OSM   C10F12309   1.148   2.423   7.845  0.2741 -0.4339 -0.3231
  117OSM   H10F12310   1.152   2.327   7.898  2.1737  1.3824  2.9964
  117OSM   C11F12311   1.136   2.546   7.934  0.4925 -0.5718 -0.2188
  117OSM   H11F12312   1.027   2.566   7.948  0.5566 -0.3886  0.0377
  117OSM   H11G12313   1.192   2.633   7.895 -0.9347  0.7115  0.5443
  117OSM   C12F12314   1.194   2.521   8.077 -0.1228 -0.8033 -0.5136
  117OSM   H12F12315   1.197   2.616   8.134 -1.7069 -0.3445 -1.1607
  117OSM   H12G12316   1.303   2.509   8.060 -0.0247 -1.1619  0.3699
  117OSM   C13F12317   1.140   2.405   8.163 -0.9714 -0.6538 -0.3690
  117OSM   H13F12318   1.143   2.308   8.110 -1.7823 -0.2597 -1.1418
  117OSM   H13G12319   1.035   2.426   8.194  0.0221  0.6158  2.3048
  117OSM   C14F12320   1.220   2.389   8.296  0.2122  0.1960  0.3116
  117OSM   H14F12321   1.329   2.373   8.279  0.2466  0.2263  0.5042
  117OSM   H14G12322   1.193   2.292   8.344 -1.6452  1.2474  1.4306
  117OSM   C15F12323   1.204   2.501   8.401 -0.8328 -0.3725  0.6930
  117OSM   H15F12324   1.095   2.501   8.419 -0.7214  0.7918  1.4108
  117OSM   H15G12325   1.234   2.598   8.355  1.7429 -1.4217  0.0293
  117OSM   C16F12326   1.276   2.491   8.542  0.7667  0.1757 -0.8759
  117OSM   H16F12327   1.329   2.393   8.547 -1.3095 -0.8966  1.7573
  117OSM   H16G12328   1.192   2.483   8.614 -1.8265  0.3648 -3.7667
  117OSM   C17F12329   1.362   2.609   8.575  0.0874 -0.3416  0.1766
  117OSM   H17F12330   1.446   2.614   8.502  0.8374  1.9801  1.1543
  117OSM   H17G12331   1.298   2.692   8.538 -2.8063 -2.6712 -0.2417
  117OSM   C18F12332   1.409   2.626   8.718  0.8012  1.0373 -0.5005
  117OSM   H18F12333   1.320   2.622   8.784  0.4171 -1.1781 -1.1304
  117OSM   H18G12334   1.470   2.718   8.731 -0.0853  1.9322 -2.5807
  117OSM   H18H12335   1.466   2.534   8.743 -0.8300  0.1672  0.0835
  118OSM      N12336   3.081   4.444   5.917 -0.1022 -0.5069  0.0112
  118OSM    C1512337   3.191   4.352   5.894  0.1969 -0.1021  0.1523
  118OSM   H15A12338   3.205   4.322   5.791 -2.4288 -2.1397  0.3337
  118OSM   H15B12339   3.173   4.261   5.949  0.0671 -1.1745 -1.6233
  118OSM   H15C12340   3.286   4.380   5.937  0.3124 -0.9910  0.4984
  118OSM    C1412341   3.090   4.574   5.843 -0.0284 -0.1132  0.2707
  118OSM   H14A12342   3.153   4.643   5.897  0.6317 -1.5012  1.2720
  118OSM   H14B12343   2.993   4.621   5.835 -0.0681 -0.5803 -2.6603
  118OSM   H14C12344   3.129   4.565   5.742  0.6335 -0.3217  0.5434
  118OSM    C1312345   2.948   4.382   5.877  0.1549  0.1682  0.4621
  118OSM   H13A12346   2.958   4.361   5.771 -0.4885 -0.6437  0.5569
  118OSM   H13B12347   2.872   4.453   5.905  1.3422  0.2482  3.6480
  118OSM   H13C12348   2.927   4.292   5.933  1.0509 -1.2713 -1.4660
  118OSM    C1212349   3.062   4.480   6.066  0.2348 -0.3502  0.3682
  118OSM   H12A12350   2.983   4.554   6.067 -0.1796 -0.7309 -2.0016
  118OSM   H12B12351   3.156   4.518   6.103  2.1549 -3.2815 -1.2863
  118OSM    C1112352   3.035   4.367   6.169 -0.4486 -0.5861 -1.0746
  118OSM   H11A12353   2.935   4.322   6.151 -1.7987  1.3769  1.1044
  118OSM   H11B12354   3.018   4.416   6.268  0.6845  0.3430 -1.3423
  118OSM      P12355   3.270   4.307   6.253  0.2397  0.2249 -0.3687
  118OSM    O1312356   3.368   4.204   6.227 -0.0947 -0.5742 -0.5471
  118OSM    O1412357   3.302   4.444   6.213 -0.6410 -0.3198 -0.4131
  118OSM    O1112358   3.237   4.308   6.411  0.2552  0.2932  1.0104
  118OSM    O1212359   3.131   4.264   6.182  0.2087 -0.1037 -0.0723
  118OSM    C1S12360   3.157   4.190   6.451 -0.3308  0.0582  0.7589
  118OSM    H1S12361   3.190   4.102   6.392 -1.4630  0.0060  0.1940
  118OSM    H1T12362   3.048   4.207   6.438 -0.1897  0.3452 -0.0593
  118OSM     NF12363   3.110   4.042   6.625  0.1989  0.2852 -0.2846
  118OSM    HNF12364   3.022   4.059   6.669  2.0186  1.3960  3.1441
  118OSM    C2S12365   3.174   4.170   6.603 -0.5877  0.3168  0.0622
  118OSM    H2S12366   3.280   4.162   6.635 -0.0680 -1.3644 -1.9338
  118OSM    C3S12367   3.106   4.291   6.683 -0.1255  0.2585  0.1901
  118OSM    H3S12368   2.996   4.299   6.671 -0.4182 -1.0792  1.6742
  118OSM     O312369   3.158   4.419   6.658  0.2820 -0.2661  0.5044
  118OSM    HO312370   3.216   4.401   6.585 -0.9563  2.9475 -1.4073
  118OSM    C4S12371   3.121   4.258   6.837 -0.1863 -0.1398 -0.7333
  118OSM    H4S12372   3.025   4.218   6.875 -0.2048  0.0632 -0.5647
  118OSM    C5S12373   3.226   4.285   6.922  0.2013 -1.1057 -0.7292
  118OSM    H5S12374   3.319   4.334   6.888  0.7512 -1.0478  0.8430
  118OSM    C6S12375   3.202   4.257   7.065 -0.2032 -0.2148 -0.1181
  118OSM    H6S12376   3.125   4.322   7.111  1.4117  1.1022  0.7937
  118OSM    H6T12377   3.299   4.285   7.113 -0.3504 -0.3216  0.2440
  118OSM    C7S12378   3.168   4.109   7.118 -0.1736  0.8541  0.0704
  118OSM    H7S12379   3.213   4.035   7.048 -1.8878  1.0847 -1.3147
  118OSM    H7T12380   3.059   4.090   7.109  0.1377 -2.0956  1.6509
  118OSM    C8S12381   3.231   4.079   7.261 -0.0173 -0.2944  0.4568
  118OSM    H8S12382   3.340   4.098   7.264 -0.1665  0.4367  1.5087
  118OSM    H8T12383   3.212   3.971   7.280  0.5469 -0.2591  1.2679
  118OSM    C9S12384   3.171   4.160   7.375  0.7753  0.1973 -0.3882
  118OSM    H9S12385   3.060   4.155   7.372  0.7796 -0.1889  0.0784
  118OSM    H9T12386   3.202   4.267   7.380 -0.9926  0.7397 -0.3702
  118OSM   C10S12387   3.198   4.105   7.518  0.2258  0.8600  0.7976
  118OSM   H10S12388   3.303   4.068   7.515 -0.3663 -0.7480 -1.2945
  118OSM   H10T12389   3.147   4.009   7.540  0.3598  1.3978  3.6085
  118OSM   C11S12390   3.182   4.209   7.639  1.0414  0.7914  0.3590
  118OSM   H11S12391   3.073   4.208   7.657  1.0720  0.2684  0.5204
  118OSM   H11T12392   3.208   4.314   7.611  0.6970  0.7282 -0.1947
  118OSM   C12S12393   3.248   4.155   7.764 -0.8064 -0.6798  0.7522
  118OSM   H12S12394   3.359   4.153   7.753 -0.9606  0.3272 -1.1300
  118OSM   H12T12395   3.220   4.052   7.795  1.4631 -1.4353  0.4453
  118OSM   C13S12396   3.221   4.250   7.880 -0.2966 -0.1442  0.1260
  118OSM   H13S12397   3.114   4.241   7.908 -0.0686 -0.8755  0.7778
  118OSM   H13T12398   3.240   4.353   7.844  0.6235 -0.7701 -1.2388
  118OSM   C14S12399   3.313   4.221   8.001 -0.5093  0.1990 -1.0601
  118OSM   H14S12400   3.417   4.245   7.971  0.2228  0.3468  1.5530
  118OSM   H14T12401   3.307   4.117   8.038 -1.7554  0.9111  0.7851
  118OSM   C15S12402   3.272   4.309   8.117 -0.6618  0.0864 -0.1326
  118OSM   H15S12403   3.230   4.407   8.087  0.6496  0.5254 -0.5885
  118OSM   H15T12404   3.365   4.329   8.175 -2.6666  1.1966  2.8062
  118OSM   C16S12405   3.152   4.256   8.194 -0.6110  0.1470  0.0464
  118OSM   H16S12406   3.160   4.146   8.203 -0.6344  0.2336  1.1818
  118OSM   H16T12407   3.056   4.270   8.138 -0.2858  3.1663  0.1440
  118OSM   C17S12408   3.139   4.313   8.341  0.0778 -0.3070  0.8594
  118OSM   H17S12409   3.230   4.281   8.396  1.9572  1.1423 -1.2927
  118OSM   H17T12410   3.047   4.275   8.389  0.1588 -1.1574  0.3406
  118OSM   C18S12411   3.121   4.465   8.338 -0.0623  0.2618  0.4035
  118OSM   H18S12412   3.181   4.502   8.424  1.0230 -1.3158  0.3389
  118OSM   H18T12413   3.013   4.482   8.362 -0.7589 -2.2091 -0.8313
  118OSM   H18U12414   3.144   4.517   8.243  4.0311  1.4624  1.9436
  118OSM    C1F12415   3.164   3.927   6.586 -0.9165 -0.4859 -1.1117
  118OSM     OF12416   3.270   3.924   6.520  0.4161  0.3191  0.6326
  118OSM    C2F12417   3.089   3.797   6.607  0.0454 -0.3491 -0.3878
  118OSM    H2F12418   3.099   3.739   6.513  1.7302 -0.4002 -0.1949
  118OSM    H2G12419   2.982   3.812   6.632 -0.1928 -0.2956 -1.4325
  118OSM    C3F12420   3.149   3.705   6.716  0.2025 -0.4576  0.1856
  118OSM    H3F12421   3.255   3.696   6.684  0.3538  2.6173 -0.2777
  118OSM    H3G12422   3.098   3.606   6.707 -0.6622  0.1068 -1.2674
  118OSM    C4F12423   3.147   3.774   6.856  0.7833  1.4122  0.6825
  118OSM    H4F12424   3.045   3.800   6.891 -0.2657 -0.0593 -1.2035
  118OSM    H4G12425   3.217   3.859   6.844  1.6791  0.4666 -0.9317
  118OSM    C5F12426   3.211   3.679   6.967 -0.5216 -0.4897  0.8492
  118OSM    H5F12427   3.313   3.661   6.929 -0.6740 -0.3172  0.3503
  118OSM    H5G12428   3.160   3.581   6.977  0.1894 -0.9009  0.4557
  118OSM    C6F12429   3.234   3.737   7.106  0.1253  0.6113 -0.4272
  118OSM    H6F12430   3.130   3.741   7.147  0.8293  0.2021  1.4212
  118OSM    H6G12431   3.276   3.839   7.096 -0.5735  1.1823  2.2151
  118OSM    C7F12432   3.309   3.644   7.194 -1.0244 -0.2139  0.0628
  118OSM    H7F12433   3.406   3.615   7.147  0.5608 -0.2800  3.2512
  118OSM    H7G12434   3.254   3.549   7.208 -0.5151 -0.6395 -0.7900
  118OSM    C8F12435   3.335   3.708   7.338  0.2376  0.6211  0.1853
  118OSM    H8F12436   3.240   3.761   7.362 -2.3539 -2.0406 -3.6421
  118OSM    H8G12437   3.415   3.783   7.320  1.1929 -0.3612  0.3130
  118OSM    C9F12438   3.365   3.599   7.442  0.2417  0.0002  0.2707
  118OSM    H9F12439   3.382   3.500   7.397 -0.1443  0.5957 -1.2196
  118OSM   C10F12440   3.367   3.616   7.576 -0.0457 -0.2718 -0.5416
  118OSM   H10F12441   3.408   3.529   7.628  0.0676 -0.8991 -1.6734
  118OSM   C11F12442   3.349   3.743   7.653 -0.7798  0.2159  0.0453
  118OSM   H11F12443   3.244   3.776   7.645 -0.3576  1.8971  1.3230
  118OSM   H11G12444   3.415   3.818   7.604 -0.0711  1.4553  2.8204
  118OSM   C12F12445   3.396   3.741   7.803  0.4197  0.3640 -0.0607
  118OSM   H12F12446   3.373   3.844   7.837 -3.1072  0.1875 -1.7917
  118OSM   H12G12447   3.505   3.722   7.818  0.3497 -0.4926 -0.6125
  118OSM   C13F12448   3.314   3.634   7.876  0.1753 -0.5059 -0.3564
  118OSM   H13F12449   3.319   3.538   7.820 -0.9462 -0.6908 -0.1442
  118OSM   H13G12450   3.206   3.655   7.868  0.5228  0.2288 -3.9519
  118OSM   C14F12451   3.359   3.604   8.019 -0.0276  0.4688 -0.0343
  118OSM   H14F12452   3.444   3.531   8.013  1.1428  1.8861 -1.1405
  118OSM   H14G12453   3.275   3.547   8.064 -0.5551  1.1969 -0.0982
  118OSM   C15F12454   3.391   3.722   8.108 -1.0624  1.0551 -0.1417
  118OSM   H15F12455   3.313   3.796   8.078 -0.3335  1.9730  0.2387
  118OSM   H15G12456   3.493   3.758   8.084 -0.4427  0.1911  1.1386
  118OSM   C16F12457   3.393   3.697   8.258  0.2396  0.6722  0.4931
  118OSM   H16F12458   3.463   3.612   8.271  1.5036  1.8739  1.6777
  118OSM   H16G12459   3.290   3.669   8.288  0.0425  2.2652  1.3519
  118OSM   C17F12460   3.432   3.823   8.340 -0.4735  0.1091  0.2419
  118OSM   H17F12461   3.538   3.850   8.319 -0.2114 -2.2619 -1.7487
  118OSM   H17G12462   3.424   3.799   8.448 -1.2913 -0.7447 -0.0042
  118OSM   C18F12463   3.362   3.950   8.301  0.5549 -0.2400  0.0222
  118OSM   H18F12464   3.258   3.941   8.339  0.4020 -1.0216 -0.5586
  118OSM   H18G12465   3.353   3.972   8.192  1.7088 -0.2299 -0.0789
  118OSM   H18H12466   3.412   4.041   8.341  0.6216  0.9473 -2.6392
  119OSM      N12467   4.622   4.186   5.646 -1.1029  0.3918 -0.4764
  119OSM    C1512468   4.498   4.112   5.654  0.0564 -0.1336 -0.3893
  119OSM   H15A12469   4.445   4.148   5.741  1.9128 -1.5758  1.3659
  119OSM   H15B12470   4.514   4.007   5.676  0.0073 -0.2237 -0.7767
  119OSM   H15C12471   4.444   4.107   5.560  2.0678  1.1078 -1.6563
  119OSM    C1412472   4.699   4.158   5.525 -0.0176 -0.4497  0.5118
  119OSM   H14A12473   4.641   4.200   5.444 -1.7543  0.2750  2.0891
  119OSM   H14B12474   4.713   4.053   5.503 -2.0400 -0.6245 -0.0719
  119OSM   H14C12475   4.794   4.209   5.529 -0.5049  0.4538  0.8188
  119OSM    C1312476   4.603   4.333   5.650  0.1456 -0.1021  0.0488
  119OSM   H13A12477   4.531   4.363   5.575 -0.3074 -0.6506  0.2576
  119OSM   H13B12478   4.693   4.383   5.618 -0.0958  0.6988  0.6203
  119OSM   H13C12479   4.580   4.381   5.744 -0.7819 -1.4404  0.5199
  119OSM    C1212480   4.706   4.146   5.772 -0.2298 -0.2157  0.2064
  119OSM   H12A12481   4.795   4.207   5.764 -1.0584  0.7634 -1.9682
  119OSM   H12B12482   4.737   4.044   5.763  0.1104  0.0170 -1.3494
  119OSM    C1112483   4.645   4.181   5.911  0.0425 -0.1298 -1.1934
  119OSM   H11A12484   4.619   4.289   5.910 -0.6559 -0.2667  0.5429
  119OSM   H11B12485   4.711   4.167   5.999  0.8502 -1.3678 -1.9734
  119OSM      P12486   4.395   4.152   6.002 -0.0219 -0.8275 -0.1106
  119OSM    O1312487   4.367   4.287   5.947 -0.5038 -0.0061  0.0768
  119OSM    O1412488   4.282   4.059   5.984  0.0220 -0.3628  0.4251
  119OSM    O1112489   4.443   4.152   6.151  0.5461 -0.5042 -0.0636
  119OSM    O1212490   4.525   4.101   5.930  0.8155  0.8544  0.1945
  119OSM    C1S12491   4.476   4.022   6.207 -0.1665 -0.1272 -0.0841
  119OSM    H1S12492   4.572   3.981   6.167  0.9183  1.5291  0.7863
  119OSM    H1T12493   4.390   3.952   6.196  0.9091 -1.2708 -1.4971
  119OSM     NF12494   4.514   3.923   6.419 -0.1935 -0.0371 -0.0924
  119OSM    HNF12495   4.446   3.890   6.483  0.0370 -1.4216 -0.5527
  119OSM    C2S12496   4.493   4.049   6.361 -0.0867  0.1315  0.4098
  119OSM    H2S12497   4.587   4.104   6.381 -1.4299  2.7246 -0.1740
  119OSM    C3S12498   4.371   4.128   6.418  0.2528 -0.5849  0.2018
  119OSM    H3S12499   4.275   4.073   6.408 -0.1305  0.1599 -0.3513
  119OSM     O312500   4.338   4.253   6.361  0.2178  0.2561  0.6463
  119OSM    HO312501   4.372   4.240   6.272 -0.3153  1.0491  0.3262
  119OSM    C4S12502   4.401   4.154   6.560  0.0943  0.5623 -0.0771
  119OSM    H4S12503   4.484   4.224   6.577 -0.7425  1.1316  1.8161
  119OSM    C5S12504   4.343   4.099   6.667  0.2182  0.9507  0.6101
  119OSM    H5S12505   4.260   4.027   6.667 -0.3310  1.5811  0.4429
  119OSM    C6S12506   4.381   4.136   6.808  0.2178 -0.4029 -0.2074
  119OSM    H6S12507   4.293   4.103   6.867  1.0181  0.7082  1.6465
  119OSM    H6T12508   4.403   4.244   6.820 -0.7071 -0.3921  1.6910
  119OSM    C7S12509   4.502   4.061   6.860 -0.6358  0.2426 -0.2020
  119OSM    H7S12510   4.592   4.059   6.795 -0.8015  0.1266 -0.4262
  119OSM    H7T12511   4.472   3.954   6.867 -0.8169  0.3412  0.6351
  119OSM    C8S12512   4.552   4.104   7.004  0.3260  0.8157  0.2053
  119OSM    H8S12513   4.585   4.210   7.010 -1.4544  1.4327 -0.5897
  119OSM    H8T12514   4.643   4.049   7.037  0.6480  1.3638  0.2283
  119OSM    C9S12515   4.438   4.070   7.108  0.4036 -0.2297 -0.1787
  119OSM    H9S12516   4.427   3.960   7.103 -1.2916 -0.0259 -1.3064
  119OSM    H9T12517   4.344   4.128   7.094  0.3537  0.1002  1.4192
  119OSM   C10S12518   4.474   4.104   7.253  0.2722  0.5534 -0.2127
  119OSM   H10S12519   4.579   4.079   7.282 -0.2427  0.1980  1.4081
  119OSM   H10T12520   4.411   4.048   7.325  2.5995 -0.9702  0.6896
  119OSM   C11S12521   4.455   4.254   7.286 -0.6206  0.9149 -0.4345
  119OSM   H11S12522   4.349   4.286   7.275 -0.6187  1.0751  0.0014
  119OSM   H11T12523   4.516   4.313   7.215  0.3378 -0.5093 -0.8129
  119OSM   C12S12524   4.474   4.290   7.433  0.1789  1.1400 -0.2974
  119OSM   H12S12525   4.479   4.401   7.437  0.6994  1.1191 -0.2489
  119OSM   H12T12526   4.567   4.246   7.475 -0.7867 -0.0838  0.5798
  119OSM   C13S12527   4.371   4.239   7.532  0.5748  0.3914  0.5935
  119OSM   H13S12528   4.367   4.129   7.542 -0.5108  0.1706 -1.9523
  119OSM   H13T12529   4.270   4.251   7.489  1.1477 -0.3624 -1.0180
  119OSM   C14S12530   4.389   4.311   7.665  0.0110  0.0541  0.3480
  119OSM   H14S12531   4.387   4.420   7.645 -0.4872  0.0271  0.2332
  119OSM   H14T12532   4.492   4.295   7.703 -0.5688 -2.2684  1.0193
  119OSM   C15S12533   4.278   4.273   7.764  0.7714 -0.1430  0.3784
  119OSM   H15S12534   4.278   4.167   7.799 -2.4675 -0.2149  0.2381
  119OSM   H15T12535   4.174   4.288   7.729  1.0596  1.1047  0.0239
  119OSM   C16S12536   4.293   4.353   7.897 -0.4384 -0.0206  0.1090
  119OSM   H16S12537   4.276   4.461   7.876  2.6871  1.2963  3.7196
  119OSM   H16T12538   4.399   4.341   7.929  0.0970 -1.0976 -1.9879
  119OSM   C17S12539   4.208   4.290   8.014 -0.0890  0.3444  0.1412
  119OSM   H17S12540   4.237   4.184   8.027 -0.6225  0.2132  0.2826
  119OSM   H17T12541   4.106   4.287   7.969  0.0132 -1.1677  0.0079
  119OSM   C18S12542   4.212   4.365   8.144  0.8637 -0.8353 -0.1690
  119OSM   H18S12543   4.311   4.371   8.194 -0.0854 -0.4393  1.7128
  119OSM   H18T12544   4.139   4.327   8.218  2.4078  1.7617  2.7909
  119OSM   H18U12545   4.183   4.472   8.134  0.7015 -0.5565  2.8105
  119OSM    C1F12546   4.627   3.854   6.407 -0.4366  0.8469  0.2786
  119OSM     OF12547   4.728   3.903   6.372 -0.3955 -0.0557  0.5111
  119OSM    C2F12548   4.614   3.710   6.449 -0.1120 -0.3176  0.1070
  119OSM    H2F12549   4.642   3.645   6.363 -1.9309 -1.0847  0.0641
  119OSM    H2G12550   4.509   3.676   6.462  0.3041 -1.0104  1.7003
  119OSM    C3F12551   4.694   3.666   6.579  0.2591 -0.3022 -0.0546
  119OSM    H3F12552   4.798   3.706   6.574  0.0234  0.3994  0.6069
  119OSM    H3G12553   4.695   3.556   6.593  0.2483 -0.1902  0.8885
  119OSM    C4F12554   4.632   3.738   6.708  0.0382 -0.4643 -0.1593
  119OSM    H4F12555   4.525   3.710   6.719  0.3149 -0.2174  3.6764
  119OSM    H4G12556   4.633   3.848   6.690  0.5055 -0.0872  2.0614
  119OSM    C5F12557   4.714   3.710   6.834 -0.4124  0.4016  0.2377
  119OSM    H5F12558   4.807   3.767   6.814  0.3981 -1.3082 -0.9953
  119OSM    H5G12559   4.739   3.602   6.834 -0.8394  0.2847 -1.7243
  119OSM    C6F12560   4.649   3.738   6.974 -0.2987  0.4644  0.6675
  119OSM    H6F12561   4.626   3.845   6.990 -0.7428  0.7499 -1.6758
  119OSM    H6G12562   4.724   3.712   7.051  1.6843  1.5241 -0.8422
  119OSM    C7F12563   4.530   3.648   7.005  0.4895 -0.1607 -0.0845
  119OSM    H7F12564   4.550   3.543   6.975 -1.4314 -0.8509  0.9021
  119OSM    H7G12565   4.443   3.686   6.947  1.2693  0.3531 -0.9144
  119OSM    C8F12566   4.474   3.651   7.150 -0.0872 -0.1003 -0.1323
  119OSM    H8F12567   4.397   3.570   7.143 -0.6106  0.4346 -0.6357
  119OSM    H8G12568   4.434   3.751   7.174 -0.1924 -0.3722  0.8489
  119OSM    C9F12569   4.569   3.600   7.253  0.5621  0.5638  0.4219
  119OSM    H9F12570   4.603   3.496   7.236 -0.3606  0.6583 -2.3951
  119OSM   C10F12571   4.616   3.661   7.370 -0.1586  0.2875  0.4033
  119OSM   H10F12572   4.682   3.591   7.424  0.0145  1.2346  1.4442
  119OSM   C11F12573   4.587   3.794   7.422 -0.4211 -0.1631  0.0811
  119OSM   H11F12574   4.487   3.832   7.393  0.2810  2.2372  0.7131
  119OSM   H11G12575   4.662   3.866   7.385  0.3723 -0.5821  0.8580
  119OSM   C12F12576   4.585   3.782   7.578  0.2168 -0.4488  0.3001
  119OSM   H12F12577   4.673   3.729   7.621  0.0265 -1.9093 -1.0574
  119OSM   H12G12578   4.485   3.746   7.611 -1.2603  1.1989 -2.2093
  119OSM   C13F12579   4.591   3.927   7.642 -0.1177 -0.1938 -0.0124
  119OSM   H13F12580   4.490   3.971   7.635  0.1057  0.5279  1.1625
  119OSM   H13G12581   4.664   3.992   7.589  0.8938 -0.6306  0.8186
  119OSM   C14F12582   4.618   3.918   7.792  0.1479  0.6330 -0.0079
  119OSM   H14F12583   4.724   3.887   7.804 -0.0767 -0.5478 -0.9345
  119OSM   H14G12584   4.547   3.844   7.835  0.4652  0.4131  0.1392
  119OSM   C15F12585   4.598   4.052   7.871 -0.7042  1.0175  0.3195
  119OSM   H15F12586   4.490   4.077   7.877 -0.0961  3.5634  1.3537
  119OSM   H15G12587   4.653   4.125   7.808 -1.7940  1.5742  0.0137
  119OSM   C16F12588   4.658   4.029   8.009  0.2088 -1.1886  0.1423
  119OSM   H16F12589   4.769   4.017   8.004  0.2211 -1.2392  0.5771
  119OSM   H16G12590   4.624   3.934   8.054  1.7136 -0.6928  2.4433
  119OSM   C17F12591   4.625   4.152   8.089  0.4812 -0.2323 -0.7820
  119OSM   H17F12592   4.636   4.246   8.030 -1.3099  0.1947 -0.4742
  119OSM   H17G12593   4.703   4.173   8.165  3.6380 -0.4114 -3.8684
  119OSM   C18F12594   4.491   4.144   8.171  0.2801  0.2240 -0.6126
  119OSM   H18F12595   4.416   4.114   8.095 -0.3628 -2.6650  1.0711
  119OSM   H18G12596   4.459   4.231   8.232 -0.1485 -1.2601  1.3144
  119OSM   H18H12597   4.510   4.055   8.234  1.4327  0.1054 -1.1088
  120OSM      N12598   2.575   1.704   6.644  0.7509 -0.0815 -0.5850
  120OSM    C1512599   2.655   1.643   6.533  0.3462  0.3045 -0.1696
  120OSM   H15A12600   2.734   1.707   6.495  0.5965 -1.4361 -2.7404
  120OSM   H15B12601   2.585   1.618   6.455  0.7098 -0.5229 -0.2427
  120OSM   H15C12602   2.702   1.551   6.564 -0.6880 -0.4440 -0.8258
  120OSM    C1412603   2.670   1.712   6.756  0.5570 -0.4066 -0.3048
  120OSM   H14A12604   2.705   1.613   6.780 -1.5389 -1.0340  0.2102
  120OSM   H14B12605   2.627   1.739   6.851 -0.6362 -1.5281 -0.5203
  120OSM   H14C12606   2.750   1.777   6.722 -0.0738 -0.1630 -1.3506
  120OSM    C1312607   2.519   1.835   6.603  0.1487  0.4563  0.3844
  120OSM   H13A12608   2.592   1.914   6.598  0.4544  0.1749  0.4230
  120OSM   H13B12609   2.441   1.869   6.670  0.6799  1.3543  0.5547
  120OSM   H13C12610   2.474   1.822   6.505  0.6248  0.8368  0.1119
  120OSM    C1212611   2.454   1.611   6.672  0.0259 -0.3698 -0.5962
  120OSM   H12A12612   2.396   1.652   6.753  0.4640 -1.1510  0.1301
  120OSM   H12B12613   2.494   1.523   6.721  3.7093  0.6962 -1.5548
  120OSM    C1112614   2.343   1.586   6.559  0.1977  0.6875  0.1569
  120OSM   H11A12615   2.321   1.693   6.535 -0.9559  0.2949 -0.5822
  120OSM   H11B12616   2.252   1.542   6.606  1.1956 -1.0672  0.4681
  120OSM      P12617   2.384   1.374   6.418  0.6198  0.0833 -0.4333
  120OSM    O1312618   2.245   1.338   6.382  0.2104 -0.0778 -0.1556
  120OSM    O1412619   2.493   1.350   6.322  0.6649 -0.5807 -0.6529
  120OSM    O1112620   2.413   1.295   6.557 -0.6808  0.3737  0.2027
  120OSM    O1212621   2.391   1.536   6.437 -0.2973  0.6491 -0.3261
  120OSM    C1S12622   2.545   1.266   6.599 -0.3733 -0.2690  0.7880
  120OSM    H1S12623   2.607   1.358   6.593 -1.0828  0.2975  1.9569
  120OSM    H1T12624   2.595   1.208   6.518 -0.5353  3.3302 -2.0351
  120OSM     NF12625   2.688   1.218   6.785  0.1717 -0.5194  0.4665
  120OSM    HNF12626   2.746   1.137   6.797 -0.0801 -0.3947  2.8904
  120OSM    C2S12627   2.553   1.197   6.735 -0.5061  0.3737 -0.3988
  120OSM    H2S12628   2.486   1.252   6.805  0.0811 -1.0050  1.2699
  120OSM    C3S12629   2.500   1.054   6.737 -0.8271 -0.3151 -0.2936
  120OSM    H3S12630   2.566   0.997   6.669  1.3201  0.4279  1.1120
  120OSM     O312631   2.370   1.040   6.691  0.3793 -0.0300 -0.1662
  120OSM    HO312632   2.343   1.124   6.654  1.3102  1.6961  2.8538
  120OSM    C4S12633   2.497   0.990   6.874 -0.8994 -0.2070  0.1712
  120OSM    H4S12634   2.447   1.058   6.946 -0.4800  0.9741 -0.6372
  120OSM    C5S12635   2.538   0.869   6.920  0.6115 -0.7494 -0.5661
  120OSM    H5S12636   2.591   0.804   6.849  1.5486 -0.3267 -0.2722
  120OSM    C6S12637   2.513   0.798   7.058 -0.2270 -0.4861  0.0800
  120OSM    H6S12638   2.411   0.825   7.091 -0.3905 -1.1028  0.0789
  120OSM    H6T12639   2.583   0.839   7.134  0.3565 -2.3717  0.5760
  120OSM    C7S12640   2.523   0.644   7.039 -0.5115 -0.1110  0.5673
  120OSM    H7S12641   2.630   0.623   7.016 -0.6875 -1.2525  0.7345
  120OSM    H7T12642   2.458   0.610   6.955  0.1531  2.2702 -0.9627
  120OSM    C8S12643   2.480   0.569   7.167  0.3364 -0.3688 -0.6186
  120OSM    H8S12644   2.498   0.460   7.156 -1.2586 -0.6869 -0.2365
  120OSM    H8T12645   2.371   0.587   7.174  0.7753  1.9288  0.9614
  120OSM    C9S12646   2.551   0.624   7.294 -0.0689 -0.0020 -0.0289
  120OSM    H9S12647   2.505   0.720   7.323 -3.0754 -1.1827 -0.7048
  120OSM    H9T12648   2.657   0.647   7.270  0.0271  1.3037  1.5795
  120OSM   C10S12649   2.566   0.549   7.426  0.3566 -0.0054 -0.2444
  120OSM   H10S12650   2.608   0.610   7.508  1.9768  1.1649 -1.8984
  120OSM   H10T12651   2.643   0.473   7.402 -0.7541 -0.7811 -1.4701
  120OSM   C11S12652   2.434   0.496   7.469 -0.2474 -0.0415 -0.2504
  120OSM   H11S12653   2.395   0.418   7.400  1.8701 -0.7692 -0.6757
  120OSM   H11T12654   2.359   0.578   7.474 -0.9615 -0.6076 -1.4656
  120OSM   C12S12655   2.428   0.428   7.611 -1.0839 -0.0675 -0.0830
  120OSM   H12S12656   2.465   0.493   7.694 -0.8566 -0.0421 -0.2047
  120OSM   H12T12657   2.490   0.337   7.618 -0.9578 -0.2125 -2.6350
  120OSM   C13S12658   2.290   0.389   7.660 -0.2040 -0.2061 -0.0602
  120OSM   H13S12659   2.229   0.341   7.580 -2.5392 -2.4328  2.9110
  120OSM   H13T12660   2.242   0.485   7.692  0.2640  0.0112 -0.0080
  120OSM   C14S12661   2.289   0.303   7.796  0.0023  0.4965 -0.4349
  120OSM   H14S12662   2.381   0.312   7.857  0.3756  1.0441 -1.0667
  120OSM   H14T12663   2.278   0.200   7.756 -1.6750  0.5577 -0.1922
  120OSM   C15S12664   2.175   0.340   7.889 -0.1129  0.1374  0.1458
  120OSM   H15S12665   2.077   0.313   7.843  0.1516 -0.9594  0.2078
  120OSM   H15T12666   2.171   0.450   7.902 -0.8348  0.0240  0.8927
  120OSM   C16S12667   2.189   0.284   8.029 -0.3527 -0.1731 -0.1226
  120OSM   H16S12668   2.293   0.292   8.068 -0.1920  0.9773 -0.7474
  120OSM   H16T12669   2.172   0.175   8.034  1.6990 -0.4768  1.0095
  120OSM   C17S12670   2.110   0.359   8.146 -0.0791  0.2233  0.1862
  120OSM   H17S12671   2.093   0.284   8.225 -1.0836  1.0203  0.7429
  120OSM   H17T12672   2.012   0.391   8.102  0.5442  2.2831  0.2072
  120OSM   C18S12673   2.180   0.473   8.217 -0.5977 -0.3933  0.2193
  120OSM   H18S12674   2.279   0.442   8.257  0.1208  0.8304 -0.5511
  120OSM   H18T12675   2.125   0.521   8.300  0.3178  1.0478  0.0192
  120OSM   H18U12676   2.205   0.559   8.150  0.0963  1.0748  2.2869
  120OSM    C1F12677   2.746   1.338   6.809 -0.4974 -0.0347 -0.1787
  120OSM     OF12678   2.665   1.432   6.827 -0.6757 -0.0563 -0.2408
  120OSM    C2F12679   2.892   1.346   6.803 -0.2583 -0.0250 -0.9002
  120OSM    H2F12680   2.915   1.412   6.717 -0.3910  0.2915 -0.6943
  120OSM    H2G12681   2.938   1.245   6.795 -2.2111 -1.2274  1.9959
  120OSM    C3F12682   2.938   1.405   6.942  0.6733 -0.3499 -0.1285
  120OSM    H3F12683   2.894   1.507   6.951 -0.9073 -0.9328 -1.0896
  120OSM    H3G12684   3.048   1.416   6.937  0.6063  0.5865  0.3388
  120OSM    C4F12685   2.911   1.326   7.069 -0.3471  0.1695 -0.0463
  120OSM    H4F12686   2.948   1.222   7.056  0.0595  0.5415 -2.0864
  120OSM    H4G12687   2.800   1.316   7.070 -0.5769  2.3678 -1.2586
  120OSM    C5F12688   2.947   1.390   7.203  0.1312 -0.0972  0.2071
  120OSM    H5F12689   2.873   1.470   7.223 -0.4663 -0.6038  0.0565
  120OSM    H5G12690   3.049   1.422   7.172 -0.7594  0.3382 -2.4057
  120OSM    C6F12691   2.941   1.298   7.323 -0.3899  0.1147 -0.4707
  120OSM    H6F12692   2.896   1.203   7.287  0.3479 -0.8849  1.1460
  120OSM    H6G12693   2.881   1.352   7.399  0.6558 -1.4652  1.5276
  120OSM    C7F12694   3.079   1.264   7.378 -0.7789 -0.1648  0.4068
  120OSM    H7F12695   3.149   1.350   7.383 -0.6221 -0.3846  2.3956
  120OSM    H7G12696   3.115   1.180   7.316 -0.4283  0.3177 -0.0446
  120OSM    C8F12697   3.087   1.213   7.528 -0.0924 -0.4987 -0.0694
  120OSM    H8F12698   3.047   1.109   7.538 -0.9014 -0.0477  1.4858
  120OSM    H8G12699   3.015   1.269   7.592  0.0740  0.7766 -0.9948
  120OSM    C9F12700   3.223   1.206   7.575 -0.8081  0.2531  0.0001
  120OSM    H9F12701   3.252   1.282   7.649  1.2809  0.1301 -0.6603
  120OSM   C10F12702   3.320   1.111   7.543  0.2479  0.1033 -0.6215
  120OSM   H10F12703   3.422   1.114   7.583 -0.1710 -2.1648  0.7646
  120OSM   C11F12704   3.302   0.998   7.455 -0.4942 -0.7219  0.0510
  120OSM   H11F12705   3.365   1.022   7.367  0.7914 -1.0409  0.8752
  120OSM   H11G12706   3.194   0.981   7.432 -1.8608  4.4634  1.8865
  120OSM   C12F12707   3.355   0.867   7.517 -0.3803  0.6241 -0.6338
  120OSM   H12F12708   3.322   0.794   7.440  3.0687 -1.4545 -0.2403
  120OSM   H12G12709   3.305   0.849   7.615 -1.2516 -1.5966 -1.4511
  120OSM   C13F12710   3.506   0.853   7.523  0.6774  0.1839  0.1140
  120OSM   H13F12711   3.542   0.926   7.598 -2.0074  0.7376  0.9304
  120OSM   H13G12712   3.563   0.884   7.433  1.9240  2.0999  1.5171
  120OSM   C14F12713   3.541   0.716   7.582 -0.4648 -0.3545  0.1346
  120OSM   H14F12714   3.635   0.669   7.545 -1.0523 -1.3276 -0.1626
  120OSM   H14G12715   3.459   0.647   7.550 -1.3375  1.6453 -2.0922
  120OSM   C15F12716   3.552   0.710   7.739 -0.1493  0.5906 -0.3884
  120OSM   H15F12717   3.545   0.606   7.776 -1.1142  1.2559  1.3571
  120OSM   H15G12718   3.467   0.763   7.786 -1.2587 -0.3947 -1.2324
  120OSM   C16F12719   3.691   0.764   7.774 -0.5579  0.4512  0.8530
  120OSM   H16F12720   3.728   0.854   7.721 -3.4073  0.8366 -0.6130
  120OSM   H16G12721   3.753   0.690   7.719  0.1750  0.4269  1.6993
  120OSM   C17F12722   3.724   0.776   7.924  0.1657 -0.0174  0.4693
  120OSM   H17F12723   3.834   0.779   7.940  0.2621 -1.9392  0.3489
  120OSM   H17G12724   3.685   0.684   7.974  0.4572 -2.0256 -2.8238
  120OSM   C18F12725   3.665   0.904   7.978  0.7338 -0.1091  0.1619
  120OSM   H18F12726   3.655   0.912   8.088  0.6140  1.1737  0.0682
  120OSM   H18G12727   3.560   0.905   7.939  0.9517  0.9064 -0.4405
  120OSM   H18H12728   3.715   0.994   7.936  0.2631  0.1195  0.0775
  121OSM      N12729   4.391   3.290   5.820 -0.3044 -0.3160 -0.3761
  121OSM    C1512730   4.503   3.214   5.751  0.0765  0.3966 -0.3665
  121OSM   H15A12731   4.550   3.275   5.676 -1.6645  0.7153 -1.2022
  121OSM   H15B12732   4.483   3.116   5.710 -0.8133  0.1773  0.5632
  121OSM   H15C12733   4.586   3.203   5.820 -1.4959  3.7733  2.2146
  121OSM    C1412734   4.466   3.410   5.875  0.3502 -0.2038  0.5008
  121OSM   H14A12735   4.538   3.392   5.953 -0.1032  1.5379  1.3271
  121OSM   H14B12736   4.396   3.479   5.919  0.9030  0.1639  0.8086
  121OSM   H14C12737   4.520   3.463   5.798 -0.1123 -0.0889  0.2528
  121OSM    C1312738   4.299   3.348   5.716 -0.0857 -0.3347  0.1750
  121OSM   H13A12739   4.359   3.406   5.647  1.5783 -1.7383  0.4317
  121OSM   H13B12740   4.222   3.411   5.759 -0.0539 -0.2906  0.1682
  121OSM   H13C12741   4.252   3.272   5.655  2.1717 -0.4674 -1.4509
  121OSM    C1212742   4.312   3.212   5.924 -0.1052 -0.8909  0.5488
  121OSM   H12A12743   4.235   3.278   5.963  0.8022 -0.8366  2.2895
  121OSM   H12B12744   4.379   3.195   6.007  0.2381 -1.6047  0.1302
  121OSM    C1112745   4.254   3.073   5.879  0.1675 -1.2096  0.0768
  121OSM   H11A12746   4.200   3.099   5.785 -0.7995 -1.0570  0.6677
  121OSM   H11B12747   4.174   3.038   5.948 -0.9214  2.4763  0.7679
  121OSM      P12748   4.425   2.917   5.978  0.0359 -0.5807 -0.0519
  121OSM    O1312749   4.363   2.790   5.999 -0.3520 -0.1809 -0.2253
  121OSM    O1412750   4.566   2.916   5.949 -0.2714 -0.2072  0.1909
  121OSM    O1112751   4.392   3.012   6.102  0.0078  0.4340 -0.2612
  121OSM    O1212752   4.358   2.980   5.850  0.0107  0.6325  0.0722
  121OSM    C1S12753   4.461   2.998   6.224  0.3210  0.5478 -1.0799
  121OSM    H1S12754   4.563   3.043   6.224 -0.6488  2.8417  0.2612
  121OSM    H1T12755   4.482   2.892   6.249  0.7960  0.3071 -2.4339
  121OSM     NF12756   4.461   3.046   6.467  0.0235  0.0301 -0.7083
  121OSM    HNF12757   4.439   2.966   6.522 -2.5450  1.6935  0.7663
  121OSM    C2S12758   4.379   3.057   6.345  0.6151  0.5117 -0.6068
  121OSM    H2S12759   4.373   3.164   6.318  2.0874  1.0695  1.1516
  121OSM    C3S12760   4.234   3.001   6.348 -0.0155 -0.1668  0.6266
  121OSM    H3S12761   4.241   2.891   6.358  1.6814 -0.1210 -0.0499
  121OSM     O312762   4.145   3.027   6.239  0.6401  0.5710  0.6585
  121OSM    HO312763   4.148   2.940   6.198 -1.3152  0.9382 -0.2882
  121OSM    C4S12764   4.165   3.054   6.465  0.4847 -0.7152  0.9853
  121OSM    H4S12765   4.159   3.163   6.474 -1.5842 -0.8273  1.2716
  121OSM    C5S12766   4.102   2.979   6.561  0.1360 -0.3482  0.0044
  121OSM    H5S12767   4.102   2.869   6.556 -1.4117 -0.3698  0.2476
  121OSM    C6S12768   4.035   3.031   6.688  0.2128  0.0879 -0.3286
  121OSM    H6S12769   4.058   3.139   6.696 -0.6768  0.4044 -1.7546
  121OSM    H6T12770   4.084   2.980   6.774 -0.0084  0.5711  0.0866
  121OSM    C7S12771   3.883   3.002   6.701 -0.0077 -1.0481 -0.3212
  121OSM    H7S12772   3.867   2.892   6.712 -3.3044 -0.8215 -1.9694
  121OSM    H7T12773   3.836   3.040   6.608  3.4327  2.2724 -0.7867
  121OSM    C8S12774   3.827   3.092   6.816 -0.2578  0.0874  0.1946
  121OSM    H8S12775   3.717   3.086   6.802 -0.2239 -1.9834  0.6818
  121OSM    H8T12776   3.861   3.197   6.799  0.7349  0.0925  2.0584
  121OSM    C9S12777   3.869   3.037   6.952  0.0613  0.3163 -0.2281
  121OSM    H9S12778   3.973   2.998   6.949 -0.1805 -0.3518 -0.1722
  121OSM    H9T12779   3.803   2.948   6.959 -0.2228  0.3704 -2.1604
  121OSM   C10S12780   3.840   3.127   7.067  0.7347 -0.1687 -0.0547
  121OSM   H10S12781   3.731   3.149   7.065  0.4869 -1.3345  0.4933
  121OSM   H10T12782   3.890   3.225   7.046  0.9630 -0.2263  0.2196
  121OSM   C11S12783   3.891   3.070   7.199 -0.6895  0.2478  0.0342
  121OSM   H11S12784   4.002   3.063   7.201 -0.7043 -0.1632 -0.4569
  121OSM   H11T12785   3.874   2.961   7.210  1.9720 -0.2595 -0.4816
  121OSM   C12S12786   3.840   3.146   7.325  0.7024 -0.0035 -0.0392
  121OSM   H12S12787   3.729   3.147   7.313  0.8984 -1.9290 -2.1245
  121OSM   H12T12788   3.870   3.253   7.315 -0.1007  0.5608  2.8759
  121OSM   C13S12789   3.883   3.083   7.458  0.1635  0.2160  0.6664
  121OSM   H13S12790   3.992   3.101   7.470 -0.2865  3.8213 -0.1794
  121OSM   H13T12791   3.858   2.976   7.440  1.0658 -0.2786  2.3059
  121OSM   C14S12792   3.813   3.143   7.581  0.2022 -0.1279  0.3272
  121OSM   H14S12793   3.705   3.129   7.561  0.2705  0.5138 -0.5280
  121OSM   H14T12794   3.833   3.252   7.582  4.3390 -0.8087  0.3956
  121OSM   C15S12795   3.864   3.073   7.708  0.3812 -0.2247 -0.7372
  121OSM   H15S12796   3.973   3.059   7.692  0.4158 -0.4161 -0.3285
  121OSM   H15T12797   3.830   2.967   7.715 -0.7484  0.2427  1.1107
  121OSM   C16S12798   3.838   3.138   7.851  0.1177 -0.8687  0.0448
  121OSM   H16S12799   3.733   3.170   7.867  0.5782  0.9284 -0.4865
  121OSM   H16T12800   3.891   3.235   7.847  0.2458 -1.0217 -3.0917
  121OSM   C17S12801   3.896   3.062   7.974  0.8545  0.3021 -0.1305
  121OSM   H17S12802   4.007   3.062   7.973  0.8560 -0.4348 -0.1871
  121OSM   H17T12803   3.865   2.957   7.959 -1.4272  0.8840  0.4149
  121OSM   C18S12804   3.847   3.121   8.103 -0.0849 -0.0180  0.6524
  121OSM   H18S12805   3.840   3.041   8.180 -0.9377  0.3735  0.9826
  121OSM   H18T12806   3.745   3.163   8.103 -0.3641 -0.6847  0.2936
  121OSM   H18U12807   3.922   3.197   8.135  1.7974 -0.7820 -1.7429
  121OSM    C1F12808   4.583   3.115   6.481 -0.3446  0.0122 -0.9272
  121OSM     OF12809   4.610   3.208   6.406  0.0241  0.3243 -0.4508
  121OSM    C2F12810   4.662   3.073   6.604 -0.0585 -0.3590 -0.3404
  121OSM    H2F12811   4.699   2.968   6.604 -0.3114 -0.4571 -1.8327
  121OSM    H2G12812   4.590   3.064   6.689 -0.3302 -0.5946 -0.5933
  121OSM    C3F12813   4.782   3.162   6.635 -0.2619  0.0157  0.1079
  121OSM    H3F12814   4.846   3.189   6.549 -0.8852  0.9034 -0.0759
  121OSM    H3G12815   4.849   3.108   6.706  0.2459  0.4713 -0.0223
  121OSM    C4F12816   4.735   3.295   6.696 -0.3577 -0.0385  0.2821
  121OSM    H4F12817   4.636   3.332   6.662 -0.3688 -0.1487  0.1943
  121OSM    H4G12818   4.817   3.358   6.656 -0.8714  0.7922  0.5152
  121OSM    C5F12819   4.734   3.300   6.850  0.3777 -0.5296 -0.0066
  121OSM    H5F12820   4.685   3.396   6.877 -0.5938 -0.9174 -0.3920
  121OSM    H5G12821   4.840   3.299   6.883 -0.4438 -0.9372  2.8435
  121OSM    C6F12822   4.658   3.195   6.929 -0.3323  0.0608  0.1308
  121OSM    H6F12823   4.702   3.099   6.892 -0.4553  0.3380 -0.7428
  121OSM    H6G12824   4.554   3.203   6.891 -1.1543 -0.7050  2.1430
  121OSM    C7F12825   4.665   3.197   7.088  0.3785  0.3540  0.0871
  121OSM    H7F12826   4.599   3.280   7.123  3.0545  2.2125  0.8553
  121OSM    H7G12827   4.770   3.217   7.118  0.7225 -1.6170  0.3092
  121OSM    C8F12828   4.621   3.060   7.160 -0.3814  0.5728  0.0551
  121OSM    H8F12829   4.639   3.065   7.270 -2.3502  0.2667  0.4026
  121OSM    H8G12830   4.693   2.981   7.128 -0.7540  0.0224  0.5725
  121OSM    C9F12831   4.479   3.027   7.116  0.3555 -0.1448  0.3921
  121OSM    H9F12832   4.460   3.060   7.013 -1.2637  0.5308  0.8981
  121OSM   C10F12833   4.388   2.949   7.185  0.1086 -0.5913  0.3881
  121OSM   H10F12834   4.294   2.919   7.136 -0.0018 -0.7785  0.7125
  121OSM   C11F12835   4.417   2.879   7.313  0.5612  0.1305 -0.6439
  121OSM   H11F12836   4.504   2.930   7.359 -1.2422  2.4709  0.2611
  121OSM   H11G12837   4.438   2.771   7.295  0.5176  0.2903 -1.6676
  121OSM   C12F12838   4.300   2.893   7.419  0.9114  0.7295  0.4302
  121OSM   H12F12839   4.218   2.829   7.381  0.6034  2.6129 -2.1943
  121OSM   H12G12840   4.271   2.999   7.434 -0.0596  0.3799  1.1273
  121OSM   C13F12841   4.335   2.835   7.558 -0.2174  0.5541  0.1890
  121OSM   H13F12842   4.378   2.734   7.538 -2.2515 -0.1378 -0.8830
  121OSM   H13G12843   4.257   2.827   7.637 -0.2797  1.3411  0.2026
  121OSM   C14F12844   4.452   2.908   7.630 -0.3339 -0.8339 -0.1501
  121OSM   H14F12845   4.547   2.877   7.579  0.9682  1.6783  0.6999
  121OSM   H14G12846   4.453   2.877   7.736  3.3134 -3.3753 -0.8013
  121OSM   C15F12847   4.453   3.061   7.624 -0.9722  0.0402  0.1903
  121OSM   H15F12848   4.353   3.096   7.657 -0.2188 -1.4179  4.3581
  121OSM   H15G12849   4.459   3.093   7.518  0.0310  0.3802  0.3487
  121OSM   C16F12850   4.575   3.130   7.692 -0.6325  0.1539  0.3323
  121OSM   H16F12851   4.666   3.110   7.632 -0.4806 -0.6160  0.8155
  121OSM   H16G12852   4.579   3.087   7.794 -0.4031 -0.2710  0.1460
  121OSM   C17F12853   4.562   3.284   7.700  0.1508  0.8339  0.3159
  121OSM   H17F12854   4.623   3.311   7.789 -1.3324 -0.8410  1.8973
  121OSM   H17G12855   4.456   3.302   7.728 -0.1951  0.0268 -0.4470
  121OSM   C18F12856   4.595   3.357   7.573  0.6606  0.2068 -0.1213
  121OSM   H18F12857   4.585   3.466   7.595  0.6839  0.1071  0.3858
  121OSM   H18G12858   4.528   3.348   7.485  1.0681 -0.3920 -0.3711
  121OSM   H18H12859   4.700   3.328   7.551  0.0031 -2.6031  0.2717
  122OSM      N12860   3.265   5.317   6.155 -0.3854  0.2484 -0.4042
  122OSM    C1512861   3.312   5.257   6.027 -0.1808 -1.1311 -0.4489
  122OSM   H15A12862   3.235   5.227   5.958 -1.8740  0.4476  0.7300
  122OSM   H15B12863   3.360   5.163   6.052  1.9543  0.1785  0.5388
  122OSM   H15C12864   3.383   5.317   5.973  1.7268 -1.7438  1.2770
  122OSM    C1412865   3.378   5.372   6.233 -0.7626 -0.2038 -0.2470
  122OSM   H14A12866   3.450   5.292   6.243 -2.3166 -1.4763  0.9891
  122OSM   H14B12867   3.353   5.403   6.334  1.8684  0.3144  0.2967
  122OSM   H14C12868   3.427   5.450   6.177  1.4465 -0.7496  0.8718
  122OSM    C1312869   3.172   5.432   6.116  0.1787  0.1486  0.6173
  122OSM   H13A12870   3.154   5.474   6.214  1.3639 -0.5591  1.1559
  122OSM   H13B12871   3.085   5.392   6.068  0.3590  0.2087  0.2393
  122OSM   H13C12872   3.223   5.498   6.048 -1.6728 -2.3970 -3.3965
  122OSM    C1212873   3.179   5.216   6.239 -0.4468 -0.4151 -0.1437
  122OSM   H12A12874   3.096   5.177   6.182 -1.3803  2.1526 -0.5978
  122OSM   H12B12875   3.140   5.274   6.321 -0.3638 -0.0394 -0.3703
  122OSM    C1112876   3.251   5.091   6.291 -0.2773 -0.5522 -0.1646
  122OSM   H11A12877   3.213   5.044   6.385  1.9429 -3.3091 -0.5888
  122OSM   H11B12878   3.354   5.121   6.320 -0.2685 -2.2582  1.7035
  122OSM      P12879   3.145   4.906   6.142  0.5157  0.6158 -0.2900
  122OSM    O1312880   3.029   4.974   6.085  0.1690 -0.4579 -0.0026
  122OSM    O1412881   3.199   4.797   6.062 -0.4951 -0.4283 -0.3330
  122OSM    O1112882   3.100   4.849   6.280  0.0313 -0.0060  0.5651
  122OSM    O1212883   3.259   5.005   6.180  0.4279  0.5730  0.5311
  122OSM    C1S12884   3.189   4.766   6.360  0.0437 -0.3757 -0.3385
  122OSM    H1S12885   3.295   4.799   6.356  0.0346 -0.3924 -0.6697
  122OSM    H1T12886   3.187   4.663   6.321  4.7672 -0.0132 -1.9074
  122OSM     NF12887   3.252   4.693   6.586  0.0540 -0.2411  0.2649
  122OSM    HNF12888   3.232   4.604   6.626 -3.7480  1.2079  1.8345
  122OSM    C2S12889   3.154   4.776   6.517  0.3345  0.3543 -0.0763
  122OSM    H2S12890   3.164   4.885   6.536 -0.6542  0.5129 -0.4637
  122OSM    C3S12891   3.007   4.749   6.546  0.0635  0.2540  0.8957
  122OSM    H3S12892   2.984   4.645   6.516  3.0640 -0.6019  1.4698
  122OSM     O312893   2.917   4.823   6.466  0.0925 -0.0120 -0.1466
  122OSM    HO312894   2.970   4.884   6.415  1.4562  0.0935  1.3567
  122OSM    C4S12895   2.963   4.781   6.689 -0.0443 -0.4806 -0.0211
  122OSM    H4S12896   2.981   4.883   6.725  2.0453  0.1481 -2.7293
  122OSM    C5S12897   2.931   4.685   6.774  0.0528  0.0886  1.0133
  122OSM    H5S12898   2.932   4.583   6.732  0.5225 -0.7008  2.9050
  122OSM    C6S12899   2.901   4.692   6.922  0.3814 -0.4636  0.3121
  122OSM    H6S12900   2.796   4.658   6.933  0.7865 -1.8804 -0.0917
  122OSM    H6T12901   2.915   4.795   6.963  0.9336  0.3155 -1.7592
  122OSM    C7S12902   2.987   4.605   7.026  0.2563 -0.4885 -0.4197
  122OSM    H7S12903   3.089   4.648   7.022  0.9077 -2.0680 -0.9756
  122OSM    H7T12904   2.982   4.496   7.007  1.3116 -0.3379 -1.6032
  122OSM    C8S12905   2.923   4.638   7.172 -0.6763 -0.0643  1.2478
  122OSM    H8S12906   2.822   4.593   7.171 -0.8974  0.4340  0.6290
  122OSM    H8T12907   2.901   4.747   7.171  0.8230  0.2472  0.2432
  122OSM    C9S12908   3.010   4.597   7.288 -0.9279  0.3845  0.1820
  122OSM    H9S12909   3.089   4.670   7.314 -0.3785 -0.6230  1.4003
  122OSM    H9T12910   3.056   4.500   7.258 -1.8697  0.6727 -2.2722
  122OSM   C10S12911   2.922   4.582   7.416 -0.4129 -0.4562  0.1400
  122OSM   H10S12912   2.852   4.500   7.390 -1.7207  0.6920 -0.0845
  122OSM   H10T12913   2.847   4.663   7.434 -1.6282 -1.5439  0.0795
  122OSM   C11S12914   2.992   4.542   7.548 -0.1345  0.0985 -0.3849
  122OSM   H11S12915   3.084   4.599   7.576 -1.1374  1.7667 -0.3729
  122OSM   H11T12916   3.033   4.440   7.538 -2.9497 -1.3408  2.0080
  122OSM   C12S12917   2.899   4.575   7.660 -0.1331 -0.1446 -0.8322
  122OSM   H12S12918   2.798   4.537   7.632 -0.6039  0.4665 -0.0150
  122OSM   H12T12919   2.885   4.684   7.678 -0.7096 -0.3756  0.1806
  122OSM   C13S12920   2.931   4.497   7.786 -0.2997 -0.1075  0.3508
  122OSM   H13S12921   3.040   4.484   7.775 -0.6051 -2.5841  0.0400
  122OSM   H13T12922   2.875   4.402   7.773 -0.9334 -0.1551  3.0317
  122OSM   C14S12923   2.915   4.577   7.915 -0.4674 -0.7420 -0.6110
  122OSM   H14S12924   2.979   4.668   7.910 -0.0123 -1.1899 -3.9262
  122OSM   H14T12925   2.934   4.509   8.001 -1.2971  0.1168  0.2707
  122OSM   C15S12926   2.775   4.612   7.947 -0.1269 -0.3459 -0.7580
  122OSM   H15S12927   2.736   4.551   8.031  1.0013 -0.8340 -0.5843
  122OSM   H15T12928   2.696   4.588   7.872 -0.8428 -2.9204  0.7645
  122OSM   C16S12929   2.772   4.757   8.000  0.0460  0.0518 -0.3351
  122OSM   H16S12930   2.665   4.782   8.018 -1.8729 -2.5579 -6.7071
  122OSM   H16T12931   2.810   4.822   7.918  1.9844 -0.8148 -0.1469
  122OSM   C17S12932   2.836   4.781   8.140  0.1240  0.4114 -0.0060
  122OSM   H17S12933   2.815   4.886   8.170 -3.0351 -0.7624  2.0714
  122OSM   H17T12934   2.947   4.782   8.137  0.0767  0.0525 -2.7044
  122OSM   C18S12935   2.794   4.681   8.250  0.3912  0.5935  0.4810
  122OSM   H18S12936   2.794   4.572   8.229 -1.6624  0.3878  1.4779
  122OSM   H18T12937   2.693   4.708   8.288 -1.0820  0.2122 -3.0078
  122OSM   H18U12938   2.860   4.694   8.339  0.0091  0.4560  0.7828
  122OSM    C1F12939   3.381   4.721   6.596 -0.7573  0.2108 -0.0677
  122OSM     OF12940   3.420   4.836   6.594 -0.1860 -0.4370 -0.1753
  122OSM    C2F12941   3.489   4.611   6.593 -0.6355 -0.5010  0.0712
  122OSM    H2F12942   3.519   4.599   6.487 -2.3719 -1.7041 -0.2830
  122OSM    H2G12943   3.439   4.517   6.624  0.3144 -0.6838  1.0846
  122OSM    C3F12944   3.607   4.642   6.684  0.3068 -0.3862  0.2062
  122OSM    H3F12945   3.667   4.734   6.664 -1.1285  0.6077  0.4494
  122OSM    H3G12946   3.685   4.562   6.681 -0.9013 -1.7098  2.6277
  122OSM    C4F12947   3.576   4.652   6.834  0.4248 -0.0286  0.4661
  122OSM    H4F12948   3.497   4.727   6.854 -0.8503 -1.2458  0.0987
  122OSM    H4G12949   3.666   4.688   6.888  1.5367 -2.0068  0.0076
  122OSM    C5F12950   3.515   4.523   6.903  0.1014  0.0145  0.0562
  122OSM    H5F12951   3.558   4.435   6.851 -1.9777 -0.8267 -0.2975
  122OSM    H5G12952   3.404   4.531   6.897  0.1517 -0.5895 -2.0577
  122OSM    C6F12953   3.554   4.503   7.055  0.2056 -0.5364 -0.8278
  122OSM    H6F12954   3.664   4.510   7.073  0.4556  0.3583 -2.5222
  122OSM    H6G12955   3.512   4.410   7.096  2.1608 -1.4030 -0.7408
  122OSM    C7F12956   3.494   4.613   7.142 -0.1355 -0.4119  0.1282
  122OSM    H7F12957   3.387   4.635   7.127 -0.4073 -1.6581  0.2123
  122OSM    H7G12958   3.550   4.709   7.127  0.7648 -0.4504  2.9299
  122OSM    C8F12959   3.526   4.605   7.290 -0.2580 -0.9003  0.1656
  122OSM    H8F12960   3.535   4.708   7.331  0.8105 -1.5003  1.4950
  122OSM    H8G12961   3.624   4.559   7.315  0.4077 -0.1168 -0.9511
  122OSM    C9F12962   3.421   4.534   7.371 -0.0095 -0.6291 -0.3239
  122OSM    H9F12963   3.373   4.448   7.323  0.9522 -1.3414 -0.0313
  122OSM   C10F12964   3.360   4.564   7.490 -0.2197 -0.0563  0.0197
  122OSM   H10F12965   3.283   4.494   7.525 -0.2533 -0.1120 -0.1622
  122OSM   C11F12966   3.384   4.681   7.585 -0.4007  0.0058 -0.5869
  122OSM   H11F12967   3.286   4.728   7.607 -0.4635 -0.6158  0.5370
  122OSM   H11G12968   3.458   4.750   7.539 -2.0146  0.9915 -1.7468
  122OSM   C12F12969   3.434   4.644   7.729 -0.1118  0.1991  0.5651
  122OSM   H12F12970   3.532   4.591   7.726  1.0588  2.1162  2.7629
  122OSM   H12G12971   3.352   4.578   7.762  1.0952 -1.2733  0.6926
  122OSM   C13F12972   3.444   4.763   7.826  0.4275 -0.1565 -0.2773
  122OSM   H13F12973   3.336   4.778   7.848 -0.4314 -3.5699 -1.8563
  122OSM   H13G12974   3.475   4.854   7.771 -1.6545  1.5355  1.2428
  122OSM   C14F12975   3.535   4.746   7.944 -0.4120  0.6577  0.0254
  122OSM   H14F12976   3.526   4.828   8.018  0.3070  0.7277  0.0338
  122OSM   H14G12977   3.643   4.758   7.923 -0.4753 -1.6453 -1.9046
  122OSM   C15F12978   3.511   4.613   8.024 -0.3395  0.1266  0.0857
  122OSM   H15F12979   3.531   4.522   7.964  0.6718  3.0176 -4.1995
  122OSM   H15G12980   3.401   4.612   8.044 -0.1244  1.7282  1.4822
  122OSM   C16F12981   3.589   4.602   8.159 -0.4373  0.1446  0.0399
  122OSM   H16F12982   3.584   4.701   8.209  1.3447  1.0581 -1.5402
  122OSM   H16G12983   3.697   4.592   8.135 -0.8226 -0.8154 -1.3961
  122OSM   C17F12984   3.529   4.502   8.257  0.0906  0.0956 -0.4525
  122OSM   H17F12985   3.535   4.401   8.210 -1.8738 -0.2296 -0.0624
  122OSM   H17G12986   3.424   4.532   8.276 -0.7132 -3.2997  0.8690
  122OSM   C18F12987   3.600   4.482   8.391 -0.5427 -0.4095 -0.2698
  122OSM   H18F12988   3.704   4.449   8.370 -1.0647 -1.7679 -0.7656
  122OSM   H18G12989   3.560   4.395   8.447 -1.0644 -1.7214 -2.6083
  122OSM   H18H12990   3.595   4.571   8.457 -1.0083  1.8438 -3.2130
  123OSM      N12991   0.930   0.310   6.149  0.1768 -0.1794  0.0709
  123OSM    C1512992   0.834   0.357   6.045  0.4724 -0.2335 -0.3881
  123OSM   H15A12993   0.866   0.346   5.943 -0.4414  0.5192 -0.7672
  123OSM   H15B12994   0.808   0.462   6.058  0.1254 -0.1050 -2.1048
  123OSM   H15C12995   0.739   0.308   6.062 -0.8912  2.0681 -1.1161
  123OSM    C1412996   0.949   0.162   6.144  0.6939 -0.9899  0.2489
  123OSM   H14A12997   1.042   0.130   6.188  1.4079 -0.6123 -0.9659
  123OSM   H14B12998   0.938   0.127   6.042  3.3754 -0.5237 -0.2290
  123OSM   H14C12999   0.859   0.122   6.189  0.4238  0.1529  0.7437
  123OSM    C1313000   1.061   0.374   6.125 -1.2921 -0.2423 -0.8531
  123OSM   H13A13001   1.133   0.345   6.200 -1.7813 -0.2017 -0.3662
  123OSM   H13B13002   1.055   0.482   6.134  0.7865 -0.0972 -0.8052
  123OSM   H13C13003   1.103   0.368   6.025  1.8717  4.2509  0.0023
  123OSM    C1213004   0.882   0.338   6.293  0.0875  0.7016 -0.0833
  123OSM   H12A13005   0.787   0.286   6.304  1.3232 -1.4303  0.7639
  123OSM   H12B13006   0.874   0.446   6.297  1.5156  0.7780  0.8482
  123OSM    C1113007   0.980   0.287   6.401  0.8657  0.3134  0.2522
  123OSM   H11A13008   0.998   0.178   6.392  1.1001  0.3910 -0.2163
  123OSM   H11B13009   0.930   0.320   6.495 -2.7295  0.0767 -1.5066
  123OSM      P13010   1.238   0.290   6.434  0.0160 -0.1904 -0.2519
  123OSM    O1313011   1.275   0.198   6.325 -0.4544 -0.7998 -0.4643
  123OSM    O1413012   1.334   0.391   6.480  0.1170  0.2956  0.2366
  123OSM    O1113013   1.200   0.217   6.571  0.6456  0.2973 -0.0212
  123OSM    O1213014   1.103   0.358   6.400 -0.4459 -0.0741 -0.1086
  123OSM    C1S13015   1.302   0.165   6.655  1.0923 -0.4611  0.5811
  123OSM    H1S13016   1.404   0.169   6.611  1.4052 -1.5747  1.1766
  123OSM    H1T13017   1.285   0.058   6.683  0.0611 -0.1733  1.0568
  123OSM     NF13018   1.404   0.176   6.880 -0.0263 -0.5386  0.2094
  123OSM    HNF13019   1.382   0.125   6.963 -3.5738 -1.0164 -0.8947
  123OSM    C2S13020   1.298   0.231   6.793  0.2054  0.2367  0.3623
  123OSM    H2S13021   1.324   0.338   6.781  0.5298 -0.2054 -3.1727
  123OSM    C3S13022   1.161   0.226   6.866  0.3608  0.3095 -0.4122
  123OSM    H3S13023   1.138   0.123   6.903 -1.5348  0.2523 -1.6940
  123OSM     O313024   1.049   0.264   6.781 -0.0435 -0.4234 -0.5658
  123OSM    HO313025   1.084   0.262   6.691  3.0268  1.9096  0.4873
  123OSM    C4S13026   1.156   0.315   6.992 -0.2611  0.0084  0.1267
  123OSM    H4S13027   1.217   0.269   7.071 -0.3904  0.3441  0.4245
  123OSM    C5S13028   1.112   0.441   7.004 -0.0310  0.7931 -0.9381
  123OSM    H5S13029   1.075   0.503   6.921  2.3149  0.8636 -1.9655
  123OSM    C6S13030   1.128   0.529   7.122 -0.1049  0.3348 -0.6218
  123OSM    H6S13031   1.035   0.587   7.143  0.8583  1.5768  0.2642
  123OSM    H6T13032   1.206   0.605   7.100  0.4158 -0.0347 -0.0424
  123OSM    C7S13033   1.150   0.462   7.254 -0.2595 -0.1210 -0.1286
  123OSM    H7S13034   1.252   0.418   7.260  0.3474  1.3761  1.0154
  123OSM    H7T13035   1.070   0.385   7.260 -0.8061  0.5658  1.8724
  123OSM    C8S13036   1.132   0.571   7.359  0.3364 -0.2198  0.0745
  123OSM    H8S13037   1.027   0.609   7.354 -0.2477 -1.7838  0.0469
  123OSM    H8T13038   1.178   0.670   7.339 -0.3048 -0.2104 -1.4098
  123OSM    C9S13039   1.168   0.538   7.501 -0.2443  0.0245  0.3661
  123OSM    H9S13040   1.222   0.623   7.549  2.8506 -0.9153 -1.3165
  123OSM    H9T13041   1.242   0.455   7.504 -0.0227  0.1975 -0.1664
  123OSM   C10S13042   1.047   0.487   7.587  0.4445 -0.2815  0.1829
  123OSM   H10S13043   1.016   0.385   7.556  1.2376 -0.7155  0.7981
  123OSM   H10T13044   0.956   0.547   7.569 -1.1131 -2.2062  1.3620
  123OSM   C11S13045   1.069   0.482   7.740 -0.6246 -0.0959  0.1266
  123OSM   H11S13046   1.117   0.575   7.778 -3.8234  0.7163  2.4263
  123OSM   H11T13047   1.146   0.404   7.754  0.5426  1.2766  1.6856
  123OSM   C12S13048   0.939   0.469   7.810  1.0717 -0.0005 -0.1999
  123OSM   H12S13049   0.881   0.382   7.773 -1.7268  2.3525 -1.5040
  123OSM   H12T13050   0.878   0.561   7.800 -1.0108 -1.2801  0.4571
  123OSM   C13S13051   0.957   0.430   7.957 -0.3021 -0.0616 -0.3158
  123OSM   H13S13052   0.984   0.516   8.022  1.3041 -1.8217  1.3945
  123OSM   H13T13053   1.035   0.354   7.977  1.2953  1.9045  1.1213
  123OSM   C14S13054   0.822   0.375   8.012  0.6916  0.4481  0.3427
  123OSM   H14S13055   0.780   0.296   7.947  0.3411  0.2280  0.8404
  123OSM   H14T13056   0.737   0.445   7.996  1.8800  2.2477  1.7297
  123OSM   C15S13057   0.829   0.332   8.162  0.3095  0.1844 -0.2047
  123OSM   H15S13058   0.860   0.422   8.220 -0.7518 -0.2559  1.0928
  123OSM   H15T13059   0.899   0.250   8.190  0.4020 -0.6815 -2.8410
  123OSM   C16S13060   0.688   0.295   8.216 -0.1651  0.3798  0.2606
  123OSM   H16S13061   0.619   0.377   8.188 -0.8522 -1.0068 -2.2923
  123OSM   H16T13062   0.687   0.327   8.323  0.0413  2.0985 -0.2393
  123OSM   C17S13063   0.640   0.155   8.194 -0.7072 -0.7241  0.4136
  123OSM   H17S13064   0.705   0.081   8.245 -1.5333 -1.8410 -0.1220
  123OSM   H17T13065   0.627   0.138   8.084  0.3936  2.0523 -0.1824
  123OSM   C18S13066   0.496   0.161   8.250  0.7276  0.4977 -0.1191
  123OSM   H18S13067   0.441   0.065   8.240 -0.0893  0.9727 -0.2653
  123OSM   H18T13068   0.431   0.226   8.187 -0.6506  1.0520  1.8374
  123OSM   H18U13069   0.493   0.191   8.357 -1.5421 -0.6448  0.1709
  123OSM    C1F13070   1.537   0.185   6.849  0.8483 -0.0828 -0.0749
  123OSM     OF13071   1.575   0.275   6.775 -0.2241 -0.4299  0.4829
  123OSM    C2F13072   1.632   0.072   6.895  0.5656  0.1812 -1.0343
  123OSM    H2F13073   1.673   0.015   6.808  0.4262 -1.7825  0.1518
  123OSM    H2G13074   1.577  -0.002   6.957  0.0612  0.7065 -0.8544
  123OSM    C3F13075   1.763   0.122   6.973 -0.1330 -0.2569  0.5354
  123OSM    H3F13076   1.819   0.172   6.892 -1.7965  0.5066 -0.1716
  123OSM    H3G13077   1.819   0.037   7.019  2.2161 -1.0313 -3.5334
  123OSM    C4F13078   1.731   0.237   7.070 -0.2315 -0.1443  0.5595
  123OSM    H4F13079   1.656   0.212   7.147  0.0833  1.6031  1.4374
  123OSM    H4G13080   1.684   0.322   7.017 -2.6123 -1.1784  0.9762
  123OSM    C5F13081   1.855   0.307   7.138  1.0502  0.3729 -0.9965
  123OSM    H5F13082   1.934   0.328   7.062 -0.3499  0.0864 -2.5463
  123OSM    H5G13083   1.906   0.244   7.214  2.8928  3.6634  0.6184
  123OSM    C6F13084   1.831   0.443   7.217  0.8640 -0.0950 -0.1832
  123OSM    H6F13085   1.799   0.519   7.143  2.8296  0.6552 -0.2987
  123OSM    H6G13086   1.924   0.484   7.264  0.0267  1.5242  0.0976
  123OSM    C7F13087   1.712   0.438   7.319 -0.7582 -0.3280  0.5709
  123OSM    H7F13088   1.622   0.394   7.271 -0.6213  1.7226 -1.6715
  123OSM    H7G13089   1.693   0.540   7.360  1.9520  0.1974  0.6092
  123OSM    C8F13090   1.754   0.339   7.439  0.1487  0.4077 -0.5251
  123OSM    H8F13091   1.836   0.371   7.507  0.0759 -2.0719  0.8052
  123OSM    H8G13092   1.793   0.242   7.401 -0.0989  1.0537 -2.4635
  123OSM    C9F13093   1.626   0.299   7.503  0.1076 -0.0530 -0.9986
  123OSM    H9F13094   1.567   0.230   7.442  1.2259 -0.2544 -1.8543
  123OSM   C10F13095   1.578   0.346   7.621 -0.0417  0.6330  0.1373
  123OSM   H10F13096   1.481   0.317   7.663  0.8493 -2.4993  0.1803
  123OSM   C11F13097   1.653   0.455   7.698 -0.0307 -0.2597  0.2048
  123OSM   H11F13098   1.748   0.491   7.653 -0.9026  1.6931 -0.1138
  123OSM   H11G13099   1.690   0.411   7.793  0.0108 -1.1363 -0.2055
  123OSM   C12F13100   1.569   0.582   7.724  0.6315 -0.1710  0.3789
  123OSM   H12F13101   1.501   0.609   7.640  0.2326 -2.2744  0.0192
  123OSM   H12G13102   1.645   0.664   7.719 -0.4178  0.8248  0.5287
  123OSM   C13F13103   1.511   0.595   7.867 -0.4706 -0.4137  0.0798
  123OSM   H13F13104   1.473   0.699   7.881  1.3403  0.2245  0.3668
  123OSM   H13G13105   1.588   0.574   7.943 -1.4989 -0.5242  1.0986
  123OSM   C14F13106   1.398   0.492   7.906  0.2422 -0.8595  0.2356
  123OSM   H14F13107   1.444   0.394   7.882  0.4438 -0.1953 -2.2806
  123OSM   H14G13108   1.312   0.515   7.840 -1.3438 -4.9746  0.7351
  123OSM   C15F13109   1.349   0.507   8.058  0.0236  0.7122 -0.7234
  123OSM   H15F13110   1.242   0.479   8.069  0.6577 -1.6442 -0.1452
  123OSM   H15G13111   1.361   0.615   8.081  2.1353  0.2219  0.5510
  123OSM   C16F13112   1.417   0.407   8.158  0.0179 -0.3178  0.5623
  123OSM   H16F13113   1.524   0.438   8.166  0.1180 -0.8880  1.4880
  123OSM   H16G13114   1.405   0.308   8.110  1.7104  0.3611 -1.3448
  123OSM   C17F13115   1.351   0.401   8.295  0.2414 -0.1426 -0.1196
  123OSM   H17F13116   1.357   0.502   8.342 -3.7127 -0.4811  1.2434
  123OSM   H17G13117   1.419   0.341   8.359 -2.3943  0.4216  3.3655
  123OSM   C18F13118   1.199   0.352   8.300 -1.0442 -0.2328 -0.4863
  123OSM   H18F13119   1.120   0.426   8.274  0.2259  0.5728 -2.1588
  123OSM   H18G13120   1.179   0.297   8.394 -0.6848 -1.4892 -1.1360
  123OSM   H18H13121   1.185   0.273   8.224 -0.4025  0.1207 -0.9779
  124OSM      N13122   1.242   2.911   6.538 -0.7306  0.4215  0.0414
  124OSM    C1513123   1.175   2.774   6.542  0.2681 -0.9447  0.1578
  124OSM   H15A13124   1.194   2.709   6.458 -1.0518  0.4270 -1.2645
  124OSM   H15B13125   1.068   2.790   6.536  0.7201  2.2277 -0.5097
  124OSM   H15C13126   1.195   2.722   6.634  0.5573  3.0016  2.4810
  124OSM    C1413127   1.197   2.994   6.657  0.4880  0.3257  0.0288
  124OSM   H14A13128   1.266   2.981   6.740  0.7336  1.7068  0.0517
  124OSM   H14B13129   1.093   2.983   6.684 -0.0861  0.5380 -2.0620
  124OSM   H14C13130   1.208   3.098   6.632  1.3945  0.5040  1.0698
  124OSM    C1313131   1.386   2.890   6.563 -0.3826  0.9980 -0.0290
  124OSM   H13A13132   1.435   2.828   6.489 -3.9151 -0.7539 -0.9975
  124OSM   H13B13133   1.393   2.832   6.654 -0.0668  0.1217 -0.6021
  124OSM   H13C13134   1.438   2.984   6.577 -0.0875  0.9261 -0.6387
  124OSM    C1213135   1.216   2.995   6.412 -0.3705  0.5387 -0.9692
  124OSM   H12A13136   1.114   2.995   6.378 -0.6213  0.0648 -0.2178
  124OSM   H12B13137   1.280   2.946   6.339  2.9960  1.1845  1.4136
  124OSM    C1113138   1.263   3.139   6.418  1.0409 -0.7366  0.3696
  124OSM   H11A13139   1.357   3.141   6.477  0.4405 -0.5217  1.3473
  124OSM   H11B13140   1.188   3.207   6.464  3.0085  0.7531  1.4695
  124OSM      P13141   1.362   3.121   6.169  0.2818 -0.3564 -0.4134
  124OSM    O1313142   1.299   3.000   6.122  0.5211  0.9822 -0.7657
  124OSM    O1413143   1.389   3.223   6.064  0.0506 -0.4729  0.3017
  124OSM    O1113144   1.503   3.089   6.234  1.0532  0.0444 -0.1744
  124OSM    O1213145   1.285   3.190   6.291  0.0275 -0.1718 -0.1453
  124OSM    C1S13146   1.578   3.202   6.285 -0.6657 -0.2023 -0.5338
  124OSM    H1S13147   1.519   3.295   6.297  0.2618  0.3866 -0.5356
  124OSM    H1T13148   1.657   3.218   6.209 -0.8246 -1.6382 -1.0206
  124OSM     NF13149   1.722   3.282   6.466 -0.1338 -0.0997 -0.5516
  124OSM    HNF13150   1.821   3.269   6.473 -0.1491  0.2307  0.2904
  124OSM    C2S13151   1.651   3.168   6.414 -0.1013  0.7216 -0.1784
  124OSM    H2S13152   1.568   3.150   6.485  0.4501 -0.2637  0.2280
  124OSM    C3S13153   1.749   3.037   6.400 -0.4558  0.3666  0.9175
  124OSM    H3S13154   1.830   3.072   6.333 -1.4287  0.6626 -0.1375
  124OSM     O313155   1.689   2.926   6.332 -0.2836 -0.1207 -1.0963
  124OSM    HO313156   1.596   2.944   6.317 -0.2317  0.2237 -1.0099
  124OSM    C4S13157   1.810   2.994   6.535  0.0775  0.4696  0.0201
  124OSM    H4S13158   1.739   2.951   6.608  0.7692  1.2603  1.1853
  124OSM    C5S13159   1.946   2.986   6.553 -0.1746 -0.0472 -0.5586
  124OSM    H5S13160   2.021   3.004   6.474  0.4201  2.4135  0.5326
  124OSM    C6S13161   2.009   2.950   6.684  0.9282 -0.8533  0.3406
  124OSM    H6S13162   2.107   3.004   6.689 -0.5428  1.8915  0.6004
  124OSM    H6T13163   2.015   2.840   6.687 -0.2181 -0.9643 -1.2479
  124OSM    C7S13164   1.933   2.976   6.818  0.2346 -0.1816 -0.7924
  124OSM    H7S13165   1.827   2.945   6.811  0.2624 -1.5101  3.2923
  124OSM    H7T13166   1.940   3.085   6.838  0.7855 -0.3800  0.1037
  124OSM    C8S13167   2.001   2.892   6.932  0.2568  0.9022  0.0302
  124OSM    H8S13168   2.111   2.903   6.935  0.4062  0.1354 -1.7040
  124OSM    H8T13169   1.978   2.785   6.915 -1.2301  1.3653 -1.0344
  124OSM    C9S13170   1.950   2.939   7.069 -0.0045 -0.0736 -0.1106
  124OSM    H9S13171   1.840   2.926   7.063 -0.1561  0.4473  1.2564
  124OSM    H9T13172   1.972   3.048   7.076 -0.1518  0.1081 -2.2925
  124OSM   C10S13173   2.024   2.880   7.189 -0.2619 -0.1976 -0.7463
  124OSM   H10S13174   2.124   2.928   7.189 -0.4200  0.1920 -2.3482
  124OSM   H10T13175   2.030   2.772   7.167 -0.5758 -0.1096 -1.2865
  124OSM   C11S13176   1.948   2.913   7.318 -0.4511 -0.2313  0.7455
  124OSM   H11S13177   1.847   2.869   7.329 -1.1235  0.7904 -1.0239
  124OSM   H11T13178   1.958   3.022   7.340 -2.4342 -0.5358  3.2746
  124OSM   C12S13179   2.013   2.842   7.443  0.7979 -0.2091  0.2183
  124OSM   H12S13180   2.123   2.850   7.430  1.1189 -1.9892  1.5513
  124OSM   H12T13181   1.976   2.737   7.448  1.3895 -0.6449 -3.5129
  124OSM   C13S13182   1.976   2.931   7.563 -0.1862 -0.0578 -0.6759
  124OSM   H13S13183   1.867   2.950   7.569 -0.3888 -1.6453  1.3329
  124OSM   H13T13184   2.016   3.034   7.549 -2.8319  0.9342 -1.1085
  124OSM   C14S13185   2.034   2.870   7.693 -0.1664  0.4284  0.1811
  124OSM   H14S13186   2.146   2.871   7.693 -0.1704  3.0315 -0.3793
  124OSM   H14T13187   2.002   2.765   7.708  1.0029  0.1731  0.9681
  124OSM   C15S13188   1.983   2.958   7.809 -0.4432  0.4732  0.1451
  124OSM   H15S13189   1.896   3.022   7.784  0.0400  0.2783 -2.1676
  124OSM   H15T13190   2.063   3.027   7.842  0.4399 -1.6708  2.6488
  124OSM   C16S13191   1.953   2.872   7.932 -0.3337  0.4332  0.3889
  124OSM   H16S13192   1.981   2.928   8.024  0.4833 -0.1305  0.4839
  124OSM   H16T13193   2.022   2.786   7.926  0.5232  1.2647 -2.7572
  124OSM   C17S13194   1.816   2.808   7.935  0.0228  0.7587  0.7751
  124OSM   H17S13195   1.810   2.753   7.838  0.6174  0.5425  0.8554
  124OSM   H17T13196   1.739   2.888   7.931 -1.8853 -1.0665  0.2608
  124OSM   C18S13197   1.793   2.714   8.053 -0.1255 -0.2096  0.0963
  124OSM   H18S13198   1.873   2.638   8.068  1.5092  1.7909  1.8683
  124OSM   H18T13199   1.699   2.656   8.061 -0.2047 -0.2099 -0.7927
  124OSM   H18U13200   1.804   2.770   8.149 -1.5076 -1.0560  0.7708
  124OSM    C1F13201   1.658   3.388   6.521  0.3110 -0.3242 -0.2635
  124OSM     OF13202   1.540   3.376   6.548  0.0259  0.3989 -0.6908
  124OSM    C2F13203   1.739   3.504   6.557  0.4589 -1.1959 -0.4234
  124OSM    H2F13204   1.740   3.575   6.472 -0.0661 -1.4983 -0.6903
  124OSM    H2G13205   1.843   3.474   6.579 -0.0864 -1.8721  1.3600
  124OSM    C3F13206   1.683   3.580   6.681 -0.1610  0.0631  0.0848
  124OSM    H3F13207   1.657   3.508   6.762 -2.0982 -0.1069 -0.6515
  124OSM    H3G13208   1.588   3.630   6.651  0.4645  0.6754 -0.8766
  124OSM    C4F13209   1.756   3.704   6.740  0.3616 -0.5196 -0.5065
  124OSM    H4F13210   1.772   3.773   6.654 -0.9290 -0.9149 -1.0754
  124OSM    H4G13211   1.851   3.669   6.787  0.6891 -0.8064 -1.3630
  124OSM    C5F13212   1.673   3.770   6.851 -0.1617 -0.4265 -0.3730
  124OSM    H5F13213   1.566   3.778   6.822 -0.4275 -0.5025  0.5912
  124OSM    H5G13214   1.716   3.870   6.871 -2.0134  0.1927  0.5824
  124OSM    C6F13215   1.701   3.702   6.985 -0.0612 -0.4075 -0.2397
  124OSM    H6F13216   1.806   3.668   6.989 -0.6222 -2.0215  2.6935
  124OSM    H6G13217   1.632   3.615   7.001 -3.1408  1.6634 -1.6996
  124OSM    C7F13218   1.686   3.810   7.096 -0.0166 -0.0755  0.1342
  124OSM    H7F13219   1.589   3.863   7.086  1.1721  2.0826 -0.4477
  124OSM    H7G13220   1.771   3.882   7.101 -0.0264 -0.0661  0.1621
  124OSM    C8F13221   1.668   3.748   7.240 -0.2021  0.5456 -0.4432
  124OSM    H8F13222   1.582   3.678   7.229 -0.4416  0.4257  1.8670
  124OSM    H8G13223   1.629   3.821   7.314 -1.9454  1.4561 -2.2005
  124OSM    C9F13224   1.795   3.679   7.296  0.0445 -0.3175  0.8313
  124OSM    H9F13225   1.833   3.599   7.230  0.9886  0.3931  0.5036
  124OSM   C10F13226   1.857   3.716   7.408 -0.4623 -0.4992 -0.1933
  124OSM   H10F13227   1.944   3.659   7.444 -0.9901 -1.9865 -1.2309
  124OSM   C11F13228   1.813   3.826   7.511  0.4810  0.0008  0.6929
  124OSM   H11F13229   1.762   3.903   7.449  2.3485 -0.8091 -1.9386
  124OSM   H11G13230   1.907   3.874   7.546  0.7414 -0.0659  0.1018
  124OSM   C12F13231   1.722   3.787   7.626 -0.4615  0.0333 -0.4092
  124OSM   H12F13232   1.757   3.691   7.668 -0.8763 -0.4237 -1.1148
  124OSM   H12G13233   1.621   3.783   7.579 -0.3077  0.4907 -0.7825
  124OSM   C13F13234   1.732   3.890   7.736  1.0043  0.6971 -0.5039
  124OSM   H13F13235   1.715   3.989   7.688  0.3817  0.3717 -0.9520
  124OSM   H13G13236   1.835   3.878   7.778  0.4089 -0.1583  0.7662
  124OSM   C14F13237   1.624   3.868   7.844  0.2305 -0.1433  0.4894
  124OSM   H14F13238   1.614   3.760   7.871 -1.0939  0.0495  0.7956
  124OSM   H14G13239   1.522   3.898   7.812 -0.0978 -0.1041  1.5531
  124OSM   C15F13240   1.661   3.937   7.978 -0.3300 -0.1978  0.1916
  124OSM   H15F13241   1.717   4.033   7.971 -2.9485  1.3048 -0.7953
  124OSM   H15G13242   1.737   3.868   8.020  0.0604  1.5144  2.4027
  124OSM   C16F13243   1.540   3.945   8.070 -0.6444 -0.6680  0.9610
  124OSM   H16F13244   1.480   3.853   8.090 -1.7363  0.4706  3.1804
  124OSM   H16G13245   1.474   4.014   8.014 -2.7483 -2.8824  0.5961
  124OSM   C17F13246   1.565   4.023   8.198  0.2473  0.6666 -0.3030
  124OSM   H17F13247   1.651   3.992   8.261  1.1529  0.7020 -1.4876
  124OSM   H17G13248   1.474   4.000   8.257 -0.2456 -1.0868 -1.6933
  124OSM   C18F13249   1.579   4.173   8.184 -0.4860  0.5921 -0.3228
  124OSM   H18F13250   1.679   4.204   8.145  0.4879 -0.4976  1.2338
  124OSM   H18G13251   1.585   4.211   8.288  0.0006  1.0503 -0.5165
  124OSM   H18H13252   1.500   4.221   8.123 -0.2816 -0.7166 -1.6411
  125OSM      N13253   5.493   2.341   6.450  0.0012 -0.5190 -0.7035
  125OSM    C1513254   5.603   2.307   6.360  0.0890 -0.0615  0.6588
  125OSM   H15A13255   5.694   2.355   6.394  0.6272 -0.9992  0.5623
  125OSM   H15B13256   5.594   2.343   6.258 -2.7868 -1.0105  0.5138
  125OSM   H15C13257   5.623   2.201   6.359  3.1686  0.4837  1.2954
  125OSM    C1413258   5.363   2.281   6.398  0.5300  0.1564 -0.4454
  125OSM   H14A13259   5.387   2.179   6.371  1.7559  0.4272 -0.4270
  125OSM   H14B13260   5.320   2.337   6.317  0.1095  1.6031  0.7394
  125OSM   H14C13261   5.297   2.276   6.484  1.4959  2.4628  0.4773
  125OSM    C1313262   5.525   2.266   6.580  0.3124  0.3300  0.4078
  125OSM   H13A13263   5.444   2.270   6.651 -1.4481  0.7832 -1.5891
  125OSM   H13B13264   5.613   2.309   6.626  0.8499  1.1382 -1.3347
  125OSM   H13C13265   5.547   2.162   6.557 -0.3681  0.7389 -2.1707
  125OSM    C1213266   5.487   2.493   6.479 -0.7648 -0.7766  0.2503
  125OSM   H12A13267   5.578   2.526   6.527 -0.1955 -0.8317 -0.7658
  125OSM   H12B13268   5.415   2.506   6.558 -0.3296  0.1546  0.5097
  125OSM    C1113269   5.469   2.582   6.354  0.2403  0.0677 -0.1314
  125OSM   H11A13270   5.563   2.577   6.295  0.6984 -0.6913  0.6554
  125OSM   H11B13271   5.456   2.683   6.398 -0.5525 -1.5537  3.4997
  125OSM      P13272   5.243   2.635   6.245  0.2966 -0.4972 -0.0739
  125OSM    O1313273   5.285   2.745   6.162 -0.2444 -0.3511 -0.1512
  125OSM    O1413274   5.126   2.550   6.208  0.2413 -0.0946 -0.1833
  125OSM    O1113275   5.216   2.700   6.383 -0.3731 -0.4447  0.1630
  125OSM    O1213276   5.363   2.534   6.272  0.2698 -0.4593  0.1561
  125OSM    C1S13277   5.166   2.613   6.486  0.5406  0.0669  0.0887
  125OSM    H1S13278   5.225   2.519   6.482 -0.9869 -0.8685 -1.0933
  125OSM    H1T13279   5.060   2.588   6.465  0.2226  1.5286 -0.1180
  125OSM     NF13280   5.125   2.566   6.724 -0.1701  0.3145  0.0022
  125OSM    HNF13281   5.037   2.585   6.767  0.0921 -0.9872  1.1361
  125OSM    C2S13282   5.168   2.666   6.629  0.0739 -0.9656  0.4303
  125OSM    H2S13283   5.270   2.694   6.665  0.0896 -0.6124  0.1181
  125OSM    C3S13284   5.074   2.791   6.641 -0.3835  0.0516 -0.5300
  125OSM    H3S13285   4.973   2.745   6.645 -0.8995  1.1804 -0.3284
  125OSM     O313286   5.074   2.879   6.524 -0.1109 -0.9390  0.8379
  125OSM    HO313287   5.124   2.832   6.457  1.3216  4.2994 -2.1108
  125OSM    C4S13288   5.090   2.857   6.772 -0.4704  0.3247  0.2861
  125OSM    H4S13289   5.058   2.790   6.853  0.1770 -2.4762 -1.6845
  125OSM    C5S13290   5.163   2.969   6.797  1.1361 -0.6572  0.0273
  125OSM    H5S13291   5.216   3.018   6.713 -1.3715  0.2214 -1.0921
  125OSM    C6S13292   5.195   3.030   6.935  0.3704  0.0874 -0.2043
  125OSM    H6S13293   5.231   3.135   6.930  1.9686 -0.3768  0.9919
  125OSM    H6T13294   5.283   2.971   6.968 -1.1184 -0.8465  2.2146
  125OSM    C7S13295   5.096   3.052   7.045  0.2360  1.1057 -0.5046
  125OSM    H7S13296   5.061   2.949   7.070 -1.1972  1.1948 -2.0777
  125OSM    H7T13297   5.020   3.121   7.003 -0.1132  2.0983  1.6751
  125OSM    C8S13298   5.161   3.096   7.171  0.0618  0.4066  0.4653
  125OSM    H8S13299   5.211   3.192   7.147  0.0757  0.0829 -0.8573
  125OSM    H8T13300   5.239   3.024   7.204  0.0791  1.0766  1.9441
  125OSM    C9S13301   5.058   3.116   7.280  0.0003 -0.2742 -0.1946
  125OSM    H9S13302   4.986   3.032   7.289  0.6944 -1.0694 -1.7027
  125OSM    H9T13303   4.994   3.204   7.258  1.3001  1.3587  2.2785
  125OSM   C10S13304   5.121   3.135   7.415 -0.0017  0.3238 -0.7420
  125OSM   H10S13305   5.180   3.229   7.413  1.7213 -0.7430 -3.3000
  125OSM   H10T13306   5.187   3.046   7.427  1.4484  1.2713 -1.4730
  125OSM   C11S13307   5.020   3.137   7.533  0.6581 -0.0018  0.6552
  125OSM   H11S13308   4.989   3.031   7.540  0.2019  0.0610 -0.2440
  125OSM   H11T13309   4.948   3.213   7.496  0.9131 -0.3943 -0.6778
  125OSM   C12S13310   5.088   3.192   7.665  0.2076 -0.0116  0.5931
  125OSM   H12S13311   5.127   3.294   7.643 -0.5105  1.0182  3.8929
  125OSM   H12T13312   5.173   3.131   7.700 -0.4092 -0.8265  0.6741
  125OSM   C13S13313   5.002   3.209   7.788 -0.6341  0.0359  0.1247
  125OSM   H13S13314   4.926   3.286   7.763  0.1533 -0.0678 -2.7536
  125OSM   H13T13315   5.063   3.246   7.873 -0.9256 -0.2305  0.4528
  125OSM   C14S13316   4.931   3.080   7.832 -0.2318 -0.2247 -0.3005
  125OSM   H14S13317   5.008   3.002   7.853  0.5751  0.7476  0.3522
  125OSM   H14T13318   4.876   3.041   7.743 -1.9257 -0.1661  0.7007
  125OSM   C15S13319   4.834   3.101   7.953  0.0035  0.6097 -0.0070
  125OSM   H15S13320   4.757   3.178   7.931 -0.9371 -0.8489 -2.0701
  125OSM   H15T13321   4.894   3.138   8.038 -0.7396 -0.4138  0.9795
  125OSM   C16S13322   4.772   2.972   8.001 -0.0607 -0.1883  0.5118
  125OSM   H16S13323   4.847   2.890   8.012 -0.2058 -0.7980 -2.5359
  125OSM   H16T13324   4.693   2.946   7.927  0.0495 -0.5109  0.5041
  125OSM   C17S13325   4.704   2.989   8.135 -0.4737 -0.1178 -0.1646
  125OSM   H17S13326   4.619   3.061   8.130  0.6154  1.1186 -1.3587
  125OSM   H17T13327   4.772   3.039   8.207  1.8122 -2.4307 -0.6558
  125OSM   C18S13328   4.662   2.853   8.192  0.8994 -0.0855  0.0080
  125OSM   H18S13329   4.586   2.863   8.273 -0.3639  1.0964 -1.2884
  125OSM   H18T13330   4.753   2.807   8.236  0.7376 -0.2113  0.2092
  125OSM   H18U13331   4.617   2.800   8.106 -1.2394  1.7402 -0.0747
  125OSM    C1F13332   5.189   2.451   6.741  0.3291 -0.3805 -0.2265
  125OSM     OF13333   5.302   2.428   6.702  0.6414 -0.7944  0.4764
  125OSM    C2F13334   5.108   2.358   6.825  0.1377 -0.1759 -0.2831
  125OSM    H2F13335   5.000   2.370   6.806  0.0145 -1.1247 -0.2037
  125OSM    H2G13336   5.119   2.389   6.931  0.8066  1.0600 -0.7079
  125OSM    C3F13337   5.148   2.212   6.795  0.4036 -0.0176 -0.0932
  125OSM    H3F13338   5.149   2.181   6.688 -1.3050  1.7187 -0.6423
  125OSM    H3G13339   5.074   2.145   6.844  0.9226 -0.6490 -0.1548
  125OSM    C4F13340   5.283   2.175   6.866  0.7041 -0.4091 -0.4064
  125OSM    H4F13341   5.363   2.234   6.817  1.4103 -1.3196 -0.3640
  125OSM    H4G13342   5.301   2.069   6.840  4.4824  0.0406  0.0752
  125OSM    C5F13343   5.290   2.204   7.014  0.3569 -0.3570 -0.2129
  125OSM    H5F13344   5.262   2.308   7.039  3.0481  0.0279  1.4152
  125OSM    H5G13345   5.393   2.199   7.056 -0.1361  1.6458  1.3089
  125OSM    C6F13346   5.197   2.117   7.099  0.2871 -0.2343 -0.1750
  125OSM    H6F13347   5.222   2.009   7.085  0.3399 -0.1717 -0.5730
  125OSM    H6G13348   5.097   2.124   7.051 -0.2393  0.4419  1.0261
  125OSM    C7F13349   5.171   2.154   7.244  0.2444  0.2249 -0.0347
  125OSM    H7F13350   5.097   2.237   7.242  0.0298  0.0207 -1.3679
  125OSM    H7G13351   5.263   2.193   7.291  0.3999  0.2359 -0.3486
  125OSM    C8F13352   5.108   2.031   7.325  0.4165  0.1896  0.2002
  125OSM    H8F13353   5.197   1.987   7.375  1.3360  2.5867  0.7176
  125OSM    H8G13354   5.074   1.950   7.257 -1.0811 -0.3879  1.5929
  125OSM    C9F13355   4.987   2.065   7.409  0.2942  0.1514 -0.3369
  125OSM    H9F13356   4.890   2.057   7.358 -1.5714  0.1828  3.0810
  125OSM   C10F13357   4.977   2.086   7.539  0.2029  0.3814 -0.2910
  125OSM   H10F13358   4.873   2.114   7.564  0.1829 -0.8926  1.1820
  125OSM   C11F13359   5.090   2.092   7.641 -0.1898 -0.1049  0.0530
  125OSM   H11F13360   5.088   2.193   7.688 -1.4752 -0.7543  1.4371
  125OSM   H11G13361   5.194   2.073   7.607 -0.0679 -0.2329  0.4870
  125OSM   C12F13362   5.051   1.980   7.742 -0.0925  0.4230 -0.0069
  125OSM   H12F13363   5.128   1.989   7.821 -2.0277  0.9150  1.8587
  125OSM   H12G13364   5.050   1.880   7.694 -0.2483  0.1942  0.4714
  125OSM   C13F13365   4.910   1.992   7.803 -0.2629 -0.3588 -0.6279
  125OSM   H13F13366   4.832   1.986   7.724 -0.3825 -0.1446 -0.5256
  125OSM   H13G13367   4.899   2.094   7.846  0.4065 -0.2475 -0.7115
  125OSM   C14F13368   4.879   1.885   7.915 -0.6280  0.5260  0.1515
  125OSM   H14F13369   4.964   1.882   7.987  1.0161  0.3159 -1.7523
  125OSM   H14G13370   4.888   1.787   7.863 -0.3596  0.4453  0.3471
  125OSM   C15F13371   4.755   1.903   7.995 -0.4454 -0.3896  0.3423
  125OSM   H15F13372   4.743   1.809   8.053 -0.8119 -1.2419 -1.0858
  125OSM   H15G13373   4.664   1.916   7.931 -0.7739  0.1724  0.9091
  125OSM   C16F13374   4.758   2.028   8.086 -0.4887 -0.3771 -0.3244
  125OSM   H16F13375   4.690   2.107   8.046  0.9014  1.4804  0.9173
  125OSM   H16G13376   4.865   2.054   8.100  0.2297 -3.0677 -0.5745
  125OSM   C17F13377   4.733   1.989   8.236  0.2677 -0.3868 -0.2860
  125OSM   H17F13378   4.791   2.061   8.298 -3.1137  1.6465  0.6824
  125OSM   H17G13379   4.782   1.893   8.262 -3.0635 -1.4450  2.5904
  125OSM   C18F13380   4.583   1.988   8.267 -0.0751  0.3250 -0.2638
  125OSM   H18F13381   4.543   2.092   8.269 -0.6457  0.1054 -0.0755
  125OSM   H18G13382   4.548   1.946   8.364  0.6316  1.1608  0.3647
  125OSM   H18H13383   4.526   1.933   8.189 -2.0370  0.3645  1.1040
  126OSM      N13384   2.842   6.757   6.769  0.5580 -0.5567 -0.7253
  126OSM    C1513385   2.715   6.770   6.850 -0.1398  0.1002  0.0530
  126OSM   H15A13386   2.734   6.772   6.956 -1.2699 -0.4857  0.2733
  126OSM   H15B13387   2.642   6.691   6.837 -1.3015  1.3027 -0.9552
  126OSM   H15C13388   2.658   6.858   6.824  1.0382  1.3351  1.5442
  126OSM    C1413389   2.931   6.868   6.798  0.0810 -0.6565  0.4745
  126OSM   H14A13390   2.887   6.959   6.762 -0.2410 -1.8240 -2.1950
  126OSM   H14B13391   3.024   6.862   6.743  0.0507 -0.9587  0.4513
  126OSM   H14C13392   2.959   6.871   6.903 -1.3438  0.9187  0.8207
  126OSM    C1313393   2.916   6.633   6.819  0.1467  0.4057  0.5752
  126OSM   H13A13394   2.928   6.634   6.926  0.7220  1.8737  0.5092
  126OSM   H13B13395   3.017   6.631   6.781  0.7483  0.6719  2.1316
  126OSM   H13C13396   2.856   6.551   6.783 -0.8289  1.2056  0.3798
  126OSM    C1213397   2.822   6.754   6.619  0.5996  0.2572  0.5292
  126OSM   H12A13398   2.916   6.737   6.568  0.6920  0.8823  0.4855
  126OSM   H12B13399   2.780   6.850   6.594 -0.4785 -0.2633  0.2938
  126OSM    C1113400   2.726   6.648   6.553 -0.1020 -0.5625  0.1297
  126OSM   H11A13401   2.757   6.547   6.589 -1.3457 -1.3261 -0.8907
  126OSM   H11B13402   2.737   6.648   6.442  1.9431  0.6057  0.3064
  126OSM      P13403   2.511   6.801   6.558  0.4028 -0.1299  0.0052
  126OSM    O1313404   2.603   6.911   6.530 -0.0964 -0.6021  0.2070
  126OSM    O1413405   2.409   6.767   6.454 -0.0609  0.3813 -0.0412
  126OSM    O1113406   2.441   6.831   6.699 -0.5441  0.0342  0.5778
  126OSM    O1213407   2.589   6.664   6.587 -0.0424  0.1933  0.4478
  126OSM    C1S13408   2.355   6.726   6.745 -0.9478 -0.2871 -0.3667
  126OSM    H1S13409   2.407   6.628   6.741  0.0121  0.1795  0.2655
  126OSM    H1T13410   2.268   6.724   6.677 -0.4135 -0.9357 -1.0440
  126OSM     NF13411   2.262   6.609   6.938 -0.4314 -0.3226  0.1576
  126OSM    HNF13412   2.163   6.599   6.942 -0.6488  1.9634  1.4679
  126OSM    C2S13413   2.315   6.737   6.895 -0.2255 -0.3943 -0.1598
  126OSM    H2S13414   2.406   6.759   6.953 -0.1309 -0.2792 -0.3509
  126OSM    C3S13415   2.215   6.852   6.904  0.5488  0.7597  0.0490
  126OSM    H3S13416   2.124   6.824   6.846 -0.4435  1.7700  1.0857
  126OSM     O313417   2.260   6.968   6.838 -0.0048 -0.1780  0.1885
  126OSM    HO313418   2.329   6.940   6.777  1.2857  2.0350  0.5546
  126OSM    C4S13419   2.181   6.869   7.047  0.0968 -0.1976  0.4113
  126OSM    H4S13420   2.112   6.792   7.086  1.2643 -1.5155 -0.0823
  126OSM    C5S13421   2.234   6.956   7.137 -0.3964 -0.8109 -0.4665
  126OSM    H5S13422   2.315   7.026   7.112 -1.3108  0.6186  0.5267
  126OSM    C6S13423   2.189   6.966   7.281 -0.0171 -0.0962 -0.9362
  126OSM    H6S13424   2.154   7.068   7.306 -2.6964 -1.2607  0.2671
  126OSM    H6T13425   2.279   6.967   7.347  0.0067 -1.2865 -0.9300
  126OSM    C7S13426   2.091   6.866   7.339 -0.2027 -0.4646  0.1235
  126OSM    H7S13427   2.144   6.769   7.353  0.8750 -0.0650 -1.1435
  126OSM    H7T13428   2.003   6.843   7.275 -0.6387  1.7274 -0.0756
  126OSM    C8S13429   2.052   6.910   7.482  0.2629  0.4396  1.2949
  126OSM    H8S13430   2.001   7.008   7.496 -4.9789 -2.1214  1.3705
  126OSM    H8T13431   2.153   6.910   7.527  1.2666 -2.1884 -0.7626
  126OSM    C9S13432   1.960   6.804   7.555  0.3398 -0.0995 -0.8056
  126OSM    H9S13433   2.013   6.707   7.553 -1.6420 -1.2340 -0.2543
  126OSM    H9T13434   1.860   6.789   7.508 -1.2063  0.6544  2.0854
  126OSM   C10S13435   1.939   6.849   7.698 -0.3989 -1.7739  0.2703
  126OSM   H10S13436   1.882   6.944   7.702 -2.5485 -3.0318  0.7920
  126OSM   H10T13437   2.032   6.874   7.753 -0.3356 -1.5542  0.0653
  126OSM   C11S13438   1.847   6.753   7.783 -0.7115  0.4046  0.5827
  126OSM   H11S13439   1.898   6.655   7.795 -0.3200  0.5662  0.2152
  126OSM   H11T13440   1.763   6.735   7.713  2.3874  0.0394 -3.1873
  126OSM   C12S13441   1.811   6.810   7.922  0.1695 -0.3029 -0.4889
  126OSM   H12S13442   1.759   6.733   7.983  0.7057 -1.2154 -1.1650
  126OSM   H12T13443   1.741   6.896   7.911  2.1159  1.5046  0.8922
  126OSM   C13S13444   1.928   6.864   7.995  0.5545  0.0116 -0.2711
  126OSM   H13S13445   1.958   6.959   7.948  1.2239 -0.0894 -0.0564
  126OSM   H13T13446   2.012   6.794   7.972 -0.1383 -0.7209 -0.5985
  126OSM   C14S13447   1.914   6.865   8.150 -0.2306  0.3242  0.0912
  126OSM   H14S13448   2.018   6.884   8.187 -0.1556 -1.3881  0.7711
  126OSM   H14T13449   1.898   6.761   8.184  0.3887 -0.2925 -1.4773
  126OSM   C15S13450   1.819   6.968   8.211 -0.0519  0.3296  0.4343
  126OSM   H15S13451   1.718   6.922   8.203 -0.3834  1.2459 -0.8225
  126OSM   H15T13452   1.821   7.053   8.139 -0.2494 -0.0492 -0.0163
  126OSM   C16S13453   1.853   7.025   8.345 -0.6269  0.4218  0.2623
  126OSM   H16S13454   1.842   7.135   8.351 -0.8556  0.4832 -1.1194
  126OSM   H16T13455   1.956   7.001   8.382 -1.0278  1.3731  2.0674
  126OSM   C17S13456   1.745   6.991   8.450 -0.3005 -0.2142 -0.8161
  126OSM   H17S13457   1.655   7.029   8.398 -2.0588 -0.2202  2.0767
  126OSM   H17T13458   1.753   7.044   8.548 -0.4667 -0.9353 -0.4082
  126OSM   C18S13459   1.725   6.838   8.461  0.0464  0.5721  0.2153
  126OSM   H18S13460   1.817   6.787   8.495 -0.2560 -1.0000 -1.3035
  126OSM   H18T13461   1.713   6.784   8.365  0.1591 -0.5189  0.8130
  126OSM   H18U13462   1.630   6.811   8.511 -0.3770 -2.1849 -1.9977
  126OSM    C1F13463   2.338   6.509   6.972  0.0392  0.0878  0.0988
  126OSM     OF13464   2.456   6.526   6.975 -1.1464 -0.2948 -0.4685
  126OSM    C2F13465   2.270   6.375   7.005  0.4199 -0.5435  0.6307
  126OSM    H2F13466   2.200   6.334   6.929  0.0849 -2.0477  1.7212
  126OSM    H2G13467   2.200   6.394   7.090 -1.2898  0.9457 -1.0682
  126OSM    C3F13468   2.372   6.258   7.044 -0.1789 -0.4705 -0.2373
  126OSM    H3F13469   2.450   6.249   6.965 -1.6258 -2.2979 -1.4968
  126OSM    H3G13470   2.324   6.158   7.047  0.9394 -1.1449 -3.0026
  126OSM    C4F13471   2.429   6.278   7.173  0.3423  0.2403 -0.3797
  126OSM    H4F13472   2.442   6.387   7.190 -2.0103  0.2690  1.4042
  126OSM    H4G13473   2.528   6.226   7.166 -0.2327 -0.5148 -3.3540
  126OSM    C5F13474   2.352   6.206   7.289 -0.0139 -0.2085 -0.4075
  126OSM    H5F13475   2.353   6.095   7.278  0.9443 -0.2450 -0.0161
  126OSM    H5G13476   2.246   6.240   7.293  0.8696  2.4316  1.6941
  126OSM    C6F13477   2.420   6.216   7.426 -0.2982 -0.9972 -0.0113
  126OSM    H6F13478   2.436   6.325   7.444 -1.7352 -0.8350  0.3380
  126OSM    H6G13479   2.521   6.181   7.397 -0.4588 -1.4279 -0.0496
  126OSM    C7F13480   2.358   6.139   7.536  0.4284  0.4027 -0.2721
  126OSM    H7F13481   2.312   6.051   7.485  2.2807  0.3562 -1.9146
  126OSM    H7G13482   2.273   6.199   7.576  0.6858 -0.5362  1.7457
  126OSM    C8F13483   2.450   6.094   7.647 -0.3478  0.2556 -0.4671
  126OSM    H8F13484   2.555   6.069   7.620 -0.9337 -2.6065 -0.2331
  126OSM    H8G13485   2.407   5.995   7.675 -1.4569  1.0071  0.5630
  126OSM    C9F13486   2.450   6.194   7.759  0.1569 -0.0709 -0.6258
  126OSM    H9F13487   2.517   6.281   7.747  0.6319 -0.5575 -1.5092
  126OSM   C10F13488   2.378   6.180   7.877 -0.1946 -0.3431 -0.1453
  126OSM   H10F13489   2.374   6.273   7.934  2.0365 -0.9775  1.1018
  126OSM   C11F13490   2.291   6.069   7.921  0.3076 -0.0148 -0.1890
  126OSM   H11F13491   2.315   5.982   7.856 -2.1938  0.6965 -2.1716
  126OSM   H11G13492   2.184   6.097   7.930  0.0940 -1.2696  1.3093
  126OSM   C12F13493   2.325   6.017   8.061 -0.1381 -0.5834  0.3573
  126OSM   H12F13494   2.436   6.010   8.071  0.0219  1.1997 -0.0179
  126OSM   H12G13495   2.283   5.914   8.055 -0.8543 -0.2585 -0.3398
  126OSM   C13F13496   2.264   6.103   8.170 -0.2054 -0.1950 -0.1069
  126OSM   H13F13497   2.153   6.103   8.167 -0.2343  0.6518  0.6526
  126OSM   H13G13498   2.286   6.209   8.145  0.5773 -0.2127  0.5078
  126OSM   C14F13499   2.323   6.078   8.315 -0.4157 -0.7045  0.3848
  126OSM   H14F13500   2.434   6.082   8.317 -0.4800  2.0459  0.7513
  126OSM   H14G13501   2.298   5.974   8.345 -0.2591 -0.4177  1.5270
  126OSM   C15F13502   2.282   6.181   8.426  0.1841 -0.3164 -0.4281
  126OSM   H15F13503   2.318   6.283   8.402  0.9283 -0.5184 -0.1788
  126OSM   H15G13504   2.334   6.137   8.513 -0.2460 -0.0668 -0.0445
  126OSM   C16F13505   2.129   6.183   8.466  0.4485 -0.0579 -0.4711
  126OSM   H16F13506   2.108   6.184   8.575 -1.5391 -2.0407 -0.7908
  126OSM   H16G13507   2.088   6.085   8.433 -2.4156  0.0009  2.6481
  126OSM   C17F13508   2.037   6.289   8.402  0.2685 -0.4990 -0.4755
  126OSM   H17F13509   1.934   6.248   8.410 -0.9728  2.4343 -0.7625
  126OSM   H17G13510   2.062   6.300   8.295  1.7304  3.2257  0.1666
  126OSM   C18F13511   2.033   6.424   8.471  0.6244  0.2525  0.1316
  126OSM   H18F13512   1.996   6.430   8.576  1.1299  0.4347  0.3004
  126OSM   H18G13513   1.976   6.494   8.407  1.7582  1.4299  0.3823
  126OSM   H18H13514   2.135   6.467   8.468 -0.1954  2.2780  0.5833
  127OSM      N13515   1.043   0.663   6.567  0.1949 -0.2136 -0.7814
  127OSM    C1513516   1.013   0.801   6.609 -0.1232 -0.3555  0.9286
  127OSM   H15A13517   0.908   0.819   6.594  0.3557  2.2363  0.5379
  127OSM   H15B13518   1.062   0.874   6.546 -2.3106 -1.2313 -1.9240
  127OSM   H15C13519   1.047   0.815   6.710  0.3875  0.9723  0.5759
  127OSM    C1413520   1.191   0.641   6.599  0.0908 -0.5674  0.5861
  127OSM   H14A13521   1.253   0.699   6.532 -0.4899 -0.1034  0.4502
  127OSM   H14B13522   1.216   0.538   6.581 -0.3076 -0.4714 -0.5900
  127OSM   H14C13523   1.212   0.675   6.699  2.7498  1.3535 -0.5532
  127OSM    C1313524   0.958   0.562   6.648 -0.6269  0.4292 -0.1945
  127OSM   H13A13525   1.004   0.465   6.633  0.8271  1.4364 -2.4707
  127OSM   H13B13526   0.856   0.567   6.614 -1.2367  0.1935  1.5451
  127OSM   H13C13527   0.957   0.584   6.754  0.4261  1.5077 -0.4002
  127OSM    C1213528   1.013   0.639   6.418  0.5639  0.4022  0.4805
  127OSM   H12A13529   1.023   0.533   6.397  0.7389  0.8774 -1.9294
  127OSM   H12B13530   1.084   0.693   6.357  0.1210  1.0441  0.5303
  127OSM    C1113531   0.874   0.679   6.354 -1.4807  0.2271  0.3320
  127OSM   H11A13532   0.872   0.694   6.244  0.6092  1.1601  0.4044
  127OSM   H11B13533   0.848   0.781   6.391 -1.7825  0.6027 -0.8973
  127OSM      P13534   0.640   0.629   6.411  0.2759 -0.3792 -0.2760
  127OSM    O1313535   0.611   0.704   6.285  0.0056  0.0801 -0.5256
  127OSM    O1413536   0.557   0.508   6.441 -0.6282  0.0645  0.1163
  127OSM    O1113537   0.641   0.728   6.536 -0.4618 -0.0250 -0.4288
  127OSM    O1213538   0.786   0.581   6.402 -0.3204 -0.7260  0.3259
  127OSM    C1S13539   0.619   0.675   6.670  0.0715 -0.6076  0.1336
  127OSM    H1S13540   0.677   0.583   6.693 -0.6365 -1.1918 -0.4049
  127OSM    H1T13541   0.511   0.647   6.674 -0.2284  0.6020  0.5434
  127OSM     NF13542   0.630   0.714   6.910 -0.4480 -0.6192 -0.1380
  127OSM    HNF13543   0.538   0.722   6.947  0.2467 -0.3843  1.5889
  127OSM    C2S13544   0.643   0.781   6.779  0.0238 -0.0890  0.5625
  127OSM    H2S13545   0.748   0.819   6.774 -0.0153 -0.1890 -1.4133
  127OSM    C3S13546   0.546   0.900   6.768  0.7647 -0.1789  0.3605
  127OSM    H3S13547   0.444   0.858   6.779  0.6834  0.3423  1.6433
  127OSM     O313548   0.545   0.958   6.639  0.0224 -0.3554  0.5515
  127OSM    HO313549   0.599   0.898   6.587  1.3368  0.4353  0.9647
  127OSM    C4S13550   0.588   1.005   6.865  1.0383 -0.3391 -0.4514
  127OSM    H4S13551   0.672   1.062   6.824  2.3465 -2.2476 -0.4834
  127OSM    C5S13552   0.540   1.034   6.987  0.9161 -0.2315 -0.5820
  127OSM    H5S13553   0.456   0.973   7.023  0.1440  1.3685  0.3442
  127OSM    C6S13554   0.576   1.150   7.074 -0.5964  0.2747  0.1569
  127OSM    H6S13555   0.618   1.113   7.170  0.8935 -0.4492 -0.7531
  127OSM    H6T13556   0.483   1.207   7.094 -1.5783 -1.2092 -0.0891
  127OSM    C7S13557   0.673   1.259   7.023  0.4170 -0.7627  0.0928
  127OSM    H7S13558   0.652   1.299   6.921 -1.1729  0.2917  0.8107
  127OSM    H7T13559   0.767   1.200   7.025 -0.4005 -2.0623  0.5982
  127OSM    C8S13560   0.691   1.372   7.127 -0.0108 -0.4365  0.4113
  127OSM    H8S13561   0.727   1.315   7.216  0.8480  0.8641  0.9025
  127OSM    H8T13562   0.596   1.425   7.149 -0.2480 -0.6200 -0.1541
  127OSM    C9S13563   0.798   1.466   7.093 -0.5912 -0.2502 -0.0654
  127OSM    H9S13564   0.786   1.515   6.993 -0.6634  2.5717  1.2703
  127OSM    H9T13565   0.896   1.415   7.094 -0.4680 -0.0319 -0.5220
  127OSM   C10S13566   0.802   1.602   7.168 -0.1363 -0.0647  1.1017
  127OSM   H10S13567   0.700   1.642   7.150  0.1586 -0.4487 -1.5477
  127OSM   H10T13568   0.877   1.674   7.131 -1.5594 -0.1803 -2.1482
  127OSM   C11S13569   0.820   1.591   7.323  0.2196 -0.2143 -0.2610
  127OSM   H11S13570   0.762   1.504   7.363  1.9264 -2.5207 -2.5710
  127OSM   H11T13571   0.795   1.687   7.372  1.2581  0.3081 -0.7396
  127OSM   C12S13572   0.967   1.570   7.355  0.1327  0.3224  0.5392
  127OSM   H12S13573   1.021   1.661   7.322  2.3071 -0.9602  0.4628
  127OSM   H12T13574   1.011   1.497   7.284 -1.9516 -0.9060  0.4753
  127OSM   C13S13575   0.997   1.521   7.498  0.2574 -0.2135 -0.0352
  127OSM   H13S13576   1.106   1.542   7.512  0.4029 -0.8305 -0.2419
  127OSM   H13T13577   0.974   1.414   7.514 -2.4203  0.3374 -0.0305
  127OSM   C14S13578   0.928   1.602   7.605 -0.2266  0.4210 -0.1195
  127OSM   H14S13579   0.817   1.602   7.595 -0.3197  0.2527  0.8913
  127OSM   H14T13580   0.954   1.710   7.600 -0.5727  0.6128  1.8154
  127OSM   C15S13581   0.964   1.559   7.752  0.0209  0.5557 -0.1979
  127OSM   H15S13582   1.068   1.522   7.754 -0.1303  0.1774  0.8256
  127OSM   H15T13583   0.897   1.474   7.774  1.6933 -0.5916  0.4893
  127OSM   C16S13584   0.934   1.677   7.848 -0.8053 -0.4557 -0.6190
  127OSM   H16S13585   0.829   1.715   7.841 -0.8155 -0.7207 -2.0147
  127OSM   H16T13586   1.003   1.762   7.833  0.4983 -1.6666 -1.6269
  127OSM   C17S13587   0.952   1.630   7.994  0.8749  0.0547  0.0683
  127OSM   H17S13588   0.853   1.587   8.019 -0.2813  2.1733 -0.7520
  127OSM   H17T13589   0.954   1.719   8.060  1.7927  1.6771 -2.0882
  127OSM   C18S13590   1.068   1.541   8.028  0.0384 -0.2870 -0.0650
  127OSM   H18S13591   1.086   1.445   7.974  1.5727 -0.4603  0.7231
  127OSM   H18T13592   1.066   1.510   8.135  1.4397 -0.7191 -0.1422
  127OSM   H18U13593   1.161   1.602   8.022 -0.7718  0.8773 -0.7716
  127OSM    C1F13594   0.725   0.635   6.968 -0.4341 -0.5302  0.1285
  127OSM     OF13595   0.827   0.602   6.903  0.6188 -0.0885 -0.3268
  127OSM    C2F13596   0.699   0.593   7.109  0.1283  0.4025  0.2380
  127OSM    H2F13597   0.592   0.611   7.134  0.3965  0.5592  1.3215
  127OSM    H2G13598   0.767   0.648   7.177 -1.6932  1.3969  1.2899
  127OSM    C3F13599   0.726   0.439   7.138 -0.1000 -0.2205  0.1529
  127OSM    H3F13600   0.831   0.411   7.116  0.7131  2.1756  0.8688
  127OSM    H3G13601   0.658   0.392   7.064 -0.3594  2.6217 -1.4862
  127OSM    C4F13602   0.692   0.397   7.282 -0.3675 -0.8198  0.0501
  127OSM    H4F13603   0.583   0.414   7.290 -0.6333 -1.4891 -1.7763
  127OSM    H4G13604   0.749   0.463   7.351 -2.5774 -0.0240  1.1423
  127OSM    C5F13605   0.731   0.255   7.312  0.0830 -0.3591  0.1172
  127OSM    H5F13606   0.841   0.245   7.315  0.1104 -0.4405 -1.1228
  127OSM    H5G13607   0.693   0.199   7.224  1.7526  0.1869 -0.9700
  127OSM    C6F13608   0.683   0.220   7.456  0.5055 -0.7068  0.9250
  127OSM    H6F13609   0.572   0.218   7.453  0.4813  1.1041 -1.1134
  127OSM    H6G13610   0.717   0.306   7.517 -0.0973  0.9249 -0.9852
  127OSM    C7F13611   0.734   0.091   7.516 -0.6698  0.5570  0.4752
  127OSM    H7F13612   0.837   0.090   7.475 -1.5023  2.2133 -1.7382
  127OSM    H7G13613   0.687   0.002   7.470 -1.1414  1.9847 -1.8941
  127OSM    C8F13614   0.718   0.092   7.666  0.1258 -0.0556 -0.2286
  127OSM    H8F13615   0.753   0.185   7.716  0.5502 -0.1528 -0.3346
  127OSM    H8G13616   0.791   0.014   7.698  0.3590  1.0011  1.8644
  127OSM    C9F13617   0.572   0.064   7.703 -0.2576  0.1847  0.2441
  127OSM    H9F13618   0.544  -0.041   7.687 -3.9037  1.2668 -1.0009
  127OSM   C10F13619   0.482   0.149   7.763  0.0636  0.1677 -0.3178
  127OSM   H10F13620   0.379   0.118   7.789  0.1634  0.9187  1.0317
  127OSM   C11F13621   0.489   0.291   7.798  0.2813 -0.3703 -0.1342
  127OSM   H11F13622   0.591   0.326   7.770  1.0778 -1.0821  1.7374
  127OSM   H11G13623   0.470   0.315   7.905  1.0525 -1.6139  0.3033
  127OSM   C12F13624   0.393   0.391   7.719  0.0226  0.3626 -0.1121
  127OSM   H12F13625   0.286   0.376   7.746  0.1420  0.6825  0.5573
  127OSM   H12G13626   0.387   0.363   7.612 -2.2950  0.6378 -0.0789
  127OSM   C13F13627   0.434   0.541   7.718  0.1232 -0.6732  0.2634
  127OSM   H13F13628   0.433   0.596   7.815 -0.5133 -1.5406  0.7526
  127OSM   H13G13629   0.352   0.587   7.659  0.5921 -0.2613 -0.0680
  127OSM   C14F13630   0.575   0.558   7.647 -0.1999  0.0303 -0.7459
  127OSM   H14F13631   0.574   0.498   7.554  1.8294 -0.4873 -0.4502
  127OSM   H14G13632   0.648   0.525   7.724  0.2975 -0.0034 -1.2254
  127OSM   C15F13633   0.624   0.697   7.621  0.1774 -0.1551  0.0225
  127OSM   H15F13634   0.708   0.694   7.548  0.1059 -1.6857 -0.0211
  127OSM   H15G13635   0.640   0.750   7.717 -2.5734  0.1741  0.3275
  127OSM   C16F13636   0.524   0.787   7.545 -0.8164  0.8508 -0.0488
  127OSM   H16F13637   0.540   0.892   7.580  1.7920 -0.0426  1.6459
  127OSM   H16G13638   0.421   0.757   7.574 -0.1652 -0.6890  0.7239
  127OSM   C17F13639   0.531   0.782   7.396 -0.5831  0.0305  0.6173
  127OSM   H17F13640   0.524   0.678   7.357 -0.8510 -0.2953  1.5332
  127OSM   H17G13641   0.634   0.815   7.370 -1.1913  1.7037  0.2396
  127OSM   C18F13642   0.431   0.882   7.340  0.0818  0.0184 -0.1226
  127OSM   H18F13643   0.440   0.896   7.230  0.3363 -0.2744 -0.1378
  127OSM   H18G13644   0.448   0.977   7.394  3.0032 -0.4521 -0.1683
  127OSM   H18H13645   0.327   0.844   7.351 -0.0457 -0.3916 -2.4610
  128OSM      N13646   0.516   4.776   5.948  0.4117  0.0333 -0.1623
  128OSM    C1513647   0.617   4.672   5.942  0.4499  0.1264 -0.6699
  128OSM   H15A13648   0.622   4.642   5.839  1.0226 -1.9515 -0.0537
  128OSM   H15B13649   0.592   4.587   6.004 -2.7058 -0.0777 -2.0925
  128OSM   H15C13650   0.713   4.709   5.975  1.5414 -0.1239 -3.4381
  128OSM    C1413651   0.541   4.878   5.847 -0.5730 -0.0392 -0.2852
  128OSM   H14A13652   0.480   4.967   5.859 -0.5103 -0.1452  0.8259
  128OSM   H14B13653   0.526   4.843   5.746 -0.8117 -0.6352 -0.0463
  128OSM   H14C13654   0.642   4.915   5.853 -0.3891 -0.7162  0.8875
  128OSM    C1313655   0.374   4.725   5.916 -0.1057 -0.3703  0.5976
  128OSM   H13A13656   0.370   4.673   5.821 -1.8336  0.7519  0.0508
  128OSM   H13B13657   0.305   4.807   5.915  0.2565 -0.0481 -1.9374
  128OSM   H13C13658   0.345   4.649   5.987 -3.0994  1.6231  1.5560
  128OSM    C1213659   0.525   4.839   6.085 -0.0994 -0.3699 -0.6417
  128OSM   H12A13660   0.450   4.916   6.077  0.7531  0.4275 -1.0439
  128OSM   H12B13661   0.614   4.899   6.098 -1.7155  1.6568  1.4277
  128OSM    C1113662   0.491   4.754   6.216 -0.4023 -0.9565  0.5879
  128OSM   H11A13663   0.482   4.827   6.300  1.2603 -0.2806  0.2149
  128OSM   H11B13664   0.579   4.688   6.229 -0.6661 -0.6719  4.7676
  128OSM      P13665   0.340   4.544   6.281 -0.2977  0.1348  0.0482
  128OSM    O1313666   0.208   4.487   6.244  0.3151 -0.2195 -0.3036
  128OSM    O1413667   0.455   4.458   6.271 -0.2293  0.2412 -0.1655
  128OSM    O1113668   0.328   4.589   6.434  0.7639  0.0217 -0.5251
  128OSM    O1213669   0.366   4.680   6.198 -0.1148 -0.0075 -0.1629
  128OSM    C1S13670   0.227   4.679   6.472  0.1756 -0.2305 -0.2290
  128OSM    H1S13671   0.122   4.645   6.456 -1.0598  1.1510  4.2013
  128OSM    H1T13672   0.233   4.782   6.431 -0.4069  0.2904  0.9764
  128OSM     NF13673   0.129   4.754   6.688  0.5856 -0.5125  0.2269
  128OSM    HNF13674   0.143   4.838   6.740  0.5876 -1.0208  1.0717
  128OSM    C2S13675   0.245   4.697   6.626  0.4933  0.1259  0.0334
  128OSM    H2S13676   0.272   4.598   6.667 -0.9396 -0.4116 -0.2935
  128OSM    C3S13677   0.381   4.776   6.670 -0.1580 -0.4497 -0.7095
  128OSM    H3S13678   0.382   4.880   6.632  0.7125  0.7983  2.5200
  128OSM     O313679   0.496   4.716   6.625 -0.1877  0.3074 -0.6443
  128OSM    HO313680   0.463   4.639   6.577  2.5946 -1.9934  0.9673
  128OSM    C4S13681   0.373   4.791   6.826  0.3721 -0.3793  0.2581
  128OSM    H4S13682   0.359   4.696   6.879 -2.4149 -0.2678 -0.2260
  128OSM    C5S13683   0.390   4.908   6.899 -0.7962  0.1352 -0.1796
  128OSM    H5S13684   0.422   5.005   6.859  2.0297 -0.7008 -0.0715
  128OSM    C6S13685   0.379   4.911   7.051  0.2034 -0.3258  0.5580
  128OSM    H6S13686   0.465   4.964   7.098 -0.2612 -0.3493  1.4471
  128OSM    H6T13687   0.378   4.809   7.094 -1.0260 -0.4551  0.2205
  128OSM    C7S13688   0.255   4.994   7.089  0.3908  0.0739  0.0044
  128OSM    H7S13689   0.173   5.008   7.016  1.8291  0.1936 -1.6061
  128OSM    H7T13690   0.290   5.099   7.095 -0.6558  0.4274  0.1297
  128OSM    C8S13691   0.194   4.941   7.216 -0.1773 -0.3898 -0.1995
  128OSM    H8S13692   0.172   4.832   7.205  1.7535 -0.7112 -1.1295
  128OSM    H8T13693   0.099   4.995   7.237 -0.0309 -1.1862  2.8346
  128OSM    C9S13694   0.280   4.949   7.336 -1.1081 -0.1648 -0.0554
  128OSM    H9S13695   0.373   4.889   7.321 -1.1355 -0.4667  0.9634
  128OSM    H9T13696   0.234   4.895   7.421  0.5524 -0.4113  0.7130
  128OSM   C10S13697   0.324   5.088   7.381 -0.4154 -0.7687  0.0296
  128OSM   H10S13698   0.233   5.152   7.392  0.3716 -0.1916  4.3227
  128OSM   H10T13699   0.385   5.139   7.304  1.1252 -0.1669  1.5960
  128OSM   C11S13700   0.388   5.095   7.524  0.6212 -0.8998 -0.4374
  128OSM   H11S13701   0.423   5.199   7.537  0.1613 -1.0607  2.2491
  128OSM   H11T13702   0.478   5.030   7.539 -0.7746 -2.0974  3.3656
  128OSM   C12S13703   0.280   5.066   7.630 -0.7092 -0.2987 -0.0544
  128OSM   H12S13704   0.231   4.968   7.611  0.5195 -0.6671 -1.4383
  128OSM   H12T13705   0.208   5.148   7.610  0.4794  0.7965  0.1326
  128OSM   C13S13706   0.341   5.065   7.775 -0.3647 -0.0378  0.6164
  128OSM   H13S13707   0.424   5.139   7.773  1.3039 -1.8904  0.4678
  128OSM   H13T13708   0.387   4.965   7.789 -0.1655 -0.0837 -0.3649
  128OSM   C14S13709   0.237   5.100   7.873  0.3475  0.3909  0.3793
  128OSM   H14S13710   0.159   5.023   7.859 -1.2281  2.3016 -1.6586
  128OSM   H14T13711   0.183   5.190   7.837  2.3348 -0.0696 -3.9803
  128OSM   C15S13712   0.291   5.102   8.020 -0.2452 -1.0884  0.1538
  128OSM   H15S13713   0.345   5.197   8.042  0.7976 -1.5429 -0.3939
  128OSM   H15T13714   0.367   5.024   8.043  1.4104  1.0863  2.3278
  128OSM   C16S13715   0.169   5.094   8.114 -0.3788 -0.2501  0.4677
  128OSM   H16S13716   0.116   5.000   8.091  0.9792 -0.5390 -1.5836
  128OSM   H16T13717   0.099   5.179   8.103 -0.3164 -0.2582  0.0084
  128OSM   C17S13718   0.220   5.089   8.254 -0.2102  0.0306 -0.4398
  128OSM   H17S13719   0.286   5.001   8.271 -0.6484 -0.1316  0.4511
  128OSM   H17T13720   0.139   5.068   8.328 -0.8130  2.6755 -0.3113
  128OSM   C18S13721   0.280   5.215   8.298 -0.2688 -0.0642  0.3857
  128OSM   H18S13722   0.381   5.238   8.257 -1.1581  2.9368 -0.2345
  128OSM   H18T13723   0.309   5.215   8.406 -0.0480 -0.3957  0.3278
  128OSM   H18U13724   0.217   5.305   8.282  0.3435  0.2856 -0.0974
  128OSM    C1F13725   0.009   4.693   6.702  0.4310 -0.1410  0.0474
  128OSM     OF13726  -0.021   4.587   6.644 -0.3355  0.4436 -0.0555
  128OSM    C2F13727  -0.084   4.766   6.804 -0.0418  0.6633  0.0794
  128OSM    H2F13728  -0.158   4.827   6.748 -0.3503  0.3120  0.1048
  128OSM    H2G13729  -0.030   4.834   6.873 -1.6241 -0.0846  2.1253
  128OSM    C3F13730  -0.156   4.675   6.893 -0.9874 -0.4852  0.2357
  128OSM    H3F13731  -0.095   4.592   6.932 -0.2418 -1.3233 -2.5988
  128OSM    H3G13732  -0.246   4.636   6.840 -1.7793  0.5568  0.7691
  128OSM    C4F13733  -0.222   4.747   7.007 -0.3659 -0.2117  0.3781
  128OSM    H4F13734  -0.310   4.690   7.044 -0.4548 -0.6038 -0.4169
  128OSM    H4G13735  -0.255   4.849   6.980 -0.9911 -0.5365 -0.1244
  128OSM    C5F13736  -0.130   4.737   7.128  0.6379  0.8079  0.3001
  128OSM    H5F13737  -0.029   4.766   7.090  0.1696 -0.7494 -2.2123
  128OSM    H5G13738  -0.126   4.629   7.151  1.1695  1.0647  1.4720
  128OSM    C6F13739  -0.169   4.817   7.247  0.3512 -0.2122 -0.4305
  128OSM    H6F13740  -0.085   4.807   7.319 -0.6311 -0.5814  0.6733
  128OSM    H6G13741  -0.259   4.772   7.293  0.6831  0.4713  0.8878
  128OSM    C7F13742  -0.196   4.965   7.224  0.4517  0.0379 -0.4729
  128OSM    H7F13743  -0.276   4.996   7.153  0.8880 -1.1835 -1.5145
  128OSM    H7G13744  -0.118   5.017   7.164 -0.2239  1.9484  0.2414
  128OSM    C8F13745  -0.225   5.043   7.355 -0.0228 -0.2000  0.2231
  128OSM    H8F13746  -0.328   5.013   7.384 -0.0966 -1.0473 -0.8784
  128OSM    H8G13747  -0.228   5.151   7.331  1.6933 -0.0440  0.6754
  128OSM    C9F13748  -0.136   5.029   7.473  0.8240 -0.2610 -0.9562
  128OSM    H9F13749  -0.029   5.032   7.447  0.8592  0.1780 -0.7615
  128OSM   C10F13750  -0.168   5.011   7.603  0.1642  0.4931  0.2653
  128OSM   H10F13751  -0.089   5.000   7.679  0.3832 -2.6857 -0.3381
  128OSM   C11F13752  -0.302   4.999   7.669  0.9052 -0.4574 -0.1453
  128OSM   H11F13753  -0.297   4.952   7.769 -0.5793 -2.0310 -0.7782
  128OSM   H11G13754  -0.367   4.929   7.611 -1.1707  1.0699  0.2844
  128OSM   C12F13755  -0.372   5.135   7.677 -0.2746 -1.1460 -0.2991
  128OSM   H12F13756  -0.401   5.176   7.578 -1.2873 -2.0857 -0.4012
  128OSM   H12G13757  -0.302   5.201   7.732  0.4300 -1.3375 -0.9690
  128OSM   C13F13758  -0.504   5.125   7.760  1.1044 -0.2205 -0.5953
  128OSM   H13F13759  -0.477   5.096   7.863 -0.0797 -1.9789 -0.7446
  128OSM   H13G13760  -0.578   5.048   7.727 -0.7489  0.8754  0.9036
  128OSM   C14F13761  -0.578   5.263   7.773  0.1933  0.2177  0.0756
  128OSM   H14F13762  -0.592   5.311   7.674  0.7697  0.1149 -0.0574
  128OSM   H14G13763  -0.497   5.318   7.826  1.1713 -1.6441  0.5945
  128OSM   C15F13764  -0.705   5.258   7.853  0.2730  0.3586 -0.0724
  128OSM   H15F13765  -0.687   5.225   7.957 -0.4728 -4.0605 -1.2553
  128OSM   H15G13766  -0.788   5.202   7.805 -1.6529  4.2568 -1.5402
  128OSM   C16F13767  -0.752   5.408   7.870  0.4077  0.3516 -0.2679
  128OSM   H16F13768  -0.764   5.449   7.767 -0.3169 -0.9837 -0.7345
  128OSM   H16G13769  -0.664   5.459   7.915  0.5544 -0.0810 -0.0592
  128OSM   C17F13770  -0.886   5.413   7.944 -0.4812  0.3344 -0.3316
  128OSM   H17F13771  -0.883   5.358   8.040  1.4935 -0.1948 -0.6810
  128OSM   H17G13772  -0.954   5.362   7.872  2.4213 -1.5386 -1.8077
  128OSM   C18F13773  -0.946   5.560   7.966  0.2339  0.2684  0.2233
  128OSM   H18F13774  -1.003   5.576   8.059  2.3713  0.4925  1.5191
  128OSM   H18G13775  -0.991   5.595   7.870  0.9605  2.0791  0.5240
  128OSM   H18H13776  -0.862   5.629   7.986  0.1590  0.2687  0.5245
  129OSM      N13777   5.123   0.334   5.942 -0.0259 -0.0645 -0.0378
  129OSM    C1513778   5.091   0.354   5.795  0.9760 -0.6022  0.0536
  129OSM   H15A13779   5.008   0.423   5.791  0.8488 -0.5989  2.2240
  129OSM   H15B13780   5.057   0.263   5.747 -1.9284  0.0794  0.7232
  129OSM   H15C13781   5.174   0.397   5.742 -1.8397  1.4461 -2.8854
  129OSM    C1413782   4.994   0.290   6.009  0.1189 -0.0601 -0.9077
  129OSM   H14A13783   5.014   0.264   6.112  0.4790 -3.0156 -1.6837
  129OSM   H14B13784   4.951   0.205   5.959 -0.7437 -0.4305  0.4217
  129OSM   H14C13785   4.917   0.366   6.003 -0.1340 -0.3564 -1.3934
  129OSM    C1313786   5.220   0.224   5.957 -0.4527 -0.1493  0.2157
  129OSM   H13A13787   5.307   0.230   5.892 -0.0104  1.0082  0.8973
  129OSM   H13B13788   5.171   0.132   5.929 -1.2760  0.1219  0.7652
  129OSM   H13C13789   5.266   0.216   6.055 -4.7984 -1.3471  2.2556
  129OSM    C1213790   5.178   0.463   6.000  0.1585  0.8603 -0.4353
  129OSM   H12A13791   5.195   0.458   6.106  2.3188 -1.8605 -0.8367
  129OSM   H12B13792   5.116   0.549   5.983 -0.6859  0.3067 -0.1806
  129OSM    C1113793   5.315   0.506   5.942 -0.0783 -0.2819  0.6916
  129OSM   H11A13794   5.322   0.615   5.962 -1.9393  0.0525 -0.4168
  129OSM   H11B13795   5.310   0.496   5.832  0.3536 -2.6597  0.8576
  129OSM      P13796   5.474   0.434   6.138  0.0001  0.2696  0.0018
  129OSM    O1313797   5.575   0.326   6.150 -0.2521  0.4566  0.6531
  129OSM    O1413798   5.517   0.572   6.168  0.0393 -1.1299 -0.0263
  129OSM    O1113799   5.346   0.386   6.228 -0.0092  0.4342 -0.5888
  129OSM    O1213800   5.430   0.434   5.987 -0.2366 -0.0481 -0.2325
  129OSM    C1S13801   5.330   0.251   6.273 -0.4761 -0.6010  0.1546
  129OSM    H1S13802   5.376   0.172   6.211 -0.7847 -1.9064  1.5569
  129OSM    H1T13803   5.222   0.227   6.271 -0.5802 -0.1471  0.1224
  129OSM     NF13804   5.354   0.095   6.464  0.2410  0.1619 -0.0861
  129OSM    HNF13805   5.268   0.053   6.492 -0.2195  1.1629  0.0234
  129OSM    C2S13806   5.366   0.237   6.428  0.2914 -0.1099 -0.6145
  129OSM    H2S13807   5.473   0.262   6.446  0.3686  0.1014 -1.3221
  129OSM    C3S13808   5.279   0.330   6.516 -0.2662  0.7426  0.2130
  129OSM    H3S13809   5.176   0.300   6.488  0.1838  0.0601 -0.7257
  129OSM     O313810   5.290   0.466   6.481  0.5375  0.3510  0.1302
  129OSM    HO313811   5.293   0.459   6.385 -0.5485 -2.1512  0.2627
  129OSM    C4S13812   5.302   0.310   6.663  0.4269 -0.4071  0.6168
  129OSM    H4S13813   5.404   0.299   6.703  0.3665 -2.2840  0.3171
  129OSM    C5S13814   5.204   0.291   6.740  1.0968  0.0775  0.0094
  129OSM    H5S13815   5.104   0.289   6.695  0.7578  0.4043  0.7346
  129OSM    C6S13816   5.203   0.270   6.887  0.4445  0.5375 -0.4090
  129OSM    H6S13817   5.110   0.212   6.902  1.1444 -0.5314 -0.0886
  129OSM    H6T13818   5.184   0.364   6.943 -3.4684  1.1111 -2.5906
  129OSM    C7S13819   5.314   0.191   6.949 -0.6584  0.8472  0.3689
  129OSM    H7S13820   5.400   0.261   6.945  0.2910 -0.2182  1.6444
  129OSM    H7T13821   5.340   0.095   6.900 -0.4424  0.9438  0.2962
  129OSM    C8S13822   5.297   0.157   7.103 -1.2308 -0.3975  0.2155
  129OSM    H8S13823   5.298   0.259   7.148 -2.0751  0.5499 -1.8156
  129OSM    H8T13824   5.386   0.093   7.123 -2.3887 -2.4354 -0.9859
  129OSM    C9S13825   5.160   0.087   7.128  0.4256 -0.3970 -0.2437
  129OSM    H9S13826   5.135   0.015   7.047 -1.1833  2.2979 -2.2012
  129OSM    H9T13827   5.080   0.164   7.133 -1.9368 -2.7374 -0.8714
  129OSM   C10S13828   5.158   0.016   7.268  0.1550  0.1868 -0.2600
  129OSM   H10S13829   5.260  -0.020   7.291 -0.1901 -1.5811 -1.4000
  129OSM   H10T13830   5.090  -0.071   7.253 -1.7074  1.5343  0.2259
  129OSM   C11S13831   5.127   0.109   7.387 -0.8520 -0.9005 -0.3602
  129OSM   H11S13832   5.026   0.153   7.378  0.3130  2.0068  0.1933
  129OSM   H11T13833   5.203   0.190   7.379 -0.9927 -0.7384 -0.0588
  129OSM   C12S13834   5.140   0.043   7.522  0.1840  0.8535  0.6761
  129OSM   H12S13835   5.235  -0.014   7.519 -1.8298 -2.5540 -0.4593
  129OSM   H12T13836   5.053  -0.023   7.540  0.3814  0.3541 -0.1695
  129OSM   C13S13837   5.152   0.144   7.640  0.1065 -0.5865  0.4640
  129OSM   H13S13838   5.066   0.213   7.639 -0.8888 -1.8008 -1.8786
  129OSM   H13T13839   5.248   0.200   7.638  0.8135 -1.7529  0.9462
  129OSM   C14S13840   5.153   0.072   7.775  0.7106 -0.2632  0.0797
  129OSM   H14S13841   5.238   0.001   7.764  0.0989 -0.9187 -0.4933
  129OSM   H14T13842   5.058   0.015   7.780  1.4268 -1.4429  0.4139
  129OSM   C15S13843   5.157   0.163   7.898  0.2431 -0.0812  0.6085
  129OSM   H15S13844   5.058   0.207   7.922  1.5594  2.5659  1.4183
  129OSM   H15T13845   5.227   0.249   7.885 -1.4630  1.4582  1.3386
  129OSM   C16S13846   5.183   0.087   8.026 -0.3176  0.0971 -0.1265
  129OSM   H16S13847   5.110   0.004   8.038  0.0727 -0.2077  0.1640
  129OSM   H16T13848   5.181   0.161   8.108 -1.8640  2.1399 -1.9609
  129OSM   C17S13849   5.324   0.020   8.031 -0.6136 -0.2510  0.4181
  129OSM   H17S13850   5.395   0.101   8.006 -0.6916 -0.2105  0.3262
  129OSM   H17T13851   5.337  -0.066   7.961 -0.0087  0.5037 -0.4128
  129OSM   C18S13852   5.355  -0.029   8.170 -0.4257  0.1115  0.0092
  129OSM   H18S13853   5.435  -0.106   8.168 -1.0991 -0.5818 -0.4492
  129OSM   H18T13854   5.267  -0.078   8.218 -1.3788  0.6300 -1.1821
  129OSM   H18U13855   5.398   0.049   8.237  1.0762 -0.8061  0.1354
  129OSM    C1F13856   5.445   0.009   6.420  0.3903  0.7740  0.4733
  129OSM     OF13857   5.560   0.043   6.399  0.2693 -0.6063 -0.0334
  129OSM    C2F13858   5.386  -0.128   6.396  0.5440 -0.6540 -0.5650
  129OSM    H2F13859   5.456  -0.175   6.324  0.4321 -1.1022 -0.3791
  129OSM    H2G13860   5.288  -0.117   6.344  0.2806 -0.6677 -0.0702
  129OSM    C3F13861   5.365  -0.193   6.535 -0.1735 -0.0086  0.1220
  129OSM    H3F13862   5.322  -0.295   6.525 -0.1012 -0.0435  0.1730
  129OSM    H3G13863   5.288  -0.131   6.585 -0.2158  0.7833 -0.8957
  129OSM    C4F13864   5.488  -0.222   6.622 -0.2803 -0.1965 -0.1415
  129OSM    H4F13865   5.529  -0.122   6.648 -2.0220  0.3296  0.7429
  129OSM    H4G13866   5.576  -0.275   6.582  0.3176  0.2555  0.5679
  129OSM    C5F13867   5.465  -0.301   6.753  0.6403 -0.0854 -0.1323
  129OSM    H5F13868   5.454  -0.408   6.725  2.1119  0.2484 -2.0991
  129OSM    H5G13869   5.369  -0.271   6.799  1.0817 -3.2874  3.1441
  129OSM    C6F13870   5.583  -0.298   6.848  0.2665  0.0532  0.5280
  129OSM    H6F13871   5.638  -0.202   6.864 -0.3952  0.5326 -0.0251
  129OSM    H6G13872   5.660  -0.367   6.808  2.0684  1.3023  1.7149
  129OSM    C7F13873   5.552  -0.356   6.989  0.4144  0.0659  0.2294
  129OSM    H7F13874   5.491  -0.449   6.989  0.4526  0.0405  0.0982
  129OSM    H7G13875   5.481  -0.292   7.044 -1.4593  0.4718 -2.5236
  129OSM    C8F13876   5.673  -0.388   7.083 -0.5832 -0.2355  0.1922
  129OSM    H8F13877   5.751  -0.451   7.035 -0.3693  0.8653 -0.9185
  129OSM    H8G13878   5.634  -0.448   7.168 -1.6838 -0.0778 -0.1904
  129OSM    C9F13879   5.734  -0.258   7.123  0.0632 -0.8329  0.4659
  129OSM    H9F13880   5.787  -0.196   7.050 -0.6898 -1.7315 -0.8793
  129OSM   C10F13881   5.750  -0.212   7.252 -0.6417 -0.1571 -0.2276
  129OSM   H10F13882   5.794  -0.112   7.269  1.2634 -0.5139 -2.6379
  129OSM   C11F13883   5.717  -0.282   7.374  0.1167  0.2301  0.0569
  129OSM   H11F13884   5.774  -0.243   7.461 -1.7104  1.4878  0.7180
  129OSM   H11G13885   5.733  -0.390   7.354 -0.2558 -0.0010  0.9525
  129OSM   C12F13886   5.565  -0.273   7.421 -0.0496 -0.1735 -0.0588
  129OSM   H12F13887   5.500  -0.305   7.338 -0.0288 -0.4463  0.0290
  129OSM   H12G13888   5.539  -0.166   7.435 -0.5435  0.0417 -2.4079
  129OSM   C13F13889   5.544  -0.355   7.553 -0.4489  0.3486 -0.6001
  129OSM   H13F13890   5.615  -0.330   7.635  0.7889 -1.6667 -1.0113
  129OSM   H13G13891   5.585  -0.455   7.526  0.0657  0.2544  0.4982
  129OSM   C14F13892   5.408  -0.353   7.621 -0.5737 -0.6067  0.1900
  129OSM   H14F13893   5.372  -0.457   7.609 -0.0394 -1.1388  2.9318
  129OSM   H14G13894   5.339  -0.282   7.571 -0.2094  0.0634  0.6324
  129OSM   C15F13895   5.417  -0.322   7.776 -1.0959 -0.1089 -0.7520
  129OSM   H15F13896   5.315  -0.306   7.818 -0.3438  3.0487  0.0277
  129OSM   H15G13897   5.464  -0.223   7.792 -1.4394 -0.0180 -0.2651
  129OSM   C16F13898   5.472  -0.436   7.867 -0.3000 -0.6522  0.0488
  129OSM   H16F13899   5.565  -0.480   7.827  0.0359  1.2782 -1.3720
  129OSM   H16G13900   5.396  -0.517   7.877 -0.3065 -0.4643  1.5604
  129OSM   C17F13901   5.504  -0.381   8.006  0.0760 -0.1525  0.3075
  129OSM   H17F13902   5.411  -0.356   8.061  0.5869  0.5280  0.8747
  129OSM   H17G13903   5.571  -0.294   7.989  0.3025 -0.6795 -1.6291
  129OSM   C18F13904   5.586  -0.481   8.091 -0.0220  0.2031  0.1512
  129OSM   H18F13905   5.529  -0.577   8.092  2.0295 -1.0685  0.2689
  129OSM   H18G13906   5.607  -0.431   8.187  2.1534 -1.0137  0.3434
  129OSM   H18H13907   5.682  -0.516   8.047  0.0750  1.5879 -0.7643
  130OSM      N13908   6.549   3.127   6.400  0.2990  0.4904  0.5628
  130OSM    C1513909   6.454   3.026   6.343 -0.6368 -0.2051 -0.1632
  130OSM   H15A13910   6.470   3.024   6.236  0.2138 -0.6889 -0.0324
  130OSM   H15B13911   6.352   3.055   6.363 -0.2927 -0.1094  1.5454
  130OSM   H15C13912   6.476   2.927   6.378  0.4694  0.3715  0.8249
  130OSM    C1413913   6.559   3.120   6.550  0.3299  0.6542  0.3726
  130OSM   H14A13914   6.465   3.111   6.603  0.7594 -0.9782  0.8778
  130OSM   H14B13915   6.616   3.206   6.583  0.7496  0.9551 -1.0750
  130OSM   H14C13916   6.590   3.020   6.577 -1.2142 -0.1257 -0.6456
  130OSM    C1313917   6.689   3.095   6.351  0.0810 -0.5611  0.2217
  130OSM   H13A13918   6.727   2.996   6.374  1.8663  0.0200 -0.1345
  130OSM   H13B13919   6.753   3.173   6.388  0.1071 -0.6696  0.4044
  130OSM   H13C13920   6.689   3.097   6.243  1.8934 -2.6393  0.1490
  130OSM    C1213921   6.507   3.267   6.364 -0.0934 -0.0627  0.2608
  130OSM   H12A13922   6.515   3.293   6.260  0.2532  1.6310  0.6804
  130OSM   H12B13923   6.581   3.330   6.414  1.2919 -0.6896 -0.9685
  130OSM    C1113924   6.377   3.330   6.416 -0.4116  0.0315  0.6079
  130OSM   H11A13925   6.371   3.427   6.361 -0.7949  1.3764  2.9529
  130OSM   H11B13926   6.394   3.344   6.524 -0.6075 -3.2373  1.1039
  130OSM      P13927   6.118   3.316   6.397 -0.4635 -0.1510  0.7993
  130OSM    O1313928   6.093   3.402   6.286  0.3080 -0.2551  0.1590
  130OSM    O1413929   6.018   3.210   6.420 -0.0174 -0.6894  0.1681
  130OSM    O1113930   6.127   3.416   6.527 -0.0818  0.2929  0.1767
  130OSM    O1213931   6.262   3.249   6.389 -0.5142  0.3820  0.0866
  130OSM    C1S13932   6.010   3.469   6.592 -0.2720  0.2426 -0.9900
  130OSM    H1S13933   5.958   3.383   6.640  1.1967  0.6399  1.4410
  130OSM    H1T13934   5.932   3.514   6.528 -1.4918 -0.6705 -0.1510
  130OSM     NF13935   5.942   3.615   6.770 -0.1067 -0.5420 -0.6584
  130OSM    HNF13936   5.915   3.710   6.761  0.5260  0.0603  3.1648
  130OSM    C2S13937   6.058   3.571   6.695 -0.0978  0.0935 -0.0859
  130OSM    H2S13938   6.139   3.523   6.755 -0.1053  0.4441  0.2112
  130OSM    C3S13939   6.130   3.691   6.627 -0.4820 -0.3774  0.1735
  130OSM    H3S13940   6.057   3.753   6.571  0.1216  0.5186  0.3589
  130OSM     O313941   6.232   3.662   6.532  0.2881 -0.2940  0.2129
  130OSM    HO313942   6.228   3.566   6.538  1.0697 -0.2962  0.7952
  130OSM    C4S13943   6.200   3.788   6.723 -0.4649  0.0946 -0.9653
  130OSM    H4S13944   6.151   3.885   6.740 -1.3926 -0.3355 -1.1330
  130OSM    C5S13945   6.324   3.780   6.785  0.1434 -0.3177  0.1618
  130OSM    H5S13946   6.385   3.691   6.766 -0.2481 -0.4521 -0.4762
  130OSM    C6S13947   6.370   3.877   6.892 -0.0834  0.6895  0.0628
  130OSM    H6S13948   6.300   3.963   6.896 -0.8921  0.0159  0.4894
  130OSM    H6T13949   6.470   3.919   6.867  0.7244 -0.0824  1.9565
  130OSM    C7S13950   6.382   3.832   7.034  0.2607  0.0909  0.0087
  130OSM    H7S13951   6.427   3.913   7.095  0.9008  0.6428 -1.1823
  130OSM    H7T13952   6.449   3.744   7.042 -0.5682 -0.7070 -1.4768
  130OSM    C8S13953   6.248   3.794   7.097 -0.4915  0.0601  0.6880
  130OSM    H8S13954   6.216   3.697   7.053  1.1601 -0.5192  0.7145
  130OSM    H8T13955   6.172   3.870   7.070 -2.0307 -1.7472 -0.1652
  130OSM    C9S13956   6.249   3.793   7.246 -0.0482 -0.4257 -0.1088
  130OSM    H9S13957   6.276   3.893   7.284 -1.5952 -0.0208 -0.0583
  130OSM    H9T13958   6.337   3.729   7.269  2.4297  2.6326 -0.7615
  130OSM   C10S13959   6.114   3.763   7.320  0.1250  0.1862 -0.6793
  130OSM   H10S13960   6.088   3.665   7.276  0.9138  0.8412 -2.6675
  130OSM   H10T13961   6.035   3.837   7.295  1.4165  1.6471 -0.5492
  130OSM   C11S13962   6.141   3.753   7.472 -0.8416 -1.0582  0.2681
  130OSM   H11S13963   6.171   3.850   7.517  0.5473 -0.9279 -0.9189
  130OSM   H11T13964   6.233   3.694   7.487  0.0973  0.5535  0.9207
  130OSM   C12S13965   6.018   3.679   7.531 -0.7187  0.3712  0.2193
  130OSM   H12S13966   5.992   3.602   7.455  0.6658  0.9619 -0.8950
  130OSM   H12T13967   5.934   3.751   7.538 -0.3549  0.8457 -0.2148
  130OSM   C13S13968   6.031   3.618   7.678  0.1135  0.0489 -0.2067
  130OSM   H13S13969   6.133   3.600   7.717  0.1956 -0.5689 -0.6989
  130OSM   H13T13970   5.995   3.514   7.669 -1.8608  0.8675 -2.3655
  130OSM   C14S13971   5.955   3.697   7.781 -1.2260 -0.1838  0.1034
  130OSM   H14S13972   5.846   3.680   7.762 -1.2157 -0.8611  0.6609
  130OSM   H14T13973   5.976   3.806   7.775 -0.6152 -0.3652 -1.1398
  130OSM   C15S13974   5.965   3.658   7.927  0.2633  0.0474  0.8371
  130OSM   H15S13975   5.968   3.547   7.918  3.5722  0.3480 -3.3791
  130OSM   H15T13976   5.879   3.697   7.985 -1.3627  2.0711 -2.7667
  130OSM   C16S13977   6.093   3.709   7.999  0.0447  0.1070 -0.5129
  130OSM   H16S13978   6.105   3.819   7.992  1.8990  0.1064  1.8231
  130OSM   H16T13979   6.190   3.666   7.965  1.7193 -1.0343  5.1367
  130OSM   C17S13980   6.076   3.680   8.146  0.3995  0.7466 -0.0310
  130OSM   H17S13981   6.065   3.570   8.160  2.0887  0.6404  0.5758
  130OSM   H17T13982   5.975   3.706   8.186 -0.9006 -1.6093 -1.6757
  130OSM   C18S13983   6.191   3.713   8.235  0.3593  0.2345 -0.0364
  130OSM   H18S13984   6.215   3.822   8.229  1.2813  0.0224 -0.2860
  130OSM   H18T13985   6.279   3.653   8.206 -0.5225 -0.6154 -1.0102
  130OSM   H18U13986   6.174   3.677   8.338 -0.4800  0.1569 -0.1958
  130OSM    C1F13987   5.884   3.536   6.855  0.1365  0.6875 -0.3522
  130OSM     OF13988   5.901   3.417   6.862 -0.0082  0.8516  0.1313
  130OSM    C2F13989   5.789   3.610   6.949 -0.6283 -0.5164 -0.2799
  130OSM    H2F13990   5.687   3.603   6.906 -1.1509 -0.1036  0.8896
  130OSM    H2G13991   5.819   3.716   6.965 -2.8768 -0.0364  0.9009
  130OSM    C3F13992   5.779   3.550   7.094 -0.1451 -0.4884 -0.0345
  130OSM    H3F13993   5.879   3.557   7.142  1.6043 -0.1736 -3.5124
  130OSM    H3G13994   5.747   3.444   7.082 -0.1321 -0.2614 -2.4603
  130OSM    C4F13995   5.674   3.628   7.177  0.0784  0.2330  0.5143
  130OSM    H4F13996   5.574   3.616   7.130  1.0058 -1.0282 -1.1574
  130OSM    H4G13997   5.702   3.735   7.181  1.4005  0.1512 -4.1792
  130OSM    C5F13998   5.667   3.577   7.322 -0.5364  0.1293 -0.6023
  130OSM    H5F13999   5.776   3.560   7.340 -0.5687 -0.1387 -0.6570
  130OSM    H5G14000   5.613   3.480   7.316 -0.4184  0.0746 -0.8229
  130OSM    C6F14001   5.602   3.661   7.433  0.4104 -0.7644  0.3714
  130OSM    H6F14002   5.494   3.677   7.411  0.4403 -2.4694 -1.1333
  130OSM    H6G14003   5.639   3.766   7.436 -2.5499  0.4587 -3.0559
  130OSM    C7F14004   5.613   3.602   7.574  0.0350 -0.0236  0.2187
  130OSM    H7F14005   5.721   3.583   7.596  0.3596  0.1326 -1.1955
  130OSM    H7G14006   5.566   3.502   7.583 -3.0516  1.3497 -0.1720
  130OSM    C8F14007   5.543   3.682   7.685 -0.1187 -0.6204 -0.2230
  130OSM    H8F14008   5.565   3.619   7.774 -1.1839  0.1207  0.5796
  130OSM    H8G14009   5.434   3.677   7.663 -0.3515  1.2574  0.3545
  130OSM    C9F14010   5.578   3.829   7.718 -0.6752 -0.8314 -0.7882
  130OSM    H9F14011   5.685   3.852   7.718 -0.6607 -0.7734  1.3425
  130OSM   C10F14012   5.496   3.934   7.738 -0.3712 -0.3733  0.2184
  130OSM   H10F14013   5.539   4.033   7.761  1.4842 -1.4047  1.3723
  130OSM   C11F14014   5.342   3.926   7.731 -0.9126  0.2986 -0.1939
  130OSM   H11F14015   5.299   3.917   7.833 -0.4836  1.6895  0.1310
  130OSM   H11G14016   5.300   3.839   7.677  0.8314  0.0381 -1.1679
  130OSM   C12F14017   5.275   4.052   7.668 -0.5843 -0.6895  0.4131
  130OSM   H12F14018   5.281   4.141   7.734  1.4543 -1.4045  1.2294
  130OSM   H12G14019   5.166   4.028   7.668 -0.1807 -2.6654 -0.6714
  130OSM   C13F14020   5.329   4.087   7.526 -0.1503 -0.2068  0.3153
  130OSM   H13F14021   5.439   4.104   7.537 -0.0925  0.6605 -1.3133
  130OSM   H13G14022   5.288   4.184   7.489 -3.1370 -1.0292  1.3908
  130OSM   C14F14023   5.319   3.976   7.419 -0.6964 -0.7623  0.3258
  130OSM   H14F14024   5.216   3.989   7.377  0.1551 -0.5752 -1.7551
  130OSM   H14G14025   5.326   3.875   7.463 -1.0049 -1.7607 -1.8381
  130OSM   C15F14026   5.423   3.987   7.311 -0.0630 -0.3048  0.0166
  130OSM   H15F14027   5.507   3.915   7.326 -0.0351 -0.1407  0.6572
  130OSM   H15G14028   5.449   4.094   7.296  1.9029 -1.2005 -3.7466
  130OSM   C16F14029   5.364   3.940   7.177 -0.1517 -0.8788  0.0458
  130OSM   H16F14030   5.304   4.030   7.151  0.8866 -0.5088 -1.0915
  130OSM   H16G14031   5.301   3.849   7.188 -0.9021 -0.1510  2.1208
  130OSM   C17F14032   5.466   3.921   7.067 -0.2293  0.0126 -0.6267
  130OSM   H17F14033   5.552   3.863   7.109  0.4496  0.6826 -1.0734
  130OSM   H17G14034   5.515   4.017   7.040  1.1880  0.8631  4.4168
  130OSM   C18F14035   5.423   3.857   6.938 -0.4570  0.0294  0.5177
  130OSM   H18F14036   5.402   3.749   6.954  0.7547 -0.2663  0.1428
  130OSM   H18G14037   5.517   3.852   6.878 -0.0566 -0.2382  1.1646
  130OSM   H18H14038   5.344   3.910   6.880 -0.1972  0.1338  0.2578
  131OSM      N14039   0.097   1.888   6.546  0.2677  0.3300 -0.5367
  131OSM    C1514040   0.204   1.978   6.495  0.3919  0.8116 -0.5098
  131OSM   H15A14041   0.239   1.935   6.402  1.4738  0.2632  0.1356
  131OSM   H15B14042   0.290   1.976   6.560  0.4740 -0.9525 -0.6262
  131OSM   H15C14043   0.166   2.076   6.471  1.7847  1.4491 -0.1561
  131OSM    C1414044   0.159   1.756   6.587 -0.4452 -0.2604  0.1265
  131OSM   H14A14045   0.079   1.701   6.636  0.1504  1.0162  2.6204
  131OSM   H14B14046   0.241   1.770   6.656 -2.1589 -1.7162  2.5730
  131OSM   H14C14047   0.192   1.710   6.495 -2.0220 -0.3090 -0.4410
  131OSM    C1314048   0.031   1.947   6.669 -0.0412 -0.4949  0.0697
  131OSM   H13A14049  -0.018   2.041   6.650  1.5285  0.3506  0.1712
  131OSM   H13B14050   0.105   1.958   6.747  0.0975  0.1858 -0.1538
  131OSM   H13C14051  -0.048   1.879   6.699 -0.7781  0.4746  0.3694
  131OSM    C1214052  -0.009   1.869   6.441 -0.3877  0.0552  0.0055
  131OSM   H12A14053  -0.075   1.955   6.435  0.5038  0.8019  0.6017
  131OSM   H12B14054  -0.087   1.801   6.470  0.9123 -1.3146  0.3502
  131OSM    C1114055   0.028   1.839   6.295 -0.4246 -0.1048  0.6792
  131OSM   H11A14056   0.103   1.908   6.252 -2.5858  1.4906 -0.6215
  131OSM   H11B14057  -0.057   1.848   6.225  0.3288  0.9517 -0.1188
  131OSM      P14058   0.035   1.595   6.200 -0.1950 -0.4302 -0.1938
  131OSM    O1314059  -0.078   1.631   6.106  0.4878 -0.4691 -0.3251
  131OSM    O1414060   0.151   1.547   6.124 -0.1997 -0.0839 -0.0353
  131OSM    O1114061  -0.003   1.478   6.293 -0.3359  0.1286 -0.1692
  131OSM    O1214062   0.090   1.715   6.284  0.2666 -0.2809 -0.2522
  131OSM    C1S14063   0.087   1.431   6.389 -0.3298  0.0059 -0.5048
  131OSM    H1S14064   0.138   1.510   6.449  2.1389  0.1682 -2.7394
  131OSM    H1T14065   0.168   1.382   6.331  0.8768  2.2179 -0.7541
  131OSM     NF14066   0.111   1.286   6.593  0.3161  0.3334 -0.0621
  131OSM    HNF14067   0.173   1.210   6.581 -1.1468 -0.7648 -0.7999
  131OSM    C2S14068   0.032   1.317   6.476 -0.4934  0.3977  0.3609
  131OSM    H2S14069  -0.065   1.352   6.518 -2.5780 -1.2409 -2.8653
  131OSM    C3S14070  -0.001   1.195   6.390  0.2232 -0.3039  0.4656
  131OSM    H3S14071   0.093   1.155   6.347 -0.3319 -0.2800 -0.7963
  131OSM     O314072  -0.086   1.231   6.277 -0.0953  0.0257 -0.1744
  131OSM    HO314073  -0.075   1.326   6.271  2.7754 -0.0379  2.6368
  131OSM    C4S14074  -0.063   1.082   6.471  0.2737  0.3778 -0.4329
  131OSM    H4S14075   0.007   1.001   6.498 -1.8648 -1.1821  0.5559
  131OSM    C5S14076  -0.189   1.069   6.510 -0.5643 -0.1897  0.2311
  131OSM    H5S14077  -0.256   1.152   6.483  0.4846 -0.8028 -4.8053
  131OSM    C6S14078  -0.247   0.959   6.595 -0.2612  0.0054  0.1947
  131OSM    H6S14079  -0.169   0.885   6.624  1.2029  0.6036 -2.0742
  131OSM    H6T14080  -0.314   0.893   6.536 -0.8878 -1.6655  2.6797
  131OSM    C7S14081  -0.326   0.996   6.725  0.6618 -0.0218  0.8119
  131OSM    H7S14082  -0.352   0.899   6.773  0.0341  0.4102  1.3538
  131OSM    H7T14083  -0.422   1.038   6.688 -0.6296 -0.6586  3.3252
  131OSM    C8S14084  -0.236   1.092   6.805 -0.3697 -0.5842  0.4925
  131OSM    H8S14085  -0.226   1.188   6.751 -0.3572 -1.4864 -1.1284
  131OSM    H8T14086  -0.132   1.053   6.807  0.0808  0.6069  1.0137
  131OSM    C9S14087  -0.281   1.123   6.949  0.3257 -0.1462 -0.2770
  131OSM    H9S14088  -0.188   1.152   7.003  0.1098 -1.2772  0.7376
  131OSM    H9T14089  -0.315   1.023   6.985  1.0692 -0.8467 -1.4894
  131OSM   C10S14090  -0.391   1.223   6.961  0.7053  0.4419 -0.1938
  131OSM   H10S14091  -0.470   1.195   6.888  2.2689  2.7423 -2.8437
  131OSM   H10T14092  -0.354   1.324   6.934  2.4738  0.5885  2.5183
  131OSM   C11S14093  -0.448   1.235   7.100  0.3259  0.8698 -0.2484
  131OSM   H11S14094  -0.366   1.247   7.173 -0.5132 -0.6708  0.9666
  131OSM   H11T14095  -0.513   1.154   7.139 -1.6517  2.5865  0.1480
  131OSM   C12S14096  -0.536   1.359   7.105 -0.1836 -0.3275 -0.3803
  131OSM   H12S14097  -0.595   1.373   7.012  0.1222 -0.8449 -0.6525
  131OSM   H12T14098  -0.462   1.442   7.097  2.2165 -2.3048  0.5983
  131OSM   C13S14099  -0.649   1.374   7.205  0.0622 -0.0725  0.2761
  131OSM   H13S14100  -0.727   1.297   7.190 -1.9279  1.8158  0.6461
  131OSM   H13T14101  -0.694   1.475   7.200 -1.6346 -0.8481 -0.4766
  131OSM   C14S14102  -0.601   1.355   7.351  0.2355  0.2063  0.0104
  131OSM   H14S14103  -0.526   1.433   7.378 -1.1777  1.1869  1.2001
  131OSM   H14T14104  -0.553   1.255   7.363  1.3039  0.7196  0.0340
  131OSM   C15S14105  -0.701   1.363   7.465 -0.3844  1.0317 -0.0148
  131OSM   H15S14106  -0.775   1.283   7.444  0.2800  0.2968  0.4100
  131OSM   H15T14107  -0.752   1.461   7.459 -4.4601 -1.1422 -4.4972
  131OSM   C16S14108  -0.639   1.335   7.603  0.0279  0.4239  0.2772
  131OSM   H16S14109  -0.542   1.388   7.615  0.4171 -0.2079 -0.0543
  131OSM   H16T14110  -0.613   1.228   7.603 -1.3285  0.0577  2.5624
  131OSM   C17S14111  -0.744   1.356   7.714 -0.3542 -0.1994  0.0938
  131OSM   H17S14112  -0.829   1.416   7.675  1.3365  2.5718  0.5230
  131OSM   H17T14113  -0.697   1.423   7.789 -1.1841  1.0247 -0.4664
  131OSM   C18S14114  -0.795   1.237   7.793  0.4463  0.1283  0.3006
  131OSM   H18S14115  -0.856   1.164   7.737  0.6792 -1.6399  2.2964
  131OSM   H18T14116  -0.857   1.279   7.875  0.9878  0.8808  0.3376
  131OSM   H18U14117  -0.705   1.190   7.838  2.2079 -0.2888 -3.4388
  131OSM    C1F14118   0.121   1.365   6.701 -0.3501 -0.3189  0.6014
  131OSM     OF14119   0.080   1.479   6.702 -0.4751  0.3967  0.2356
  131OSM    C2F14120   0.197   1.310   6.822 -0.0920  0.3502 -0.0913
  131OSM    H2F14121   0.301   1.350   6.812 -0.6489  2.1432  1.0502
  131OSM    H2G14122   0.201   1.199   6.825  3.2186  0.4005 -0.2419
  131OSM    C3F14123   0.121   1.359   6.951 -0.2433  0.5002 -0.5574
  131OSM    H3F14124   0.030   1.298   6.969  1.3277 -1.9783 -0.8347
  131OSM    H3G14125   0.103   1.468   6.935  1.0169  0.8741  0.5075
  131OSM    C4F14126   0.221   1.351   7.068 -0.6785 -0.2058 -0.0312
  131OSM    H4F14127   0.319   1.398   7.042 -0.7040  1.3412  2.4891
  131OSM    H4G14128   0.239   1.243   7.082  0.3686 -0.1816 -1.0927
  131OSM    C5F14129   0.164   1.425   7.182  0.6155  0.3651  0.0972
  131OSM    H5F14130   0.073   1.369   7.212 -1.3887  2.6186 -1.5941
  131OSM    H5G14131   0.142   1.530   7.154  0.5587  0.3780  0.1906
  131OSM    C6F14132   0.270   1.436   7.299 -0.2107  0.1023 -0.6134
  131OSM    H6F14133   0.240   1.514   7.372  2.5386  1.3039 -0.7258
  131OSM    H6G14134   0.366   1.474   7.258 -0.5757  1.4526 -0.2209
  131OSM    C7F14135   0.296   1.308   7.377  0.0680  0.7571 -0.5726
  131OSM    H7F14136   0.405   1.290   7.393 -0.7732 -1.7797  3.0510
  131OSM    H7G14137   0.266   1.221   7.315  0.5940  0.0685  0.1219
  131OSM    C8F14138   0.222   1.315   7.513 -0.0340  0.3291  0.7861
  131OSM    H8F14139   0.116   1.310   7.481  0.3339 -0.5420 -0.3689
  131OSM    H8G14140   0.238   1.414   7.561 -3.0205 -0.0808  2.7619
  131OSM    C9F14141   0.253   1.192   7.605 -0.1152  0.1938  0.1851
  131OSM    H9F14142   0.259   1.095   7.552 -1.4992  0.4901 -0.5440
  131OSM   C10F14143   0.266   1.196   7.733  0.2959  0.5987 -0.4273
  131OSM   H10F14144   0.277   1.098   7.781 -1.9218 -0.1765 -1.4247
  131OSM   C11F14145   0.257   1.312   7.830 -0.0044 -0.2171  0.3289
  131OSM   H11F14146   0.228   1.408   7.782  0.8601 -0.9611 -1.7427
  131OSM   H11G14147   0.354   1.333   7.880  0.0927  1.0697 -0.4018
  131OSM   C12F14148   0.164   1.276   7.950  0.3352 -0.9262  0.3272
  131OSM   H12F14149   0.073   1.217   7.923  0.5117 -1.0343 -0.0391
  131OSM   H12G14150   0.142   1.373   7.998  0.1008 -0.2634 -1.1062
  131OSM   C13F14151   0.240   1.181   8.050  0.5078 -0.0721 -0.5081
  131OSM   H13F14152   0.321   1.249   8.083 -1.7393  1.5512  1.8441
  131OSM   H13G14153   0.290   1.099   7.994  1.1535 -1.6473  2.3062
  131OSM   C14F14154   0.155   1.129   8.168  0.3395 -0.1390  0.7359
  131OSM   H14F14155   0.211   1.047   8.218 -0.8043 -0.6917  1.1311
  131OSM   H14G14156   0.067   1.090   8.114 -0.8075 -0.7573  2.9581
  131OSM   C15F14157   0.107   1.237   8.256 -0.2264 -0.7209  0.0684
  131OSM   H15F14158   0.059   1.323   8.205  0.6071 -0.7097 -0.7208
  131OSM   H15G14159   0.189   1.283   8.316  0.3609 -1.8310  0.1330
  131OSM   C16F14160   0.011   1.177   8.358  0.5487 -0.5285 -0.2357
  131OSM   H16F14161   0.061   1.104   8.425  3.0602 -0.4986 -1.9983
  131OSM   H16G14162  -0.069   1.133   8.295 -0.5163 -3.1300  2.8143
  131OSM   C17F14163  -0.058   1.286   8.447  0.0618  0.0414 -0.5798
  131OSM   H17F14164  -0.023   1.390   8.430 -2.0078  1.6416  4.1133
  131OSM   H17G14165  -0.037   1.272   8.555  0.2767 -0.2678 -0.6596
  131OSM   C18F14166  -0.207   1.275   8.422  0.2003 -0.0365 -0.4256
  131OSM   H18F14167  -0.266   1.319   8.504  1.6438  1.8552 -0.3836
  131OSM   H18G14168  -0.239   1.168   8.422  1.9519 -0.6011 -1.8151
  131OSM   H18H14169  -0.247   1.337   8.339 -1.2096 -0.2967  0.0530
  132OSM      N14170   1.085   5.272   5.991  0.5700  0.1344  0.1279
  132OSM    C1514171   1.236   5.255   6.000 -0.4046 -0.1129 -0.1047
  132OSM   H15A14172   1.269   5.302   6.091 -0.9161  0.6183 -0.2976
  132OSM   H15B14173   1.282   5.296   5.910  1.1015  3.2757  2.0899
  132OSM   H15C14174   1.266   5.153   6.019  0.6718 -0.1031 -1.5939
  132OSM    C1414175   1.054   5.405   5.930  0.1047 -0.3917 -0.6500
  132OSM   H14A14176   0.952   5.436   5.951  0.9024  0.7373  1.6438
  132OSM   H14B14177   1.056   5.393   5.822 -0.9784 -2.1983 -0.4892
  132OSM   H14C14178   1.113   5.484   5.973  3.0029 -2.6024 -0.4579
  132OSM    C1314179   1.026   5.168   5.900  0.1486  0.1731  0.5880
  132OSM   H13A14180   1.078   5.174   5.805  0.9812 -2.4949  0.8512
  132OSM   H13B14181   0.918   5.174   5.890  0.0951  0.7608  1.5336
  132OSM   H13C14182   1.045   5.072   5.945  0.7422 -0.3740 -0.7893
  132OSM    C1214183   1.021   5.257   6.130 -0.6316 -0.3090 -0.0034
  132OSM   H12A14184   1.043   5.158   6.168 -2.3560 -1.2454 -1.3701
  132OSM   H12B14185   0.914   5.273   6.125 -0.8421 -1.5000  0.4371
  132OSM    C1114186   1.072   5.352   6.237  0.4466  0.4239 -0.1273
  132OSM   H11A14187   1.010   5.340   6.329 -0.0147 -0.3098 -0.5311
  132OSM   H11B14188   1.051   5.454   6.198 -0.0879  0.3708  0.0131
  132OSM      P14189   1.289   5.451   6.330  0.6765 -0.0005 -0.2552
  132OSM    O1314190   1.435   5.423   6.320 -0.1278  0.1888  0.4590
  132OSM    O1414191   1.250   5.583   6.275 -0.0166  0.4608 -0.1119
  132OSM    O1114192   1.244   5.447   6.488 -0.6171 -0.1724 -0.6470
  132OSM    O1214193   1.208   5.329   6.269 -0.2148 -0.3823 -0.3332
  132OSM    C1S14194   1.256   5.322   6.560  0.0254 -0.0737 -0.0277
  132OSM    H1S14195   1.343   5.269   6.514 -1.7780 -1.0550 -2.3730
  132OSM    H1T14196   1.168   5.256   6.543 -0.3200  0.1909  0.7093
  132OSM     NF14197   1.310   5.224   6.786 -0.2479  0.4652  0.0146
  132OSM    HNF14198   1.266   5.190   6.868 -0.4182  0.4666 -0.0760
  132OSM    C2S14199   1.259   5.349   6.712 -0.1100  0.3266 -0.2230
  132OSM    H2S14200   1.335   5.428   6.726 -0.1582  1.0790 -3.7338
  132OSM    C3S14201   1.125   5.414   6.765  0.5256 -0.5044 -0.4109
  132OSM    H3S14202   1.048   5.335   6.780  0.4402 -0.6719 -1.6494
  132OSM     O314203   1.061   5.503   6.672 -0.2044 -0.4917  0.3745
  132OSM    HO314204   1.116   5.495   6.594  0.1341  2.5999  0.2277
  132OSM    C4S14205   1.152   5.482   6.895  0.2150  0.3325  0.0693
  132OSM    H4S14206   1.132   5.422   6.985  1.2899  0.2094  0.2398
  132OSM    C5S14207   1.202   5.600   6.927  0.0261 -0.1003  0.2383
  132OSM    H5S14208   1.235   5.665   6.845 -0.5216 -1.7417 -1.3146
  132OSM    C6S14209   1.214   5.643   7.070  0.7129 -0.2688 -0.4516
  132OSM    H6S14210   1.204   5.754   7.072 -1.5451 -0.4555 -0.2745
  132OSM    H6T14211   1.318   5.620   7.102  1.1372 -1.3763 -2.5420
  132OSM    C7S14212   1.118   5.573   7.174  0.2866 -0.0925 -0.1229
  132OSM    H7S14213   1.159   5.480   7.218  0.8772 -0.9166 -2.3195
  132OSM    H7T14214   1.011   5.547   7.156 -0.0027  0.8135  0.2369
  132OSM    C8S14215   1.100   5.673   7.291  0.4227  0.8997 -0.1494
  132OSM    H8S14216   1.052   5.767   7.256 -2.4749  0.5879  2.6743
  132OSM    H8T14217   1.199   5.710   7.323 -0.8564  2.7274  1.8369
  132OSM    C9S14218   1.027   5.606   7.417 -0.0758  0.3461 -0.2724
  132OSM    H9S14219   1.087   5.514   7.436  1.4783  1.0742 -1.5516
  132OSM    H9T14220   0.933   5.565   7.375 -2.1135  2.9864  1.5308
  132OSM   C10S14221   1.013   5.703   7.536 -0.2018  0.6576 -0.3911
  132OSM   H10S14222   1.046   5.800   7.492 -0.6338 -0.5311 -3.3944
  132OSM   H10T14223   1.097   5.697   7.609 -2.3111  0.5532  2.0852
  132OSM   C11S14224   0.868   5.716   7.582  0.1203 -0.5555  0.2590
  132OSM   H11S14225   0.838   5.621   7.632 -0.5355  0.0487  1.0321
  132OSM   H11T14226   0.811   5.716   7.487 -0.2508 -0.6177  0.4798
  132OSM   C12S14227   0.831   5.835   7.672  0.1493 -0.4529 -0.2014
  132OSM   H12S14228   0.721   5.836   7.656 -0.1973  0.2982  2.0424
  132OSM   H12T14229   0.878   5.932   7.647 -0.7580  0.8953  2.9947
  132OSM   C13S14230   0.871   5.798   7.818  0.7031  0.2001 -0.6070
  132OSM   H13S14231   0.975   5.763   7.834  1.1505  1.6584 -0.2225
  132OSM   H13T14232   0.808   5.713   7.852 -0.0737  1.2711  0.6690
  132OSM   C14S14233   0.834   5.927   7.896  0.9333 -0.2630  0.8242
  132OSM   H14S14234   0.735   5.958   7.858  1.2674  0.8967  0.8949
  132OSM   H14T14235   0.905   6.008   7.871 -1.5093  1.9309  0.8567
  132OSM   C15S14236   0.824   5.896   8.045 -0.3633  0.4567 -0.2045
  132OSM   H15S14237   0.927   5.868   8.077 -1.0403 -0.7482  0.9682
  132OSM   H15T14238   0.754   5.816   8.077  1.2542 -0.3043  1.5157
  132OSM   C16S14239   0.767   6.018   8.126 -0.8140  0.0791 -0.3144
  132OSM   H16S14240   0.823   6.108   8.094  1.9754 -1.1692  0.8214
  132OSM   H16T14241   0.790   6.011   8.235 -0.1815 -0.1145 -0.4603
  132OSM   C17S14242   0.616   6.043   8.096 -0.2002 -1.0897  0.2440
  132OSM   H17S14243   0.565   5.945   8.088 -1.6320 -0.3033 -0.5000
  132OSM   H17T14244   0.619   6.103   8.002  1.4574 -1.8323 -0.1974
  132OSM   C18S14245   0.555   6.135   8.204 -0.5858 -0.1317  0.4241
  132OSM   H18S14246   0.612   6.230   8.205 -1.4177  0.3701  1.8832
  132OSM   H18T14247   0.578   6.091   8.303  1.2265 -2.6555 -1.0686
  132OSM   H18U14248   0.447   6.161   8.194 -0.1606  1.6008  0.2069
  132OSM    C1F14249   1.428   5.163   6.753 -0.2362 -0.9710 -0.1249
  132OSM     OF14250   1.513   5.216   6.684  0.6489 -0.0690  0.5068
  132OSM    C2F14251   1.450   5.026   6.810 -0.6098 -0.4328  0.5126
  132OSM    H2F14252   1.356   4.979   6.846  0.0028 -1.1596  1.1700
  132OSM    H2G14253   1.512   5.044   6.900 -2.4802  0.7561  1.5898
  132OSM    C3F14254   1.528   4.926   6.722 -0.0393  0.2256 -0.1591
  132OSM    H3F14255   1.625   4.966   6.689 -0.1999  0.4853 -0.3168
  132OSM    H3G14256   1.471   4.909   6.628  1.5170 -1.7463 -0.7815
  132OSM    C4F14257   1.562   4.794   6.804 -0.9936 -0.3118 -0.3749
  132OSM    H4F14258   1.548   4.714   6.729  2.3158  1.0407 -2.5269
  132OSM    H4G14259   1.499   4.780   6.894 -0.8873 -0.7829 -0.3749
  132OSM    C5F14260   1.708   4.795   6.860 -0.9055 -0.1782 -0.4744
  132OSM    H5F14261   1.730   4.880   6.929 -1.2231 -0.1038 -0.4636
  132OSM    H5G14262   1.773   4.808   6.771 -0.5368  1.8785  0.0624
  132OSM    C6F14263   1.747   4.652   6.919  0.0377 -0.7379  0.4128
  132OSM    H6F14264   1.857   4.649   6.934  0.0088  0.2116  0.8613
  132OSM    H6G14265   1.725   4.579   6.838 -0.5806 -2.1949  1.8663
  132OSM    C7F14266   1.663   4.629   7.050  0.4885 -0.1743 -0.2675
  132OSM    H7F14267   1.675   4.524   7.082 -1.5250 -0.0347  1.0763
  132OSM    H7G14268   1.555   4.645   7.026  0.7531 -0.1168 -1.4641
  132OSM    C8F14269   1.698   4.723   7.168  0.3775 -0.9863 -0.3671
  132OSM    H8F14270   1.621   4.723   7.248  3.7931 -0.1238  3.1014
  132OSM    H8G14271   1.706   4.828   7.132 -0.7073 -0.5769  0.5600
  132OSM    C9F14272   1.832   4.697   7.228  0.4717 -0.3464 -0.3468
  132OSM    H9F14273   1.906   4.711   7.148 -0.6789 -0.8245 -1.5145
  132OSM   C10F14274   1.863   4.695   7.361  0.3289  0.3066  0.0963
  132OSM   H10F14275   1.965   4.675   7.398 -0.8411 -1.1396  2.6640
  132OSM   C11F14276   1.761   4.706   7.474  0.1207 -0.3722 -0.3882
  132OSM   H11F14277   1.695   4.616   7.477 -0.9012  0.4062  1.1567
  132OSM   H11G14278   1.695   4.792   7.452 -0.4834  0.1366  3.0958
  132OSM   C12F14279   1.822   4.748   7.615 -0.5028  0.0445  0.7586
  132OSM   H12F14280   1.852   4.855   7.622 -1.5197  0.3577  0.4500
  132OSM   H12G14281   1.911   4.686   7.637  0.2149  0.6124 -0.4604
  132OSM   C13F14282   1.724   4.725   7.734 -0.0115  0.7740  0.6058
  132OSM   H13F14283   1.680   4.623   7.722  0.9663  0.5201 -1.0835
  132OSM   H13G14284   1.637   4.793   7.727 -0.7746 -0.1760  0.6824
  132OSM   C14F14285   1.791   4.731   7.874 -0.3306  0.4240 -0.0824
  132OSM   H14F14286   1.835   4.832   7.890  0.3842 -0.0649  1.1216
  132OSM   H14G14287   1.869   4.652   7.876 -1.3014 -0.6014 -1.9255
  132OSM   C15F14288   1.694   4.710   7.993 -0.3008  0.2002 -0.1551
  132OSM   H15F14289   1.745   4.689   8.090 -1.1504 -0.8726  0.0797
  132OSM   H15G14290   1.637   4.616   7.975 -0.2891 -0.0556  1.0834
  132OSM   C16F14291   1.592   4.824   7.999 -0.0919 -0.0067 -0.5172
  132OSM   H16F14292   1.512   4.793   8.070 -0.1071  0.8619 -0.1576
  132OSM   H16G14293   1.552   4.847   7.898 -0.2839 -2.1950 -0.9743
  132OSM   C17F14294   1.633   4.958   8.069  0.3142 -0.1678 -0.2564
  132OSM   H17F14295   1.554   5.033   8.047  0.1619 -0.8403 -2.1219
  132OSM   H17G14296   1.735   4.991   8.038 -0.0241  1.8408  0.6868
  132OSM   C18F14297   1.635   4.943   8.218  0.7667 -0.2164  1.3993
  132OSM   H18F14298   1.712   4.871   8.255  0.9699 -0.4130  0.5996
  132OSM   H18G14299   1.536   4.905   8.250 -0.5611  0.6306 -1.5147
  132OSM   H18H14300   1.658   5.033   8.278 -0.3380  0.6347  0.5529
  133SAPE     N14301   3.011   2.807  10.905 -0.3354 -0.4798 -0.0991
  133SAPE   HN114302   2.912   2.800  10.875  0.5564 -0.5150 -3.2552
  133SAPE   HN214303   3.036   2.722  10.961  1.4930 -0.3867 -0.7411
  133SAPE   HN314304   3.025   2.889  10.967 -2.2474 -0.4214  0.3011
  133SAPE   C1214305   3.101   2.829  10.783 -0.6769  0.0571 -0.5133
  133SAPE  H12A14306   3.209   2.839  10.808 -0.3528 -1.0628 -1.4452
  133SAPE  H12B14307   3.058   2.921  10.739  1.6728  0.6535 -1.6062
  133SAPE   C1114308   3.079   2.719  10.678  0.3239  0.2202 -0.4208
  133SAPE  H11A14309   3.149   2.756  10.601  0.8891  0.5914  0.2640
  133SAPE  H11B14310   2.979   2.740  10.633  0.0026 -3.1363 -1.3778
  133SAPE     P14311   3.248   2.539  10.752  0.1683  0.2603 -0.2306
  133SAPE   O1314312   3.310   2.617  10.860  0.3526 -0.3185  0.3344
  133SAPE   O1414313   3.244   2.393  10.765 -0.0484  0.3361  0.2963
  133SAPE   O1214314   3.096   2.582  10.734  0.2877 -0.1619  0.1920
  133SAPE   O1114315   3.310   2.568  10.612  0.5174 -0.2009  1.5222
  133SAPE    C114316   3.252   2.515  10.487 -0.4950  0.0734 -0.4098
  133SAPE    HA14317   3.247   2.404  10.496 -1.7801  0.1980  0.5320
  133SAPE    HB14318   3.144   2.532  10.471 -0.5159 -0.9114 -1.3552
  133SAPE    C214319   3.350   2.550  10.373  0.5259  0.0642  0.1588
  133SAPE    HS14320   3.447   2.581  10.419  0.4932 -0.9264  0.9198
  133SAPE   O2114321   3.301   2.667  10.315 -0.6384 -0.2665  0.3141
  133SAPE   C2114322   3.377   2.764  10.256 -0.3725  0.6234 -0.3262
  133SAPE   O2214323   3.497   2.767  10.251  0.4648  0.3446  0.0440
  133SAPE   C2214324   3.284   2.876  10.205 -0.3598 -0.2420  0.7479
  133SAPE   H2R14325   3.181   2.833  10.198  0.3725 -1.6712 -1.9208
  133SAPE   H2S14326   3.299   2.962  10.273  0.5574  0.0904  0.1331
  133SAPE    C314327   3.377   2.439  10.268  0.0029 -0.4817 -0.5638
  133SAPE    HX14328   3.278   2.407  10.230  0.1364 -0.3693 -1.0216
  133SAPE    HY14329   3.419   2.349  10.318  1.0368  0.6813  0.7087
  133SAPE   O3114330   3.451   2.489  10.155  0.0771 -0.4652 -0.7955
  133SAPE   C3114331   3.581   2.477  10.179  0.6708  0.5083  0.1547
  133SAPE   O3214332   3.629   2.418  10.274  0.0404 -0.0815  0.4553
  133SAPE   C3214333   3.665   2.545  10.076  0.3614  0.0621  0.0497
  133SAPE   H2X14334   3.754   2.595  10.119  0.2218 -0.7259  1.2570
  133SAPE   H2Y14335   3.620   2.637  10.032 -0.3987 -1.5222 -2.6585
  133SAPE   C2314336   3.335   2.924  10.059  0.8637 -0.2569 -0.2509
  133SAPE   H3R14337   3.326   2.838   9.990 -2.9688  1.7390 -2.4388
  133SAPE   H3S14338   3.444   2.942  10.060  0.7646  0.3550  0.9804
  133SAPE   C2414339   3.257   3.032   9.985 -0.5087 -0.8901  0.1595
  133SAPE   H4R14340   3.154   3.004   9.952 -0.9810 -0.8538  1.5364
  133SAPE   H4S14341   3.309   3.043   9.888 -0.9825  1.9136  0.1925
  133SAPE   C2514342   3.252   3.156  10.059  0.5414  0.2973 -0.5278
  133SAPE   H5R14343   3.187   3.159  10.148  0.0438  0.1536 -0.8853
  133SAPE   C2614344   3.307   3.276  10.029  0.0693 -0.1918 -0.4172
  133SAPE   H6R14345   3.275   3.364  10.088  1.4314 -0.6942  1.1102
  133SAPE   C2714346   3.394   3.314   9.915 -0.0942 -0.7240 -0.4129
  133SAPE   H7R14347   3.477   3.373   9.960 -1.1276  0.6600 -0.3040
  133SAPE   H7S14348   3.343   3.382   9.844 -0.1060 -2.1476 -1.8176
  133SAPE   C2814349   3.474   3.210   9.835  0.6166  0.9327  0.2206
  133SAPE   H8R14350   3.513   3.131   9.901 -0.4408  1.2034  1.1779
  133SAPE   C2914351   3.495   3.203   9.701 -0.1035  0.0608  0.7333
  133SAPE   H9R14352   3.567   3.133   9.654  0.6337  1.9104 -0.9618
  133SAPE  C21014353   3.430   3.289   9.594 -0.2910  0.1106 -0.2103
  133SAPE  H10R14354   3.499   3.375   9.582  0.7698 -0.7030 -0.0236
  133SAPE  H10S14355   3.334   3.326   9.638 -1.1227 -0.5847 -1.4304
  133SAPE  C21114356   3.407   3.224   9.461  0.2590 -0.1918 -0.1599
  133SAPE  H11R14357   3.301   3.196   9.449  0.6120 -0.9414 -1.6102
  133SAPE  C21214358   3.489   3.219   9.362  1.1926 -0.1819 -0.7055
  133SAPE  H12R14359   3.453   3.176   9.267 -0.6393 -0.9077  0.2902
  133SAPE  C21314360   3.629   3.285   9.354  0.2674 -0.2024  0.8035
  133SAPE  H13R14361   3.708   3.212   9.324  0.6353 -0.4085  2.2485
  133SAPE  H13S14362   3.655   3.336   9.449  0.7913  0.1826  0.4616
  133SAPE  C21414363   3.621   3.407   9.261 -0.4819 -0.4960 -0.6027
  133SAPE  H14R14364   3.532   3.471   9.275  0.3994  0.8374 -0.9200
  133SAPE  C21514365   3.692   3.444   9.152 -0.4726  0.2043  0.7067
  133SAPE  H15R14366   3.669   3.532   9.090  1.7871  0.5844  0.3372
  133SAPE  C21614367   3.806   3.360   9.091 -0.3593  0.8058  0.3793
  133SAPE  H16R14368   3.844   3.278   9.155  0.8525 -1.8121 -3.4779
  133SAPE  H16S14369   3.888   3.421   9.049  1.2784 -0.6791  1.3527
  133SAPE  C21714370   3.754   3.268   8.975 -0.3188  0.2774  1.4014
  133SAPE  H17R14371   3.713   3.327   8.890  2.0874 -0.8718 -0.6093
  133SAPE  H17S14372   3.682   3.192   9.011 -0.7936 -0.2549 -0.6206
  133SAPE  C21814373   3.863   3.172   8.917  0.4468  0.2953  0.0251
  133SAPE  H18R14374   3.895   3.104   8.998 -1.8103  1.0613  1.6352
  133SAPE  H18S14375   3.954   3.225   8.883  1.6075 -2.5622 -1.5054
  133SAPE  C21914376   3.802   3.079   8.820  0.1262 -0.1203 -0.3166
  133SAPE  H19R14377   3.797   3.124   8.719 -1.4993 -0.2509 -0.3104
  133SAPE  H19S14378   3.696   3.056   8.848  0.2284 -1.3741 -0.9277
  133SAPE  C22014379   3.868   2.938   8.808  0.2046  0.5649  0.2112
  133SAPE  H20R14380   3.854   2.902   8.704  0.8465  2.7724 -0.6683
  133SAPE  H20S14381   3.813   2.877   8.882 -3.1200  4.0296  0.7102
  133SAPE  H20T14382   3.977   2.945   8.831  0.5843  0.0914 -1.3709
  133SAPE   C3314383   3.721   2.444   9.973  0.4913 -0.2617 -0.1739
  133SAPE   H3X14384   3.722   2.340  10.014  2.2687 -0.4321 -0.6244
  133SAPE   H3Y14385   3.825   2.467   9.944 -0.1386  1.2904 -1.2580
  133SAPE   C3414386   3.641   2.439   9.840 -0.1821 -0.5398  0.6860
  133SAPE   H4X14387   3.534   2.428   9.869 -0.6346 -0.0621 -0.7813
  133SAPE   H4Y14388   3.667   2.347   9.783 -2.0106 -0.8065  0.2588
  133SAPE   C3514389   3.644   2.565   9.749  0.4795 -0.5493 -0.6339
  133SAPE   H5X14390   3.604   2.649   9.810  3.6570  0.9695 -0.5448
  133SAPE   H5Y14391   3.587   2.533   9.659  0.2983 -0.4889 -0.5405
  133SAPE   C3614392   3.784   2.601   9.695  0.4517 -0.2053  0.0177
  133SAPE   H6X14393   3.840   2.629   9.786 -0.8209 -4.3458  2.1901
  133SAPE   H6Y14394   3.778   2.687   9.624  1.3142 -0.7437 -0.7218
  133SAPE   C3714395   3.865   2.491   9.628 -0.1543 -0.0660  0.1830
  133SAPE   H7X14396   3.802   2.451   9.546  0.9845 -1.9249  0.1895
  133SAPE   H7Y14397   3.886   2.411   9.702  0.7921  1.2983  1.4383
  133SAPE   C3814398   3.997   2.544   9.575  0.9579  0.0540 -0.6899
  133SAPE   H8X14399   4.066   2.575   9.656  1.1071  1.4813 -1.3509
  133SAPE   H8Y14400   3.984   2.637   9.516  0.6762  0.5929  0.2141
  133SAPE   C3914401   4.078   2.434   9.499  0.5209  0.3253  0.2160
  133SAPE   H9X14402   4.014   2.409   9.412  0.1620  4.0991 -0.7168
  133SAPE   H9Y14403   4.089   2.339   9.555  0.0431  0.3327  0.3294
  133SAPE  C31014404   4.220   2.484   9.462  0.2158 -0.3230  0.0996
  133SAPE  H10X14405   4.238   2.579   9.516  2.1309 -1.4662  1.5371
  133SAPE  H10Y14406   4.237   2.509   9.355  1.6854  0.2131  0.4506
  133SAPE  C31114407   4.337   2.391   9.502  0.1161  0.1318  0.1232
  133SAPE  H11X14408   4.343   2.315   9.422  0.8448 -1.1101  1.3328
  133SAPE  H11Y14409   4.314   2.334   9.595  0.3771  1.2594  0.8941
  133SAPE  C31214410   4.465   2.465   9.498  0.0080 -0.5580  0.0329
  133SAPE  H12X14411   4.540   2.413   9.561  0.5259  0.9012  0.6460
  133SAPE  H12Y14412   4.449   2.562   9.550  1.0694 -1.6288  2.4286
  133SAPE  C31314413   4.522   2.484   9.352 -0.7096 -0.6942 -0.6310
  133SAPE  H13X14414   4.456   2.554   9.296 -1.6077 -1.6253 -0.7730
  133SAPE  H13Y14415   4.501   2.384   9.307 -0.6197 -0.3385 -1.4638
  133SAPE  C31414416   4.665   2.541   9.341 -0.1398 -1.0093  0.4729
  133SAPE  H14X14417   4.741   2.469   9.379  0.9883 -0.9900 -1.6656
  133SAPE  H14Y14418   4.666   2.639   9.393 -1.7701 -2.3093  3.0915
  133SAPE  C31514419   4.709   2.574   9.192 -0.3315  0.8811 -0.0576
  133SAPE  H15X14420   4.772   2.665   9.190  0.0666  0.5935 -0.7983
  133SAPE  H15Y14421   4.621   2.617   9.139 -1.9180 -2.8617 -0.6087
  133SAPE  C31614422   4.759   2.449   9.118 -1.1351 -0.0201 -0.5852
  133SAPE  H16X14423   4.685   2.365   9.123 -1.3247  0.2949  2.8669
  133SAPE  H16Y14424   4.846   2.408   9.173 -0.5786  1.8078 -0.0834
  133SAPE  C31714425   4.795   2.472   8.971 -0.3626 -0.4747  0.2265
  133SAPE  H17X14426   4.702   2.483   8.910 -0.5940 -1.9970  0.2711
  133SAPE  H17Y14427   4.848   2.390   8.918 -1.3919  0.7392 -2.8367
  133SAPE  C31814428   4.876   2.600   8.937 -0.3412  0.5583  0.8014
  133SAPE  H18X14429   4.979   2.600   8.980  1.8962  0.2090 -4.2616
  133SAPE  H18Y14430   4.824   2.694   8.967  0.4346  1.3874 -0.4440
  133SAPE  H18Z14431   4.883   2.605   8.827 -2.8820 -0.2342  0.5652
  134SAPE     N14432   5.767   3.751  10.651 -0.1744  0.1393  0.9395
  134SAPE   HN114433   5.682   3.763  10.710 -0.5147  1.2916  0.2257
  134SAPE   HN214434   5.723   3.716  10.564 -0.9829  1.7055  0.6970
  134SAPE   HN314435   5.830   3.680  10.694 -0.7213 -1.1970 -0.4398
  134SAPE   C1214436   5.831   3.880  10.603 -0.6470  0.1688  0.7125
  134SAPE  H12A14437   5.840   3.959  10.680  3.9948  1.7832 -1.2948
  134SAPE  H12B14438   5.758   3.919  10.530  0.2903  0.5113 -0.0543
  134SAPE   C1114439   5.975   3.866  10.545  0.5038  0.3082  0.4318
  134SAPE  H11A14440   6.005   3.957  10.489  1.0572 -0.4334 -0.4811
  134SAPE  H11B14441   5.972   3.785  10.469  0.8136  0.3516  0.3742
  134SAPE     P14442   6.113   3.696  10.677  0.0325  0.0933 -0.0593
  134SAPE   O1314443   6.217   3.702  10.783  0.5796 -0.3301  0.4515
  134SAPE   O1414444   5.996   3.603  10.694  0.0578 -0.0772  0.5097
  134SAPE   O1214445   6.066   3.841  10.649  0.3531  0.0190 -0.3299
  134SAPE   O1114446   6.194   3.659  10.544  0.6803  0.8982 -0.2845
  134SAPE    C114447   6.312   3.748  10.530  0.1074  0.0127 -0.6003
  134SAPE    HA14448   6.276   3.853  10.532  0.5235  0.1537  2.4020
  134SAPE    HB14449   6.389   3.744  10.611  1.7074 -2.8212 -2.1717
  134SAPE    C214450   6.379   3.722  10.391  0.1372  1.1020  0.3001
  134SAPE    HS14451   6.437   3.809  10.355  1.4943 -0.8098 -2.3154
  134SAPE   O2114452   6.284   3.680  10.290 -0.7515 -0.4279  0.3454
  134SAPE   C2114453   6.203   3.775  10.252 -0.1748 -0.2487 -0.7524
  134SAPE   O2214454   6.204   3.892  10.290  0.8893  0.2433  0.0837
  134SAPE   C2214455   6.097   3.722  10.155  0.3242  0.1014  0.1913
  134SAPE   H2R14456   6.081   3.618  10.192  0.2087  0.1603  0.3052
  134SAPE   H2S14457   6.008   3.785  10.176  0.4415  0.1615  0.5114
  134SAPE    C314458   6.481   3.603  10.405 -0.1242  0.0358  0.1672
  134SAPE    HX14459   6.427   3.515  10.446 -1.6894  1.5489  1.4136
  134SAPE    HY14460   6.552   3.632  10.487 -1.2747  2.2148  0.4399
  134SAPE   O3114461   6.555   3.579  10.281  0.8113  0.2275 -0.3751
  134SAPE   C3114462   6.651   3.666  10.246 -0.1775  0.0550 -0.9599
  134SAPE   O3214463   6.683   3.757  10.318  0.3367 -0.5494  0.4657
  134SAPE   C3214464   6.716   3.621  10.116 -0.2630 -0.2152 -0.0036
  134SAPE   H2X14465   6.788   3.541  10.141  0.7748  1.1946  1.5663
  134SAPE   H2Y14466   6.785   3.700  10.080  1.1575 -1.0953  0.7492
  134SAPE   C2314467   6.138   3.708  10.004 -0.4124  0.2654 -0.2577
  134SAPE   H3R14468   6.166   3.810   9.971 -0.9372  1.0182  1.5687
  134SAPE   H3S14469   6.044   3.676   9.955 -1.7815 -0.3141  2.6601
  134SAPE   C2414470   6.252   3.613   9.973 -0.8388 -0.4586 -0.2741
  134SAPE   H4R14471   6.335   3.642  10.041 -2.1457  0.6933  0.8616
  134SAPE   H4S14472   6.301   3.636   9.876 -1.4966  1.5376 -0.1741
  134SAPE   C2514473   6.229   3.465   9.996  0.1193 -0.6414  0.1846
  134SAPE   H5R14474   6.192   3.442  10.097  0.8156 -2.4933  0.0421
  134SAPE   C2614475   6.249   3.368   9.902  0.3079 -0.5830 -0.0175
  134SAPE   H6R14476   6.200   3.272   9.924  0.9191 -1.3682 -1.9793
  134SAPE   C2714477   6.293   3.399   9.761 -0.2666  0.0190  0.3371
  134SAPE   H7R14478   6.380   3.467   9.773 -0.2038  0.0361 -0.1901
  134SAPE   H7S14479   6.211   3.459   9.718  0.3449  0.5752 -0.0653
  134SAPE   C2814480   6.338   3.277   9.683 -0.2419 -0.2256 -0.3349
  134SAPE   H8R14481   6.408   3.221   9.747 -0.4255  0.3365  0.3621
  134SAPE   C2914482   6.314   3.255   9.547  0.0576 -0.0416 -0.0006
  134SAPE   H9R14483   6.360   3.168   9.497 -0.7373 -0.7981  0.5694
  134SAPE  C21014484   6.226   3.330   9.450 -0.0002  0.2063 -1.0658
  134SAPE  H10R14485   6.143   3.391   9.491 -0.2715  0.1573 -1.5379
  134SAPE  H10S14486   6.176   3.251   9.390 -0.0868 -0.2417 -0.4074
  134SAPE  C21114487   6.311   3.417   9.360 -0.3341 -0.1340 -0.4096
  134SAPE  H11R14488   6.359   3.502   9.412 -0.2179 -1.3216  1.4628
  134SAPE  C21214489   6.339   3.397   9.234 -0.2168 -0.5936 -0.2246
  134SAPE  H12R14490   6.393   3.476   9.179 -1.1575  0.9335  0.9764
  134SAPE  C21314491   6.289   3.286   9.146 -0.0250 -0.2274  0.8661
  134SAPE  H13R14492   6.188   3.310   9.105  0.0976  0.3638  0.9111
  134SAPE  H13S14493   6.284   3.189   9.199 -1.5930 -1.2916 -1.1307
  134SAPE  C21414494   6.377   3.271   9.028  0.0077  0.2957 -0.2823
  134SAPE  H14R14495   6.472   3.326   9.027 -0.5997  1.3904  0.5212
  134SAPE  C21514496   6.337   3.210   8.916 -0.7646 -0.3473 -0.1145
  134SAPE  H15R14497   6.411   3.186   8.838 -1.3817 -2.4386 -0.0989
  134SAPE  C21614498   6.207   3.139   8.893  0.1677  0.0717  0.2564
  134SAPE  H16R14499   6.151   3.122   8.988 -1.2297  0.8472 -0.4147
  134SAPE  H16S14500   6.227   3.042   8.842 -2.9494 -0.5810  0.1227
  134SAPE  C21714501   6.119   3.218   8.794 -0.1019 -0.3494 -0.2221
  134SAPE  H17R14502   6.021   3.166   8.800  0.3388 -1.2988 -1.0645
  134SAPE  H17S14503   6.148   3.203   8.688  0.4359  2.3206 -0.4706
  134SAPE  C21814504   6.094   3.365   8.828 -0.1503  0.2985 -0.0730
  134SAPE  H18R14505   6.187   3.420   8.799  0.8414 -1.1999  0.2215
  134SAPE  H18S14506   6.074   3.380   8.936 -1.7229  4.0188 -0.7937
  134SAPE  C21914507   5.981   3.432   8.741  0.4298 -0.6129  0.4269
  134SAPE  H19R14508   5.986   3.383   8.641  1.0798 -0.6424  0.4795
  134SAPE  H19S14509   6.004   3.538   8.719 -0.7074 -0.0270  1.9500
  134SAPE  C22014510   5.841   3.426   8.804  0.3074  0.7643  0.5404
  134SAPE  H20R14511   5.774   3.476   8.731 -0.8379  1.1564  1.8380
  134SAPE  H20S14512   5.854   3.475   8.903  1.6594 -0.3813  0.9367
  134SAPE  H20T14513   5.806   3.322   8.817 -0.1045  0.8406  0.0914
  134SAPE   C3314514   6.621   3.572   9.998  0.8147 -0.7751 -1.5245
  134SAPE   H3X14515   6.554   3.646   9.948  0.6076 -0.2913 -0.5281
  134SAPE   H3Y14516   6.552   3.500  10.047 -0.8563  2.2121  0.6999
  134SAPE   C3414517   6.712   3.513   9.892  0.1570 -0.4307 -0.6057
  134SAPE   H4X14518   6.784   3.439   9.935  2.0720  0.3425 -2.3869
  134SAPE   H4Y14519   6.775   3.597   9.857 -0.5387  0.3016 -0.1200
  134SAPE   C3514520   6.634   3.454   9.771  0.2525 -0.9383 -0.0672
  134SAPE   H5X14521   6.561   3.533   9.743 -1.5885 -2.6937 -0.2820
  134SAPE   H5Y14522   6.584   3.358   9.793 -1.1930 -0.4361 -1.1393
  134SAPE   C3614523   6.731   3.424   9.651  0.3213 -0.3273 -0.5578
  134SAPE   H6X14524   6.688   3.350   9.580 -0.2037 -1.1900  0.6482
  134SAPE   H6Y14525   6.826   3.384   9.692  1.5990  1.0114 -2.1120
  134SAPE   C3714526   6.773   3.542   9.569  0.2931  0.1703 -0.5429
  134SAPE   H7X14527   6.813   3.622   9.634 -1.2037  0.3356  0.1967
  134SAPE   H7Y14528   6.697   3.595   9.507 -0.9523 -1.5209 -0.5227
  134SAPE   C3814529   6.856   3.506   9.442 -0.4157  0.3057 -0.3858
  134SAPE   H8X14530   6.859   3.592   9.372 -0.6490  0.7517  0.1442
  134SAPE   H8Y14531   6.794   3.423   9.403 -1.6195  1.5116 -1.0876
  134SAPE   C3914532   6.997   3.443   9.472  0.7837 -0.1893  0.5847
  134SAPE   H9X14533   6.977   3.334   9.466 -1.2913  0.2430 -0.8942
  134SAPE   H9Y14534   7.021   3.467   9.578  1.9862  0.8349  0.0955
  134SAPE  C31014535   7.104   3.463   9.367  0.6507  0.5645 -0.2810
  134SAPE  H10X14536   7.196   3.410   9.397 -0.7459 -1.2859  0.8637
  134SAPE  H10Y14537   7.123   3.573   9.357  1.2029  0.4510 -0.4909
  134SAPE  C31114538   7.072   3.429   9.223  0.5857  0.7094 -0.1840
  134SAPE  H11X14539   6.988   3.488   9.181  0.6468  1.4993  0.7817
  134SAPE  H11Y14540   7.048   3.322   9.202  3.1019  0.5670 -2.7202
  134SAPE  C31214541   7.194   3.446   9.130 -0.5411  0.1933  0.2577
  134SAPE  H12X14542   7.207   3.366   9.054  0.5886 -0.3410  0.9940
  134SAPE  H12Y14543   7.281   3.435   9.199 -1.0846 -0.1697  0.8957
  134SAPE  C31314544   7.193   3.581   9.055  0.9910  0.6710 -0.4012
  134SAPE  H13X14545   7.192   3.657   9.136 -1.0015  0.4076 -0.1671
  134SAPE  H13Y14546   7.094   3.593   9.008  0.7469  0.5951  0.0895
  134SAPE  C31414547   7.309   3.598   8.962  0.1522 -0.5294  0.2273
  134SAPE  H14X14548   7.307   3.525   8.878  2.3942  0.9777 -1.1967
  134SAPE  H14Y14549   7.399   3.569   9.020  0.0001 -0.9295  0.2687
  134SAPE  C31514550   7.304   3.742   8.914 -0.2038  0.1758  1.1364
  134SAPE  H15X14551   7.312   3.815   8.997 -1.4203  2.2899 -0.5402
  134SAPE  H15Y14552   7.209   3.766   8.862 -0.2164 -0.2131  0.9752
  134SAPE  C31614553   7.419   3.778   8.823  0.2064 -0.1438 -0.1123
  134SAPE  H16X14554   7.382   3.854   8.751  2.0302  0.2233 -0.6916
  134SAPE  H16Y14555   7.450   3.688   8.765  0.9714  0.5393 -0.7771
  134SAPE  C31714556   7.540   3.837   8.901  0.3627 -0.2551  0.3694
  134SAPE  H17X14557   7.574   3.762   8.975  0.8020 -1.3798 -0.9476
  134SAPE  H17Y14558   7.514   3.932   8.952 -3.9279  0.3904 -2.6680
  134SAPE  C31814559   7.652   3.861   8.797  0.0045 -0.8881 -0.1074
  134SAPE  H18X14560   7.617   3.940   8.728  3.1824 -0.2290 -1.0184
  134SAPE  H18Y14561   7.672   3.769   8.737  1.5303 -1.2591  0.9409
  134SAPE  H18Z14562   7.750   3.896   8.836 -0.1141  1.1395 -1.5420
  135SAPE     N14563   5.733   2.132  10.959 -0.4148  0.0026 -0.3755
  135SAPE   HN114564   5.656   2.137  11.029  2.5865 -0.3876  3.0694
  135SAPE   HN214565   5.682   2.162  10.873 -3.0685  1.3978  1.5905
  135SAPE   HN314566   5.767   2.038  10.932 -1.3118 -0.9391  1.6836
  135SAPE   C1214567   5.854   2.218  10.988 -0.6127  0.1162 -0.4498
  135SAPE  H12A14568   5.918   2.172  11.067 -1.8600 -0.0336  0.4996
  135SAPE  H12B14569   5.818   2.315  11.027  0.0655  0.2229 -0.0708
  135SAPE   C1114570   5.940   2.239  10.866 -0.0143  0.1245  0.2145
  135SAPE  H11A14571   6.010   2.322  10.886  1.7858 -0.9626 -1.3177
  135SAPE  H11B14572   5.878   2.271  10.780 -1.9485 -4.0871 -0.1096
  135SAPE     P14573   6.046   2.070  10.696 -0.1373  0.1823  0.1511
  135SAPE   O1314574   6.177   2.007  10.719  0.2869 -0.5255  0.0527
  135SAPE   O1414575   5.929   1.993  10.655  0.3966  1.1619 -0.0458
  135SAPE   O1214576   6.022   2.120  10.839 -0.1251  0.1290 -0.5390
  135SAPE   O1114577   6.060   2.199  10.600 -0.4486  0.5724 -0.0963
  135SAPE    C114578   5.943   2.242  10.524 -0.4528 -0.5062  0.5340
  135SAPE    HA14579   5.855   2.177  10.540 -1.8416  1.3451  0.5055
  135SAPE    HB14580   5.912   2.343  10.558 -0.0871  0.2648 -1.3518
  135SAPE    C214581   5.977   2.232  10.375  0.4173 -0.3214 -0.5133
  135SAPE    HS14582   5.901   2.287  10.315  0.7024  1.6657  0.8752
  135SAPE   O2114583   5.977   2.094  10.341 -0.4829  0.1666 -0.0286
  135SAPE   C2114584   5.858   2.036  10.329 -0.5284  0.0426  0.6222
  135SAPE   O2214585   5.744   2.084  10.329 -0.2733  0.1567  0.0049
  135SAPE   C2214586   5.882   1.888  10.298 -0.0218  0.2148  1.3085
  135SAPE   H2R14587   5.950   1.832  10.365 -0.2989 -1.6897  0.0254
  135SAPE   H2S14588   5.779   1.846  10.301 -0.5209  1.2042 -0.7021
  135SAPE    C314589   6.115   2.289  10.338 -0.4425  0.5960  0.0896
  135SAPE    HX14590   6.186   2.219  10.387 -1.7722  0.0198  1.2211
  135SAPE    HY14591   6.138   2.393  10.370  2.0129 -0.3993  1.6824
  135SAPE   O3114592   6.128   2.271  10.191 -0.3032  0.3989  0.3577
  135SAPE   C3114593   6.076   2.369  10.125 -0.3974 -0.3631 -0.1956
  135SAPE   O3214594   6.014   2.468  10.168 -0.0864  0.3641 -0.1063
  135SAPE   C3214595   6.110   2.336   9.980  0.1189  1.0667 -0.3165
  135SAPE   H2X14596   6.219   2.329   9.961 -0.2282 -0.2443 -1.9926
  135SAPE   H2Y14597   6.074   2.425   9.924  1.1405 -0.0304 -2.8069
  135SAPE   C2314598   5.930   1.871  10.148  0.3480 -0.0658  0.2569
  135SAPE   H3R14599   6.031   1.914  10.128  0.6860 -0.5334  0.9390
  135SAPE   H3S14600   5.865   1.925  10.076  0.8421 -0.1241 -0.2422
  135SAPE   C2414601   5.938   1.719  10.113  0.0648  0.7536 -0.3625
  135SAPE   H4R14602   5.835   1.679  10.120  0.5118 -0.6709 -1.5671
  135SAPE   H4S14603   5.995   1.664  10.191 -0.4180 -0.1755 -0.6605
  135SAPE   C2514604   6.000   1.678   9.983  0.2821 -0.2067  0.7769
  135SAPE   H5R14605   6.108   1.699   9.977  0.1419  0.6797  1.1778
  135SAPE   C2614606   5.946   1.616   9.875  0.0317  0.0166 -0.4249
  135SAPE   H6R14607   6.016   1.586   9.796  0.1047 -0.5178 -0.1580
  135SAPE   C2714608   5.799   1.576   9.868 -0.1777 -0.2794  0.1139
  135SAPE   H7R14609   5.749   1.585   9.966  0.1354 -0.2007  0.2693
  135SAPE   H7S14610   5.787   1.469   9.843 -0.7911 -0.4360  1.0768
  135SAPE   C2814611   5.703   1.663   9.786  0.0207  0.3916 -0.2973
  135SAPE   H8R14612   5.661   1.755   9.828  0.4991  0.2301  0.5367
  135SAPE   C2914613   5.672   1.637   9.656  1.3088 -0.1676 -0.3132
  135SAPE   H9R14614   5.599   1.700   9.604  1.9765 -1.1691 -2.4826
  135SAPE  C21014615   5.725   1.520   9.578 -0.4574 -0.7203  0.9289
  135SAPE  H10R14616   5.641   1.455   9.544 -1.1601  1.7321 -2.2913
  135SAPE  H10S14617   5.796   1.458   9.636 -1.2308 -0.2410  2.4205
  135SAPE  C21114618   5.805   1.575   9.471 -0.9553 -0.3008 -0.1467
  135SAPE  H11R14619   5.905   1.598   9.510 -0.4385 -2.2270 -0.3022
  135SAPE  C21214620   5.789   1.565   9.336  0.2650  0.3422 -0.4865
  135SAPE  H12R14621   5.860   1.616   9.269  1.4831  0.2574  0.7041
  135SAPE  C21314622   5.667   1.520   9.260  0.1215 -0.3335  0.3336
  135SAPE  H13R14623   5.661   1.575   9.164 -0.7292  0.6242  0.9197
  135SAPE  H13S14624   5.571   1.547   9.310  0.0651 -1.6449  0.9405
  135SAPE  C21414625   5.648   1.362   9.254 -0.3991 -1.0132 -0.4895
  135SAPE  H14R14626   5.674   1.298   9.339 -0.1183 -0.6408 -0.2952
  135SAPE  C21514627   5.597   1.296   9.143 -0.1922  0.4018 -0.0704
  135SAPE  H15R14628   5.590   1.186   9.140 -4.0800  0.5688  0.9753
  135SAPE  C21614629   5.553   1.353   9.016  0.4928 -0.0873  0.4145
  135SAPE  H16R14630   5.599   1.294   8.935  0.1259  0.6165 -0.3105
  135SAPE  H16S14631   5.574   1.460   8.995  2.2392 -0.0152  2.3593
  135SAPE  C21714632   5.400   1.332   8.999  1.3141 -1.0685  0.4804
  135SAPE  H17R14633   5.342   1.343   9.092 -0.5406 -2.1915 -0.5147
  135SAPE  H17S14634   5.380   1.224   8.982  1.2149 -0.9288 -0.3411
  135SAPE  C21814635   5.345   1.422   8.885 -0.4406 -0.3497 -0.1162
  135SAPE  H18R14636   5.338   1.517   8.942 -2.5767 -0.2147 -0.5422
  135SAPE  H18S14637   5.238   1.401   8.864 -0.5419 -2.0451  2.0064
  135SAPE  C21914638   5.407   1.431   8.747 -0.0285 -0.4193 -0.0384
  135SAPE  H19R14639   5.434   1.327   8.718 -0.0974  0.4781 -3.5844
  135SAPE  H19S14640   5.505   1.483   8.739  0.3895 -1.2098 -0.2174
  135SAPE  C22014641   5.317   1.484   8.636 -0.1386 -0.2235 -0.5282
  135SAPE  H20R14642   5.255   1.402   8.594  1.8965 -0.4774 -3.1632
  135SAPE  H20S14643   5.368   1.515   8.542  1.9034 -2.9231 -0.3845
  135SAPE  H20T14644   5.252   1.562   8.680 -1.6573 -0.9900 -1.3764
  135SAPE   C3314645   6.032   2.215   9.936  0.7045 -0.0481  0.4436
  135SAPE   H3X14646   5.924   2.237   9.956  0.5525 -2.6570  2.8300
  135SAPE   H3Y14647   6.051   2.119   9.990  2.7063 -0.7656 -1.4632
  135SAPE   C3414648   6.050   2.194   9.789  0.1641  0.8703  0.7201
  135SAPE   H4X14649   6.155   2.164   9.769 -0.2136 -0.9345  1.3244
  135SAPE   H4Y14650   6.017   2.277   9.724 -0.4439 -1.8199 -2.5408
  135SAPE   C3514651   5.968   2.069   9.754 -0.0346  0.1341  0.2099
  135SAPE   H5X14652   5.864   2.108   9.753  0.5397  1.6863 -0.8721
  135SAPE   H5Y14653   5.986   1.979   9.817  1.5128 -0.5258 -1.1395
  135SAPE   C3614654   5.993   2.025   9.606 -0.2754  0.7127 -0.6243
  135SAPE   H6X14655   5.949   1.923   9.596  1.4463  0.0341 -1.5344
  135SAPE   H6Y14656   6.101   2.011   9.582  0.0817  3.7676 -1.0049
  135SAPE   C3714657   5.939   2.125   9.512 -0.4506 -0.1597 -0.4216
  135SAPE   H7X14658   5.974   2.229   9.527 -3.2599  1.2147 -2.7854
  135SAPE   H7Y14659   5.828   2.117   9.521 -0.3329 -0.7033  0.5996
  135SAPE   C3814660   5.971   2.087   9.371  0.2392 -0.9709 -0.2848
  135SAPE   H8X14661   5.951   1.979   9.355 -1.4516 -1.0027  1.9144
  135SAPE   H8Y14662   6.080   2.106   9.360 -0.0220  1.8735  1.7527
  135SAPE   C3914663   5.894   2.173   9.277  0.5770  0.3385 -0.1726
  135SAPE   H9X14664   5.909   2.280   9.302  0.3018  0.2738  0.2664
  135SAPE   H9Y14665   5.788   2.144   9.292  1.0840 -0.8729  1.1830
  135SAPE  C31014666   5.925   2.152   9.125 -0.1835 -0.1785  0.0250
  135SAPE  H10X14667   5.835   2.178   9.065 -0.8108 -0.8779  0.6462
  135SAPE  H10Y14668   5.930   2.041   9.117 -2.3164 -0.4692  1.9984
  135SAPE  C31114669   6.052   2.225   9.080  0.6272 -0.0921  0.5035
  135SAPE  H11X14670   6.129   2.183   9.148 -0.2371  0.0077  1.5780
  135SAPE  H11Y14671   6.037   2.330   9.114 -0.3856  0.2035 -0.8205
  135SAPE  C31214672   6.080   2.208   8.929 -0.3720 -0.1310  0.4552
  135SAPE  H12X14673   6.011   2.272   8.870  1.4178  0.7515 -0.7068
  135SAPE  H12Y14674   6.060   2.101   8.906  2.6504 -0.6409 -0.0351
  135SAPE  C31314675   6.232   2.225   8.898  0.4484  0.6282 -0.2804
  135SAPE  H13X14676   6.279   2.170   8.982 -1.8780 -2.7600 -1.0979
  135SAPE  H13Y14677   6.253   2.333   8.915 -1.4247  1.1999 -1.4283
  135SAPE  C31414678   6.276   2.179   8.763 -0.5773  0.4737  0.3237
  135SAPE  H14X14679   6.216   2.225   8.682  0.4480  0.6098 -0.3555
  135SAPE  H14Y14680   6.241   2.074   8.761 -0.1665  0.2096  3.7748
  135SAPE  C31514681   6.428   2.175   8.750  0.6993  0.1930  0.2506
  135SAPE  H15X14682   6.469   2.109   8.671  0.9542  0.4451  0.1730
  135SAPE  H15Y14683   6.468   2.148   8.850  0.5057  0.3488  0.3706
  135SAPE  C31614684   6.495   2.311   8.726  0.9747  0.0254 -0.0405
  135SAPE  H16X14685   6.593   2.310   8.778  1.4336  2.9961 -0.7737
  135SAPE  H16Y14686   6.436   2.390   8.778 -0.1281  1.1111 -2.8554
  135SAPE  C31714687   6.504   2.337   8.578  0.2103  0.6508 -0.2129
  135SAPE  H17X14688   6.401   2.319   8.539 -0.1787  2.7235 -0.2246
  135SAPE  H17Y14689   6.583   2.270   8.538 -0.4116 -0.7002  0.7941
  135SAPE  C31814690   6.533   2.480   8.528 -0.2716 -0.3016 -0.7565
  135SAPE  H18X14691   6.513   2.488   8.419 -1.0850  1.8917 -0.4782
  135SAPE  H18Y14692   6.637   2.516   8.543 -1.0845  1.6424  0.3470
  135SAPE  H18Z14693   6.459   2.551   8.571 -1.5847 -2.0371 -0.0754
  136SAPE     N14694   0.947   1.141  11.012  0.5411  0.5269 -0.3985
  136SAPE   HN114695   1.032   1.181  11.056  1.0299  0.7097 -1.4856
  136SAPE   HN214696   0.868   1.134  11.079  0.7887  3.5318  0.2878
  136SAPE   HN314697   0.982   1.048  10.982 -0.4255 -0.2202  0.7425
  136SAPE   C1214698   0.919   1.230  10.888 -0.2920 -0.1221 -0.0547
  136SAPE  H12A14699   0.856   1.313  10.928  1.5940  1.4064 -0.1997
  136SAPE  H12B14700   0.851   1.164  10.830 -0.0013  0.7982 -1.4771
  136SAPE   C1114701   1.043   1.265  10.825  0.6380 -0.2066 -0.0303
  136SAPE  H11A14702   1.014   1.333  10.742 -1.4321  0.2069  0.9902
  136SAPE  H11B14703   1.103   1.184  10.779  0.9076  0.4723 -0.8852
  136SAPE     P14704   1.241   1.435  10.840 -0.6227  0.0859 -0.0397
  136SAPE   O1314705   1.197   1.573  10.857  0.1350  0.2975 -0.7008
  136SAPE   O1414706   1.371   1.402  10.899 -0.8397  0.1103  0.0532
  136SAPE   O1214707   1.127   1.343  10.899 -0.4431  0.0929  0.1917
  136SAPE   O1114708   1.234   1.388  10.685  0.3285  0.2339  0.1336
  136SAPE    C114709   1.325   1.283  10.641  0.4783 -0.6741 -0.4131
  136SAPE    HA14710   1.353   1.213  10.723  1.8250  0.8787  0.4755
  136SAPE    HB14711   1.278   1.227  10.557 -0.3426 -0.5437 -0.0462
  136SAPE    C214712   1.469   1.332  10.593 -0.3103  0.1042 -0.1181
  136SAPE    HS14713   1.512   1.387  10.680  0.8812 -2.4481  0.9642
  136SAPE   O2114714   1.467   1.426  10.482  0.4630 -0.4014 -0.2201
  136SAPE   C2114715   1.563   1.528  10.468  0.4018 -0.5893 -0.1887
  136SAPE   O2214716   1.639   1.556  10.562 -0.1426  0.2845 -0.2442
  136SAPE   C2214717   1.561   1.584  10.330  0.2786 -0.1946 -0.0855
  136SAPE   H2R14718   1.511   1.534  10.244  0.4438 -1.6466  0.6533
  136SAPE   H2S14719   1.509   1.680  10.351 -0.4598 -0.4730 -0.5849
  136SAPE    C314720   1.557   1.198  10.566 -0.5900 -0.9400  1.2185
  136SAPE    HX14721   1.578   1.142  10.660 -0.5715 -1.0603  1.1419
  136SAPE    HY14722   1.659   1.229  10.535 -1.1973  0.5433  0.6379
  136SAPE   O3114723   1.497   1.110  10.471  0.6967 -0.2773 -0.6118
  136SAPE   C3114724   1.509   1.143  10.339 -0.0180  0.1513 -0.2738
  136SAPE   O3214725   1.578   1.232  10.297  0.0258  0.4374 -0.7354
  136SAPE   C3214726   1.430   1.047  10.250  0.2203  0.1597 -0.2037
  136SAPE   H2X14727   1.340   1.108  10.225  0.1951  0.4643  0.5980
  136SAPE   H2Y14728   1.399   0.955  10.304 -1.6113  1.4964  1.1131
  136SAPE   C2314729   1.700   1.626  10.279 -0.3646 -0.1050 -0.1916
  136SAPE   H3R14730   1.750   1.541  10.228 -0.9712  0.3467 -1.5494
  136SAPE   H3S14731   1.757   1.655  10.371  0.8005 -1.4451 -0.4760
  136SAPE   C2414732   1.701   1.761  10.198  0.0409  0.0900  0.0643
  136SAPE   H4R14733   1.690   1.850  10.264 -0.5964  0.9257 -1.1486
  136SAPE   H4S14734   1.607   1.747  10.141  1.0216 -1.6136 -1.1792
  136SAPE   C2514735   1.823   1.756  10.117 -0.8118 -0.4630 -0.0934
  136SAPE   H5R14736   1.837   1.661  10.064  0.8159  0.4626 -1.3747
  136SAPE   C2614737   1.906   1.857  10.092  0.5912  0.6582 -0.6953
  136SAPE   H6R14738   2.000   1.838  10.037  0.5557 -0.3583 -0.4234
  136SAPE   C2714739   1.889   2.005  10.130  0.2385 -0.0863  0.4654
  136SAPE   H7R14740   1.784   2.028  10.159  0.7906  0.3478  2.1945
  136SAPE   H7S14741   1.913   2.073  10.046 -2.6921 -0.7572 -1.0070
  136SAPE   C2814742   1.981   2.029  10.250  0.3524 -0.3924  0.3020
  136SAPE   H8R14743   2.006   1.949  10.321 -2.4258 -1.9663 -0.4000
  136SAPE   C2914744   2.048   2.147  10.272  0.3440  0.0711 -0.0100
  136SAPE   H9R14745   2.098   2.151  10.369  0.5000  1.3516 -0.1459
  136SAPE  C21014746   2.043   2.269  10.181  0.1694 -0.2833  0.1512
  136SAPE  H10R14747   1.986   2.248  10.088 -0.4883 -0.4487  0.5889
  136SAPE  H10S14748   2.150   2.292  10.161 -0.1182  1.5317  0.6807
  136SAPE  C21114749   1.973   2.390  10.234 -0.4406  0.8425  0.1680
  136SAPE  H11R14750   1.918   2.379  10.328  0.5408 -0.5267  0.5997
  136SAPE  C21214751   1.953   2.499  10.157  0.3564  0.2108 -0.4580
  136SAPE  H12R14752   1.894   2.582  10.200  0.7040  0.5971 -0.7274
  136SAPE  C21314753   1.991   2.534  10.017  0.3628 -0.3419  0.2879
  136SAPE  H13R14754   2.012   2.448   9.949  0.5183  0.5779 -0.8474
  136SAPE  H13S14755   2.086   2.590  10.015  1.2089 -1.7854 -1.2332
  136SAPE  C21414756   1.896   2.634   9.960  0.8778 -0.6012 -0.0574
  136SAPE  H14R14757   1.925   2.736   9.988  0.8131  0.0771 -2.4323
  136SAPE  C21514758   1.815   2.611   9.857 -0.9082  0.4339  0.5801
  136SAPE  H15R14759   1.770   2.691   9.796  1.9014 -0.7196 -3.2137
  136SAPE  C21614760   1.789   2.479   9.791  0.1528  0.3474 -1.1195
  136SAPE  H16R14761   1.680   2.460   9.786  0.3783 -1.2266 -0.3805
  136SAPE  H16S14762   1.817   2.395   9.858  2.0416  0.0684 -2.2307
  136SAPE  C21714763   1.850   2.449   9.652 -0.4758 -0.2579  0.2461
  136SAPE  H17R14764   1.861   2.341   9.627  0.2552  0.1401 -1.2000
  136SAPE  H17S14765   1.954   2.487   9.651 -0.6213  0.1361 -0.1611
  136SAPE  C21814766   1.793   2.536   9.545 -0.0270 -0.0797 -0.4321
  136SAPE  H18R14767   1.823   2.637   9.580 -1.1024  0.7077 -1.7709
  136SAPE  H18S14768   1.683   2.526   9.536 -0.2270 -0.2202  1.7966
  136SAPE  C21914769   1.864   2.508   9.403  0.0564 -0.4465  0.0935
  136SAPE  H19R14770   1.872   2.399   9.384  1.3576 -0.7783  2.3823
  136SAPE  H19S14771   1.971   2.535   9.409 -0.4947  1.8676  0.0839
  136SAPE  C22014772   1.799   2.588   9.290 -0.3797 -0.3853 -0.0346
  136SAPE  H20R14773   1.779   2.692   9.323  1.4771 -0.1436  0.3706
  136SAPE  H20S14774   1.701   2.550   9.253 -0.2265 -1.7149  0.9174
  136SAPE  H20T14775   1.874   2.592   9.208  0.4869 -2.5501  0.6141
  136SAPE   C3314776   1.502   1.013  10.113  0.1347  0.0332 -0.1208
  136SAPE   H3X14777   1.427   0.941  10.073  1.2189 -1.5338  0.6025
  136SAPE   H3Y14778   1.601   0.964  10.126 -0.3465 -0.2180  3.0133
  136SAPE   C3414779   1.509   1.128  10.007 -0.5978 -0.1031  0.2427
  136SAPE   H4X14780   1.613   1.166  10.007  0.2747 -2.4411 -0.7305
  136SAPE   H4Y14781   1.437   1.209  10.033  0.6086  2.6511 -4.5400
  136SAPE   C3514782   1.457   1.077   9.873 -0.4538 -0.3089  0.2941
  136SAPE   H5X14783   1.467   1.166   9.807 -0.1656  0.1233  0.9175
  136SAPE   H5Y14784   1.354   1.037   9.883 -0.7490  1.1890  3.8634
  136SAPE   C3614785   1.547   0.978   9.795 -0.0893 -0.4355  0.6179
  136SAPE   H6X14786   1.553   0.881   9.849  0.6758 -0.0372  1.2526
  136SAPE   H6Y14787   1.647   1.026   9.791 -0.3593  0.1862  1.0487
  136SAPE   C3714788   1.489   0.946   9.653  0.1440  0.0320 -0.1631
  136SAPE   H7X14789   1.404   1.013   9.628 -2.5653 -3.2208 -0.0005
  136SAPE   H7Y14790   1.454   0.841   9.644  0.5981 -0.1176 -0.2264
  136SAPE   C3814791   1.603   0.974   9.554  0.0109 -0.2447  0.5127
  136SAPE   H8X14792   1.687   0.906   9.579  1.7579  2.9490  3.6135
  136SAPE   H8Y14793   1.632   1.079   9.573  0.2566 -0.4652  1.3910
  136SAPE   C3914794   1.570   0.967   9.404  0.0416  0.4164  0.2921
  136SAPE   H9X14795   1.638   1.039   9.353  0.0284  0.3603  0.1952
  136SAPE   H9Y14796   1.468   1.004   9.379 -2.0491 -6.0552 -1.8820
  136SAPE  C31014797   1.579   0.827   9.353  0.1393  0.7268  0.4156
  136SAPE  H10X14798   1.473   0.794   9.346  0.4353 -0.0263 -0.6533
  136SAPE  H10Y14799   1.642   0.770   9.424 -1.3038  0.5162  1.5497
  136SAPE  C31114800   1.643   0.812   9.222  0.9514 -0.3244  0.0349
  136SAPE  H11X14801   1.745   0.856   9.222  0.6587  0.3762 -0.6059
  136SAPE  H11Y14802   1.589   0.877   9.149  3.3563  2.2519  0.4612
  136SAPE  C31214803   1.648   0.664   9.180 -0.2418  0.1022  0.4678
  136SAPE  H12X14804   1.543   0.634   9.197 -0.6850  1.1197 -0.4201
  136SAPE  H12Y14805   1.716   0.606   9.246  1.6505 -0.8773 -2.2668
  136SAPE  C31314806   1.685   0.654   9.035  0.7080  0.6078  0.2352
  136SAPE  H13X14807   1.782   0.707   9.023  1.4875 -1.0110 -0.7466
  136SAPE  H13Y14808   1.612   0.712   8.974 -1.4145 -0.5294  1.6201
  136SAPE  C31414809   1.700   0.504   8.980  0.3245 -0.6276 -0.1006
  136SAPE  H14X14810   1.600   0.458   8.994 -0.3254  0.2264 -1.7865
  136SAPE  H14Y14811   1.775   0.458   9.048 -0.5667 -0.7384  0.8176
  136SAPE  C31514812   1.729   0.477   8.831 -0.3210 -0.2773  0.3881
  136SAPE  H15X14813   1.640   0.516   8.778 -1.7880 -3.0309  0.7302
  136SAPE  H15Y14814   1.729   0.369   8.804 -1.1699 -0.3762  0.7907
  136SAPE  C31614815   1.851   0.540   8.784 -0.4286 -0.2758  0.4379
  136SAPE  H16X14816   1.936   0.483   8.826  0.3063  0.4501 -0.0624
  136SAPE  H16Y14817   1.852   0.645   8.820  0.5910 -0.1529  0.0608
  136SAPE  C31714818   1.877   0.525   8.634  0.6555  0.7637 -0.7790
  136SAPE  H17X14819   1.793   0.569   8.574  0.4427  0.0003 -1.0483
  136SAPE  H17Y14820   1.885   0.419   8.604  0.2803  0.4719  0.1475
  136SAPE  C31814821   2.007   0.591   8.586 -0.1704 -0.0431 -0.3184
  136SAPE  H18X14822   2.014   0.696   8.620 -0.6242  0.3138 -1.3219
  136SAPE  H18Y14823   1.996   0.592   8.476 -0.7747 -0.5929 -0.2713
  136SAPE  H18Z14824   2.088   0.526   8.627 -1.7336 -0.1010  2.8236
  137SAPE     N14825   6.739   5.712  10.816  0.0400 -0.7869 -0.0824
  137SAPE   HN114826   6.744   5.670  10.911  0.7435  0.4288  0.4450
  137SAPE   HN214827   6.828   5.699  10.762  1.7186  1.9313  1.9065
  137SAPE   HN314828   6.722   5.814  10.826 -0.7137 -0.9934  0.7710
  137SAPE   C1214829   6.633   5.659  10.727  0.5331 -0.2989  0.4183
  137SAPE  H12A14830   6.601   5.735  10.653 -0.7689  1.0137  2.2658
  137SAPE  H12B14831   6.545   5.642  10.794  2.0454 -3.0786  1.8007
  137SAPE   C1114832   6.664   5.520  10.679 -0.8263 -0.3739  0.0111
  137SAPE  H11A14833   6.735   5.511  10.594 -0.0803 -2.3368  0.8157
  137SAPE  H11B14834   6.572   5.474  10.637 -1.5056 -0.2643  1.3560
  137SAPE     P14835   6.623   5.348  10.872 -0.1144 -0.3225  0.1536
  137SAPE   O1314836   6.698   5.311  10.993  0.2383 -0.1436 -0.5109
  137SAPE   O1414837   6.495   5.418  10.898 -0.1012  0.2214  0.3892
  137SAPE   O1214838   6.718   5.438  10.786  0.4162  0.7158 -0.2825
  137SAPE   O1114839   6.592   5.215  10.800  0.0182  0.4482  0.2492
  137SAPE    C114840   6.700   5.145  10.737 -0.2023  1.1049  0.4198
  137SAPE    HA14841   6.798   5.179  10.776  0.3624  2.3162 -1.9447
  137SAPE    HB14842   6.688   5.035  10.754  0.2777  0.9648 -0.1416
  137SAPE    C214843   6.711   5.170  10.582 -0.2153 -0.1505  0.3031
  137SAPE    HS14844   6.734   5.279  10.577 -0.1822 -0.1941 -0.5601
  137SAPE   O2114845   6.590   5.129  10.512 -0.4907  0.7435  0.3252
  137SAPE   C2114846   6.544   5.214  10.423 -0.1611  0.4604 -0.2248
  137SAPE   O2214847   6.572   5.328  10.410 -0.7200 -0.6479  0.5562
  137SAPE   C2214848   6.457   5.140  10.324  0.4549 -0.0975  0.1438
  137SAPE   H2R14849   6.527   5.106  10.245 -0.8561 -0.1104 -1.0314
  137SAPE   H2S14850   6.418   5.053  10.380 -0.8585  0.3014 -0.1395
  137SAPE    C314851   6.830   5.098  10.514 -0.4893 -0.2693 -0.4722
  137SAPE    HX14852   6.817   4.987  10.521  2.9134 -0.6146  1.7496
  137SAPE    HY14853   6.922   5.134  10.566 -0.8877 -1.5087  1.1659
  137SAPE   O3114854   6.836   5.151  10.376  0.0005 -0.1559  0.0582
  137SAPE   C3114855   6.826   5.059  10.277 -0.0841  0.5035 -0.7986
  137SAPE   O3214856   6.802   4.941  10.295  0.9916 -0.5562  0.3213
  137SAPE   C3214857   6.840   5.139  10.153  0.1764 -0.3482  0.3116
  137SAPE   H2X14858   6.935   5.196  10.154 -0.4624  0.7621 -0.6367
  137SAPE   H2Y14859   6.757   5.212  10.155  0.5510  0.0454  2.0119
  137SAPE   C2314860   6.353   5.226  10.242 -0.5585  0.0762 -0.0307
  137SAPE   H3R14861   6.410   5.298  10.178 -2.8081  1.2682 -0.7387
  137SAPE   H3S14862   6.283   5.284  10.306  1.5285  2.1856  0.4371
  137SAPE   C2414863   6.274   5.145  10.140 -0.0448 -0.6522 -0.1320
  137SAPE   H4R14864   6.219   5.220  10.079  2.1070 -0.1637 -1.5162
  137SAPE   H4S14865   6.196   5.084  10.190 -1.5588  1.9419  0.7720
  137SAPE   C2514866   6.346   5.055  10.037  0.0376 -0.4251 -0.5191
  137SAPE   H5R14867   6.363   4.954  10.076  1.4586 -0.7163 -1.8535
  137SAPE   C2614868   6.402   5.084   9.918  0.4726 -0.0814 -0.0270
  137SAPE   H6R14869   6.449   4.997   9.869 -0.4627 -0.4799 -0.2235
  137SAPE   C2714870   6.407   5.212   9.830  0.0758  0.6994 -0.2894
  137SAPE   H7R14871   6.494   5.202   9.762  0.5004 -2.1017  0.5687
  137SAPE   H7S14872   6.426   5.304   9.890 -0.8777  0.2296  0.7532
  137SAPE   C2814873   6.274   5.248   9.766  0.0533  0.3652  0.1024
  137SAPE   H8R14874   6.206   5.297   9.837  1.2226  2.1216  0.0290
  137SAPE   C2914875   6.242   5.209   9.639  0.0005  0.1996 -0.9815
  137SAPE   H9R14876   6.147   5.249   9.601 -0.5371 -1.8152 -1.8546
  137SAPE  C21014877   6.327   5.133   9.533  0.1916 -0.4060 -0.0236
  137SAPE  H10R14878   6.250   5.080   9.473  0.5562 -0.3174 -0.5717
  137SAPE  H10S14879   6.388   5.057   9.586 -0.1008  0.0913  1.0420
  137SAPE  C21114880   6.402   5.222   9.437 -0.0800 -0.0641 -0.1821
  137SAPE  H11R14881   6.491   5.265   9.486 -0.4713  0.6219 -0.0673
  137SAPE  C21214882   6.384   5.244   9.301  0.3636 -0.7032  0.2395
  137SAPE  H12R14883   6.450   5.315   9.250  1.1823 -0.1396  2.0729
  137SAPE  C21314884   6.263   5.191   9.235  0.2170  0.1881 -0.0608
  137SAPE  H13R14885   6.249   5.270   9.158 -0.1023 -1.1797 -1.4205
  137SAPE  H13S14886   6.172   5.189   9.299 -0.2229 -0.0750 -0.6903
  137SAPE  C21414887   6.279   5.061   9.162  0.4890 -0.2120  0.3530
  137SAPE  H14R14888   6.295   4.977   9.230  0.2342 -0.1215  0.5232
  137SAPE  C21514889   6.289   5.043   9.032  0.0461  0.0671  0.8163
  137SAPE  H15R14890   6.298   4.942   8.988 -0.1504  0.3963  0.0165
  137SAPE  C21614891   6.298   5.147   8.928 -0.4980 -0.1285 -0.2702
  137SAPE  H16R14892   6.404   5.171   8.904 -0.4751 -0.9304 -1.0028
  137SAPE  H16S14893   6.255   5.242   8.966  0.5920  0.9672 -1.7314
  137SAPE  C21714894   6.224   5.116   8.794  1.1152 -0.1098 -0.1408
  137SAPE  H17R14895   6.115   5.117   8.815  0.7300  1.9056 -2.0962
  137SAPE  H17S14896   6.260   5.021   8.748  2.0545 -0.2162  0.8027
  137SAPE  C21814897   6.247   5.229   8.692 -0.8641 -0.7251  0.1800
  137SAPE  H18R14898   6.357   5.241   8.694 -0.9978  0.3777  0.9985
  137SAPE  H18S14899   6.195   5.319   8.730  0.6069  0.8842 -1.5167
  137SAPE  C21914900   6.196   5.203   8.554  0.0996  0.1974 -0.0535
  137SAPE  H19R14901   6.257   5.117   8.520  1.6149  1.8543 -1.5936
  137SAPE  H19S14902   6.216   5.278   8.475 -0.6824 -1.9793 -2.3710
  137SAPE  C22014903   6.051   5.157   8.538  0.8464 -1.0425 -0.0323
  137SAPE  H20R14904   5.983   5.234   8.581  1.0681 -1.2710  0.7432
  137SAPE  H20S14905   6.036   5.060   8.589  0.4053 -0.3424  1.1966
  137SAPE  H20T14906   6.024   5.146   8.431 -0.6895 -1.5663  0.4018
  137SAPE   C3314907   6.819   5.061  10.021 -0.6647  0.1726  0.1943
  137SAPE   H3X14908   6.718   5.017  10.006 -0.3180 -0.4326 -0.3883
  137SAPE   H3Y14909   6.899   4.987  10.002  0.8316  1.7655  0.2097
  137SAPE   C3414910   6.817   5.155   9.898 -0.3512  0.0501 -0.0888
  137SAPE   H4X14911   6.915   5.207   9.893  0.1377 -0.9343 -0.9576
  137SAPE   H4Y14912   6.741   5.232   9.924  0.5843  0.5862  1.0866
  137SAPE   C3514913   6.775   5.095   9.771  0.5668  0.1056 -0.2994
  137SAPE   H5X14914   6.674   5.049   9.770  1.2478 -1.5373  2.2682
  137SAPE   H5Y14915   6.846   5.016   9.737 -0.7137 -0.8054 -0.8535
  137SAPE   C3614916   6.773   5.203   9.663  1.0513  0.6977 -0.1349
  137SAPE   H6X14917   6.872   5.254   9.669  1.2869  0.0877  1.3266
  137SAPE   H6Y14918   6.696   5.281   9.680 -0.1152  0.2307 -2.9333
  137SAPE   C3714919   6.765   5.130   9.532 -0.2877  0.0142  0.5461
  137SAPE   H7X14920   6.685   5.052   9.532  0.2551 -0.5752 -1.6219
  137SAPE   H7Y14921   6.857   5.069   9.513  0.2549  1.0296 -0.1421
  137SAPE   C3814922   6.751   5.213   9.397 -0.8174  0.2708 -0.4419
  137SAPE   H8X14923   6.682   5.298   9.416 -0.8541  0.6572 -2.2155
  137SAPE   H8Y14924   6.707   5.153   9.315  1.9583 -2.1316 -0.2495
  137SAPE   C3914925   6.880   5.272   9.347 -0.2910 -0.3816  0.0034
  137SAPE   H9X14926   6.954   5.191   9.333 -1.5354 -1.5466  0.0959
  137SAPE   H9Y14927   6.913   5.347   9.423  0.1128  0.4623 -0.9980
  137SAPE  C31014928   6.851   5.343   9.210  0.1224  0.3245  0.1983
  137SAPE  H10X14929   6.779   5.427   9.222 -1.1099 -0.5874 -0.7568
  137SAPE  H10Y14930   6.799   5.260   9.158  4.1991 -1.9608 -0.4409
  137SAPE  C31114931   6.979   5.389   9.139 -0.2558  0.8064 -0.3405
  137SAPE  H11X14932   7.053   5.306   9.130 -0.0606  0.8466  0.9029
  137SAPE  H11Y14933   7.024   5.469   9.202 -1.2490 -0.4446  1.9814
  137SAPE  C31214934   6.943   5.431   8.998  0.1801 -0.3932  0.7040
  137SAPE  H12X14935   6.883   5.523   9.017  1.1919  0.4495 -0.1181
  137SAPE  H12Y14936   6.883   5.348   8.955  1.5597 -0.8985 -0.2857
  137SAPE  C31314937   7.059   5.456   8.912  0.1002 -0.2449 -0.0761
  137SAPE  H13X14938   7.110   5.360   8.886  1.7481  0.0954  1.7532
  137SAPE  H13Y14939   7.132   5.517   8.970 -0.4331  1.5437 -1.2598
  137SAPE  C31414940   7.026   5.535   8.784  0.2869 -0.9061  0.3423
  137SAPE  H14X14941   7.114   5.568   8.725 -0.9888  0.9499 -0.5855
  137SAPE  H14Y14942   6.972   5.631   8.801 -0.5821 -1.3109 -0.0852
  137SAPE  C31514943   6.939   5.449   8.697 -0.4629  1.0954 -0.4408
  137SAPE  H15X14944   6.853   5.425   8.763 -0.3086  1.7394 -0.0003
  137SAPE  H15Y14945   7.003   5.366   8.661 -0.6114  1.3011 -1.1861
  137SAPE  C31614946   6.890   5.533   8.578 -0.6865  0.1475 -0.3987
  137SAPE  H16X14947   6.982   5.569   8.527 -1.4324  2.6404 -0.0300
  137SAPE  H16Y14948   6.847   5.625   8.621  2.2772  0.8783  1.1579
  137SAPE  C31714949   6.802   5.474   8.464  0.1778  0.3300 -0.4586
  137SAPE  H17X14950   6.847   5.383   8.420 -2.7009 -0.2954 -2.2271
  137SAPE  H17Y14951   6.806   5.553   8.386  0.3853 -0.6433 -1.4452
  137SAPE  C31814952   6.652   5.451   8.491 -0.2817  0.0822  0.4167
  137SAPE  H18X14953   6.644   5.372   8.568 -3.7002  1.2028  1.2960
  137SAPE  H18Y14954   6.606   5.416   8.396 -0.5508 -1.8117  1.2318
  137SAPE  H18Z14955   6.593   5.537   8.529  1.1329  1.0594  0.4752
  138SAPE     N14956   4.145   6.240  11.053 -0.0253 -0.1123 -0.0566
  138SAPE   HN114957   4.229   6.261  10.996  0.4703  1.2827  1.1224
  138SAPE   HN214958   4.176   6.252  11.152  0.1811  2.5527 -0.4014
  138SAPE   HN314959   4.091   6.155  11.028 -2.1155  1.0989  0.1269
  138SAPE   C1214960   4.049   6.346  11.026 -0.3766 -0.3416  0.0208
  138SAPE  H12A14961   4.078   6.441  11.074  0.7771 -0.3825 -0.5691
  138SAPE  H12B14962   3.951   6.317  11.070 -0.4472 -0.0623  0.0439
  138SAPE   C1114963   4.026   6.355  10.875  0.3052  0.4547 -0.2037
  138SAPE  H11A14964   4.119   6.374  10.818  0.2538 -0.7383 -0.7144
  138SAPE  H11B14965   3.958   6.440  10.851 -0.9110 -0.3875  0.2117
  138SAPE     P14966   3.825   6.210  10.771 -0.4019 -0.1810 -0.4514
  138SAPE   O1314967   3.797   6.063  10.771 -0.3600 -0.2055  0.8170
  138SAPE   O1414968   3.743   6.293  10.859  0.1954 -0.3156  0.7387
  138SAPE   O1214969   3.976   6.235  10.820 -0.2215  0.1314 -0.7803
  138SAPE   O1114970   3.819   6.265  10.621  0.3204  0.6036  0.0624
  138SAPE    C114971   3.900   6.201  10.522 -0.1196  1.0472 -0.1925
  138SAPE    HA14972   3.941   6.281  10.457  1.0308  0.3326 -0.3564
  138SAPE    HB14973   3.992   6.150  10.558 -0.9800  0.7801  1.6747
  138SAPE    C214974   3.809   6.108  10.429 -0.5075  0.4312  0.5842
  138SAPE    HS14975   3.778   6.030  10.502  3.8571 -1.9874  0.0653
  138SAPE   O2114976   3.892   6.056  10.323 -0.5949  0.1747 -0.2293
  138SAPE   C2114977   3.852   5.943  10.269 -0.5400 -0.5126 -0.8010
  138SAPE   O2214978   3.771   5.869  10.317 -0.3510 -0.6179  0.3139
  138SAPE   C2214979   3.912   5.942  10.124  0.3716  0.2897  0.2437
  138SAPE   H2R14980   3.907   6.045  10.083  1.3777  0.7650  1.2938
  138SAPE   H2S14981   4.019   5.910  10.128  0.3573  0.2501  0.3115
  138SAPE    C314982   3.682   6.188  10.381  0.0902  0.6165  0.1852
  138SAPE    HX14983   3.729   6.281  10.343 -0.3528  0.0343 -1.8390
  138SAPE    HY14984   3.621   6.212  10.471  2.2926 -0.2159  1.9720
  138SAPE   O3114985   3.603   6.122  10.276  0.3856  0.2356  0.5791
  138SAPE   C3114986   3.504   6.046  10.333 -0.1932  0.8864 -0.3387
  138SAPE   O3214987   3.486   6.031  10.451  0.1329 -0.0092  0.4018
  138SAPE   C3214988   3.415   5.989  10.230  0.0816  0.3721  0.3092
  138SAPE   H2X14989   3.372   6.075  10.174  0.3412 -0.4361 -1.1589
  138SAPE   H2Y14990   3.343   5.936  10.296 -0.7923 -1.2559 -1.8772
  138SAPE   C2314991   3.845   5.843  10.024 -0.6451 -0.9179  0.8294
  138SAPE   H3R14992   3.735   5.837  10.037 -1.2167  0.3752 -2.7619
  138SAPE   H3S14993   3.882   5.740  10.038 -0.0010 -0.7272  0.5624
  138SAPE   C2414994   3.865   5.884   9.876  0.3542  0.2121 -0.0213
  138SAPE   H4R14995   3.822   5.805   9.811  1.4151 -1.9512  1.8379
  138SAPE   H4S14996   3.972   5.886   9.846  0.2428 -2.0548 -0.6505
  138SAPE   C2514997   3.786   6.003   9.844 -0.1131  0.0583  0.1900
  138SAPE   H5R14998   3.832   6.097   9.876 -2.1329  1.6019 -1.3227
  138SAPE   C2614999   3.681   6.008   9.760 -0.0727 -0.1254  0.3677
  138SAPE   H6R15000   3.636   6.103   9.728  1.2282  0.4491  0.2279
  138SAPE   C2715001   3.610   5.896   9.696 -0.0055 -0.1093 -0.4251
  138SAPE   H7R15002   3.577   5.821   9.771 -1.3425  1.3091  0.4220
  138SAPE   H7S15003   3.677   5.838   9.628  0.3832  0.0819 -0.2018
  138SAPE   C2815004   3.490   5.924   9.608 -0.1046 -0.9257  0.0284
  138SAPE   H8R15005   3.401   5.922   9.673  0.3476  3.3825  0.9707
  138SAPE   C2915006   3.485   5.958   9.476  0.2393 -0.5452 -0.3372
  138SAPE   H9R15007   3.386   5.964   9.429  0.1196 -1.2431 -0.1739
  138SAPE  C21015008   3.609   5.978   9.394 -0.7412  0.3748 -0.4380
  138SAPE  H10R15009   3.698   5.966   9.459 -0.2975  0.9663 -0.9410
  138SAPE  H10S15010   3.611   6.078   9.347 -4.6219  0.1788 -1.1922
  138SAPE  C21115011   3.610   5.870   9.285 -0.2245 -0.7445 -0.1275
  138SAPE  H11R15012   3.639   5.773   9.327  0.5067  0.6496  2.7060
  138SAPE  C21215013   3.587   5.884   9.154 -0.2467 -0.4181  0.7794
  138SAPE  H12R15014   3.595   5.789   9.101  0.8713  0.8988 -1.4841
  138SAPE  C21315015   3.548   6.010   9.078 -0.1040 -0.4657  0.1949
  138SAPE  H13R15016   3.643   6.049   9.036  0.3221 -2.0103 -0.3312
  138SAPE  H13S15017   3.519   6.086   9.152 -2.1721 -1.0607  0.0234
  138SAPE  C21415018   3.433   5.989   8.997 -0.6284 -0.5124 -0.4871
  138SAPE  H14R15019   3.367   5.903   9.016 -0.5386 -0.8451 -1.6513
  138SAPE  C21515020   3.414   6.056   8.884 -0.9472 -0.4640 -0.5954
  138SAPE  H15R15021   3.323   6.031   8.829 -2.1702  0.3358  1.0011
  138SAPE  C21615022   3.504   6.172   8.829 -0.1383  0.0019  0.1299
  138SAPE  H16R15023   3.602   6.130   8.798 -0.9710 -1.8724 -0.0395
  138SAPE  H16S15024   3.522   6.248   8.907  0.5702 -1.7377  1.7177
  138SAPE  C21715025   3.434   6.240   8.714  0.2281 -0.4746 -0.6778
  138SAPE  H17R15026   3.345   6.291   8.756 -0.3976 -1.2946 -1.0018
  138SAPE  H17S15027   3.392   6.181   8.629 -0.4843  1.3284 -1.6087
  138SAPE  C21815028   3.530   6.348   8.646  0.2258 -0.4424  0.0538
  138SAPE  H18R15029   3.622   6.289   8.628  1.4803  1.4930 -0.0820
  138SAPE  H18S15030   3.541   6.423   8.727  0.4906  0.7363 -1.0388
  138SAPE  C21915031   3.464   6.420   8.539 -0.7179  0.3681  0.6326
  138SAPE  H19R15032   3.370   6.465   8.576 -1.6318 -0.3539 -0.7740
  138SAPE  H19S15033   3.440   6.346   8.459 -0.8963  0.1612  0.8748
  138SAPE  C22015034   3.552   6.526   8.489 -0.2519 -0.9163  0.8303
  138SAPE  H20R15035   3.634   6.481   8.430 -0.0013  0.8453 -0.1882
  138SAPE  H20S15036   3.593   6.584   8.575 -3.4686  0.9999  1.1667
  138SAPE  H20T15037   3.499   6.596   8.421  1.9222  0.8769  0.9255
  138SAPE   C3315038   3.483   5.903  10.131  0.2531  0.0476 -0.1564
  138SAPE   H3X15039   3.539   5.813  10.163  2.2924  1.4763  0.3757
  138SAPE   H3Y15040   3.550   5.971  10.073 -1.1167 -0.7490 -2.7713
  138SAPE   C3415041   3.380   5.848  10.031 -0.3867  0.3351  0.6947
  138SAPE   H4X15042   3.424   5.803   9.939 -2.4062  1.8130 -1.0304
  138SAPE   H4Y15043   3.316   5.928   9.989 -0.7449  0.0659  0.7213
  138SAPE   C3515044   3.290   5.737  10.094 -0.2822  0.2763  0.2174
  138SAPE   H5X15045   3.244   5.760  10.193  1.6003  1.9892  0.7391
  138SAPE   H5Y15046   3.356   5.651  10.119 -2.5420 -1.1432  1.4890
  138SAPE   C3615047   3.186   5.675   9.999 -0.0868  0.0077  0.3970
  138SAPE   H6X15048   3.079   5.705  10.003 -0.9256 -2.6535 -1.0132
  138SAPE   H6Y15049   3.157   5.572  10.026  0.4952 -0.4122 -0.5452
  138SAPE   C3715050   3.233   5.672   9.856  1.4317  0.5293  0.4447
  138SAPE   H7X15051   3.332   5.625   9.835  0.5062 -0.0419 -2.9167
  138SAPE   H7Y15052   3.253   5.777   9.825  0.1101  0.7902  0.4567
  138SAPE   C3815053   3.124   5.605   9.773 -0.7608  0.2066  0.0212
  138SAPE   H8X15054   3.026   5.637   9.816 -0.3077  0.8571  0.5792
  138SAPE   H8Y15055   3.128   5.494   9.771  0.1965  0.2312  0.3683
  138SAPE   C3915056   3.111   5.650   9.626  0.1571 -0.5637  0.0270
  138SAPE   H9X15057   3.103   5.760   9.635 -0.6887 -0.8009  2.6576
  138SAPE   H9Y15058   3.020   5.608   9.578 -1.8202  2.8922  0.5922
  138SAPE  C31015059   3.232   5.612   9.532  0.1280  0.6456  1.0990
  138SAPE  H10X15060   3.243   5.503   9.554  0.8164  0.6270  0.6581
  138SAPE  H10Y15061   3.324   5.668   9.558 -0.1575  1.4239  0.4408
  138SAPE  C31115062   3.193   5.631   9.381  0.2653  0.6411  0.4251
  138SAPE  H11X15063   3.173   5.737   9.356 -1.0304  0.3684  0.2746
  138SAPE  H11Y15064   3.099   5.574   9.367 -0.1798  0.6429  3.1329
  138SAPE  C31215065   3.306   5.582   9.291 -0.1315  0.3882  0.0167
  138SAPE  H12X15066   3.332   5.475   9.304 -1.2322 -0.1976 -2.2858
  138SAPE  H12Y15067   3.394   5.643   9.317 -0.6898  0.0160  2.9234
  138SAPE  C31315068   3.263   5.595   9.142 -0.1283  0.5507 -0.3598
  138SAPE  H13X15069   3.220   5.693   9.112  0.2710  0.3327 -1.6668
  138SAPE  H13Y15070   3.182   5.518   9.140  1.0767 -0.7563  0.0968
  138SAPE  C31415071   3.364   5.542   9.035 -0.9639  0.0953 -0.5549
  138SAPE  H14X15072   3.404   5.447   9.076 -0.6377  0.9318  1.1158
  138SAPE  H14Y15073   3.453   5.607   9.021 -0.2401 -0.8979 -0.6011
  138SAPE  C31515074   3.290   5.510   8.904  0.3996 -0.5565 -0.5662
  138SAPE  H15X15075   3.210   5.434   8.917 -0.7059  0.8386  0.9847
  138SAPE  H15Y15076   3.364   5.470   8.831 -2.0169 -0.9034 -2.9336
  138SAPE  C31615077   3.229   5.636   8.835 -0.1744  0.2492 -0.2493
  138SAPE  H16X15078   3.314   5.700   8.805  1.9561 -1.8764  1.0630
  138SAPE  H16Y15079   3.164   5.691   8.906  1.1100  1.5637 -0.0730
  138SAPE  C31715080   3.124   5.606   8.724  0.1753  0.2822  0.5106
  138SAPE  H17X15081   3.049   5.545   8.779 -0.4925 -1.5114 -2.2916
  138SAPE  H17Y15082   3.169   5.554   8.637  1.2054  1.1623  0.4959
  138SAPE  C31815083   3.058   5.727   8.663  0.4696  0.1441 -0.4563
  138SAPE  H18X15084   3.129   5.800   8.619 -2.0082  2.9932  0.0868
  138SAPE  H18Y15085   2.998   5.782   8.738 -0.1505  0.2877 -1.0497
  138SAPE  H18Z15086   2.983   5.695   8.587  1.0123  0.9032 -1.3157
  139SAPE     N15087   2.937   4.241  10.734 -0.1637 -0.3220  0.0408
  139SAPE   HN115088   3.008   4.317  10.742 -1.3548  1.1671 -2.7760
  139SAPE   HN215089   2.925   4.182  10.819 -0.6310 -2.5226 -1.4987
  139SAPE   HN315090   2.992   4.180  10.670  0.3217 -0.6985  0.8025
  139SAPE   C1215091   2.809   4.280  10.677  0.0325 -0.7873  0.2589
  139SAPE  H12A15092   2.836   4.352  10.596 -1.4294 -1.7599 -1.1243
  139SAPE  H12B15093   2.756   4.345  10.751 -0.9872  1.2946 -2.2194
  139SAPE   C1115094   2.738   4.159  10.611  0.0050 -0.6131  0.2099
  139SAPE  H11A15095   2.799   4.124  10.526 -0.1806  0.6853 -0.4761
  139SAPE  H11B15096   2.643   4.204  10.574 -0.2227 -1.6999 -0.5573
  139SAPE     P15097   2.611   3.935  10.671 -0.2848  0.1533 -0.1340
  139SAPE   O1315098   2.580   3.865  10.795 -0.5080 -0.3134 -0.0804
  139SAPE   O1415099   2.502   3.989  10.591  0.8950 -0.2402  0.0509
  139SAPE   O1215100   2.713   4.058  10.705  0.3470  0.3462 -0.3070
  139SAPE   O1115101   2.697   3.840  10.581 -0.3821 -0.1810 -0.2234
  139SAPE    C115102   2.833   3.820  10.602 -0.9496  0.0026 -0.0827
  139SAPE    HA15103   2.883   3.897  10.664 -1.4125  0.4508 -0.2562
  139SAPE    HB15104   2.838   3.728  10.664 -0.3984 -0.0983 -0.2757
  139SAPE    C215105   2.897   3.815  10.466 -0.2720 -0.1704 -0.6523
  139SAPE    HS15106   3.006   3.807  10.490 -0.4279  0.7992  0.4568
  139SAPE   O2115107   2.865   3.939  10.397  0.3433 -0.2929  0.4926
  139SAPE   C2115108   2.963   3.975  10.313  0.6981 -0.4983  0.0277
  139SAPE   O2215109   3.068   3.922  10.297 -0.3822  0.0656  0.2534
  139SAPE   C2215110   2.919   4.101  10.246 -0.2716 -0.3094  0.1439
  139SAPE   H2R15111   2.821   4.088  10.196  0.4446 -1.0518 -1.0730
  139SAPE   H2S15112   2.905   4.177  10.327  2.4393  0.3286  0.0720
  139SAPE    C315113   2.857   3.686  10.382  0.5842  0.0888  0.1642
  139SAPE    HX15114   2.748   3.692  10.361  0.1923 -2.0065  1.4444
  139SAPE    HY15115   2.890   3.596  10.439  1.1069 -0.6968 -1.3536
  139SAPE   O3115116   2.921   3.675  10.251 -0.4928 -0.1966 -0.2434
  139SAPE   C3115117   3.008   3.574  10.226 -0.6756  0.8452  0.8420
  139SAPE   O3215118   3.029   3.478  10.296 -0.4410  0.0316  0.3418
  139SAPE   C3215119   3.075   3.587  10.087 -0.1828  0.7963 -0.4360
  139SAPE   H2X15120   3.186   3.585  10.096 -0.1631  0.4946 -0.7324
  139SAPE   H2Y15121   3.044   3.683  10.041  0.2832  1.4377  0.5557
  139SAPE   C2315122   3.020   4.148  10.144 -0.1749 -0.2045  0.3812
  139SAPE   H3R15123   3.116   4.140  10.199 -0.0225 -0.2114  0.1172
  139SAPE   H3S15124   2.992   4.251  10.112 -0.2278  0.0713  1.3176
  139SAPE   C2415125   3.028   4.058  10.013 -0.2434 -0.6154 -0.3622
  139SAPE   H4R15126   2.919   4.034  10.003 -0.1839 -0.8985 -0.3346
  139SAPE   H4S15127   3.073   3.960  10.040  2.0419  0.9857  1.8496
  139SAPE   C2515128   3.097   4.116   9.892 -0.2260 -0.1836  0.0513
  139SAPE   H5R15129   3.205   4.122   9.914 -0.4925 -1.6460  1.9610
  139SAPE   C2615130   3.037   4.163   9.781 -0.4509  0.0745 -0.5674
  139SAPE   H6R15131   3.101   4.198   9.698  1.3699 -1.1269  0.3064
  139SAPE   C2715132   2.890   4.161   9.731 -0.3915 -0.1684 -0.4553
  139SAPE   H7R15133   2.826   4.185   9.820  0.3745  0.1226  0.0225
  139SAPE   H7S15134   2.863   4.058   9.699  0.8696 -0.9002  0.7784
  139SAPE   C2815135   2.871   4.266   9.625 -0.3634 -0.2223 -0.3190
  139SAPE   H8R15136   2.904   4.367   9.652 -1.8675  0.5457 -1.2827
  139SAPE   C2915137   2.858   4.243   9.497  0.8118 -0.5165  0.1834
  139SAPE   H9R15138   2.859   4.332   9.432  2.0754  0.5380  1.6060
  139SAPE  C21015139   2.842   4.107   9.436  0.1902  0.1999 -0.3285
  139SAPE  H10R15140   2.783   4.118   9.343  1.8135  2.6031 -1.1362
  139SAPE  H10S15141   2.779   4.035   9.492 -0.4174  0.2434 -0.9542
  139SAPE  C21115142   2.977   4.053   9.406  0.5721  0.1898  0.3171
  139SAPE  H11R15143   3.039   4.044   9.497 -0.0507  3.3971  1.1262
  139SAPE  C21215144   3.023   4.001   9.288  0.2709  0.5708 -0.8562
  139SAPE  H12R15145   3.125   3.958   9.288  0.1938  0.3804 -0.0392
  139SAPE  C21315146   2.944   3.983   9.162 -0.0893 -0.1140 -0.0191
  139SAPE  H13R15147   2.940   4.079   9.105  1.0443  0.7014  1.2350
  139SAPE  H13S15148   2.839   3.965   9.191 -0.5890  1.1372 -1.0145
  139SAPE  C21415149   2.990   3.863   9.079 -0.3098 -0.5118 -1.0714
  139SAPE  H14R15150   3.038   3.782   9.137  2.3660  1.9298  0.2812
  139SAPE  C21515151   2.990   3.843   8.946  0.4231 -0.2488  0.6742
  139SAPE  H15R15152   3.022   3.756   8.887 -1.0088 -0.9201  0.8463
  139SAPE  C21615153   2.934   3.943   8.846 -0.0898  0.3006 -0.7166
  139SAPE  H16R15154   2.893   4.033   8.896  2.4701  0.7841  0.6204
  139SAPE  H16S15155   2.843   3.898   8.801 -0.4823  0.8854 -0.5115
  139SAPE  C21715156   3.036   3.984   8.743  0.7554 -0.1645  0.0651
  139SAPE  H17R15157   2.971   4.037   8.671 -1.4971 -0.4110  1.8799
  139SAPE  H17S15158   3.091   3.904   8.689  0.3536  0.1937 -0.8906
  139SAPE  C21815159   3.130   4.097   8.796 -0.3714 -0.6384  0.8969
  139SAPE  H18R15160   3.175   4.081   8.896  0.6258 -0.3143  0.5002
  139SAPE  H18S15161   3.068   4.189   8.801 -0.3976 -0.6615  1.0251
  139SAPE  C21915162   3.252   4.131   8.708  0.2872 -1.0804  0.2547
  139SAPE  H19R15163   3.208   4.139   8.606  0.9206  1.4873  0.1464
  139SAPE  H19S15164   3.318   4.042   8.717  0.1811 -0.9667  2.4982
  139SAPE  C22015165   3.327   4.262   8.743  0.5142  0.4343 -0.1179
  139SAPE  H20R15166   3.256   4.346   8.729  2.3584  1.8014 -1.4217
  139SAPE  H20S15167   3.412   4.279   8.674  1.0113 -0.3502  0.2940
  139SAPE  H20T15168   3.366   4.266   8.847  1.6531 -1.7698 -0.4251
  139SAPE   C3315169   3.022   3.477   9.989  0.5494  0.2811  0.9003
  139SAPE   H3X15170   3.052   3.374  10.017  0.9384  0.2624  0.4366
  139SAPE   H3Y15171   3.080   3.500   9.897 -0.1005  2.4307  1.0058
  139SAPE   C3415172   2.868   3.490   9.972 -1.1085 -0.0911  0.1052
  139SAPE   H4X15173   2.824   3.475  10.072 -4.0320  0.6028 -1.0444
  139SAPE   H4Y15174   2.838   3.403   9.909  0.7336 -0.6989  0.0093
  139SAPE   C3515175   2.809   3.622   9.926 -0.1653 -0.7515 -0.1220
  139SAPE   H5X15176   2.833   3.703   9.998 -1.0107 -1.2529  0.7502
  139SAPE   H5Y15177   2.699   3.628   9.933 -0.1547 -0.8511  0.1613
  139SAPE   C3615178   2.846   3.660   9.780  0.0422  0.2109 -0.7411
  139SAPE   H6X15179   2.852   3.560   9.731 -0.5512 -1.0470  1.7068
  139SAPE   H6Y15180   2.946   3.708   9.784  0.5744 -1.0284  1.1403
  139SAPE   C3715181   2.735   3.742   9.726  0.6423  0.2149 -0.2052
  139SAPE   H7X15182   2.717   3.841   9.774  0.4338  1.0670 -2.0119
  139SAPE   H7Y15183   2.634   3.698   9.744  0.5720  0.1719 -0.6852
  139SAPE   C3815184   2.748   3.781   9.579  0.2918  0.0943  0.3472
  139SAPE   H8X15185   2.853   3.818   9.575  0.4425 -0.2298  1.1505
  139SAPE   H8Y15186   2.673   3.860   9.557  0.8205  0.7498  0.8643
  139SAPE   C3915187   2.712   3.676   9.480  0.2242  0.0674  0.0932
  139SAPE   H9X15188   2.615   3.638   9.519 -0.2341 -0.7755 -1.8176
  139SAPE   H9Y15189   2.789   3.596   9.490  0.8054  0.3546 -1.7864
  139SAPE  C31015190   2.694   3.731   9.333 -0.5657 -0.0307  0.3770
  139SAPE  H10X15191   2.790   3.778   9.306 -0.0418 -1.2351  0.1058
  139SAPE  H10Y15192   2.611   3.804   9.347 -0.6621 -0.2521  0.9703
  139SAPE  C31115193   2.663   3.632   9.228  0.2830 -0.1037  0.0981
  139SAPE  H11X15194   2.575   3.574   9.263  2.2100 -2.3582  1.3007
  139SAPE  H11Y15195   2.745   3.558   9.229 -0.8341 -1.3452  0.5024
  139SAPE  C31215196   2.637   3.699   9.090  1.0490  0.4471 -0.6344
  139SAPE  H12X15197   2.668   3.806   9.096 -0.4591  0.8351  0.7749
  139SAPE  H12Y15198   2.527   3.715   9.084  0.8118 -1.1759 -0.7477
  139SAPE  C31315199   2.659   3.604   8.976  0.2270  0.3678  0.3089
  139SAPE  H13X15200   2.638   3.501   9.012  1.6765 -0.7070 -1.7883
  139SAPE  H13Y15201   2.764   3.599   8.939 -0.7368 -2.4963 -2.2266
  139SAPE  C31415202   2.566   3.632   8.856 -0.2081 -0.0977  0.1091
  139SAPE  H14X15203   2.568   3.737   8.821  0.3617 -0.3149 -0.5273
  139SAPE  H14Y15204   2.462   3.625   8.893 -0.5474  3.5184 -0.0166
  139SAPE  C31515205   2.587   3.550   8.730 -0.7364  0.1564 -0.4537
  139SAPE  H15X15206   2.584   3.442   8.754  0.8564 -0.1067 -1.3289
  139SAPE  H15Y15207   2.690   3.567   8.690 -0.7380  0.6471 -0.2565
  139SAPE  C31615208   2.478   3.581   8.627 -0.8238 -0.1710 -0.1048
  139SAPE  H16X15209   2.380   3.571   8.678  0.0228 -1.0421  1.4015
  139SAPE  H16Y15210   2.503   3.680   8.585  3.5900 -2.0258 -2.1001
  139SAPE  C31715211   2.466   3.489   8.505 -0.3505  0.5221  0.0385
  139SAPE  H17X15212   2.385   3.522   8.436  0.5931  1.8565 -0.4477
  139SAPE  H17Y15213   2.438   3.388   8.540 -2.7000  1.3917  0.7966
  139SAPE  C31815214   2.597   3.487   8.422  0.7026 -0.2000  0.3313
  139SAPE  H18X15215   2.581   3.430   8.328 -0.7029 -0.8948  0.9682
  139SAPE  H18Y15216   2.678   3.434   8.476  0.3649 -1.7314 -0.6267
  139SAPE  H18Z15217   2.629   3.592   8.402  0.5343  0.0518  1.3466
  140SAPE     N15218   6.048   1.146  10.913 -0.1055  0.1014 -0.5326
  140SAPE   HN115219   5.983   1.083  10.965  0.4563  0.6827  0.9021
  140SAPE   HN215220   6.089   1.094  10.833 -0.9513 -1.5306  0.0485
  140SAPE   HN315221   6.125   1.174  10.977 -0.0853 -1.7755  0.3039
  140SAPE   C1215222   5.971   1.261  10.853  0.3896  0.2292  0.2808
  140SAPE  H12A15223   6.037   1.299  10.772  1.4203 -2.5700 -0.2265
  140SAPE  H12B15224   5.959   1.331  10.939 -0.7895 -1.0535  1.1797
  140SAPE   C1115225   5.818   1.230  10.821 -0.1651 -0.2355 -0.1619
  140SAPE  H11A15226   5.821   1.152  10.741  0.3942  2.0212 -2.4112
  140SAPE  H11B15227   5.778   1.319  10.769 -0.5479 -1.0118 -1.2193
  140SAPE     P15228   5.686   1.040  10.939  0.0502  0.3785 -0.4921
  140SAPE   O1315229   5.797   0.956  10.991  0.0653  0.5354  0.0014
  140SAPE   O1415230   5.562   1.034  11.011  0.0890 -0.3594 -0.2210
  140SAPE   O1215231   5.735   1.195  10.939 -0.3733  0.3205  0.3953
  140SAPE   O1115232   5.650   1.002  10.788 -0.1395  0.0998  0.3094
  140SAPE    C115233   5.721   0.900  10.722 -0.0253 -0.4688  0.3148
  140SAPE    HA15234   5.828   0.921  10.702 -0.6634  0.2200 -2.5869
  140SAPE    HB15235   5.719   0.809  10.786 -1.2734 -0.9802 -0.4193
  140SAPE    C215236   5.661   0.867  10.585 -0.7427  0.9426 -0.0685
  140SAPE    HS15237   5.738   0.796  10.547 -1.2856 -0.0631  0.7009
  140SAPE   O2115238   5.654   0.988  10.511  0.2100  0.2476 -0.3704
  140SAPE   C2115239   5.760   1.018  10.429 -0.9154  0.1981 -0.7421
  140SAPE   O2215240   5.870   0.966  10.432  0.4439 -0.3170 -0.4351
  140SAPE   C2215241   5.732   1.129  10.334 -0.4121  0.2701 -0.1203
  140SAPE   H2R15242   5.623   1.147  10.322  0.0573  2.6595 -1.1494
  140SAPE   H2S15243   5.779   1.221  10.375 -0.8306  0.0324  0.9142
  140SAPE    C315244   5.530   0.790  10.595 -0.6854 -0.2725 -0.8863
  140SAPE    HX15245   5.460   0.859  10.647  2.4058  3.3572 -1.2658
  140SAPE    HY15246   5.544   0.705  10.665  0.1536  0.3907 -0.2221
  140SAPE   O3115247   5.482   0.730  10.469  0.2232  0.6566  0.2233
  140SAPE   C3115248   5.372   0.787  10.403  0.4230  0.7602 -0.0021
  140SAPE   O3215249   5.312   0.885  10.446  0.0962 -0.5269  0.0376
  140SAPE   C3215250   5.328   0.708  10.280  0.0926 -0.5739  0.3548
  140SAPE   H2X15251   5.263   0.621  10.303  0.1024 -0.7291 -0.2136
  140SAPE   H2Y15252   5.422   0.670  10.235  0.5338  2.0411 -1.0006
  140SAPE   C2315253   5.794   1.096  10.201 -0.0002  0.0208 -0.4723
  140SAPE   H3R15254   5.741   1.003  10.168 -1.0629  1.2773 -2.4453
  140SAPE   H3S15255   5.902   1.078  10.220  0.1988  0.7316 -0.9408
  140SAPE   C2415256   5.791   1.202  10.083  0.9154 -0.6291 -0.4475
  140SAPE   H4R15257   5.871   1.163  10.017  1.8566  3.4562 -1.8775
  140SAPE   H4S15258   5.830   1.301  10.116 -1.1033  0.8689 -2.3900
  140SAPE   C2515259   5.661   1.210  10.013  0.0608  0.2028  0.0089
  140SAPE   H5R15260   5.576   1.239  10.077  0.8033 -0.2965  1.2329
  140SAPE   C2615261   5.647   1.190   9.881  0.3004 -0.4469  0.6320
  140SAPE   H6R15262   5.546   1.185   9.837  0.1587  1.0662  0.7678
  140SAPE   C2715263   5.758   1.161   9.780 -0.7674 -0.7517 -0.6275
  140SAPE   H7R15264   5.843   1.224   9.816 -2.1272  0.1209  1.1531
  140SAPE   H7S15265   5.735   1.192   9.676 -1.1361 -2.0719 -0.9490
  140SAPE   C2815266   5.816   1.019   9.770 -0.7573  0.3435 -0.3807
  140SAPE   H8R15267   5.913   1.019   9.823 -0.3159 -0.0630 -1.1709
  140SAPE   C2915268   5.788   0.917   9.694 -0.0887  0.6897  0.0794
  140SAPE   H9R15269   5.855   0.830   9.689 -1.0495 -0.3017  3.2505
  140SAPE  C21015270   5.679   0.922   9.589  0.2219 -0.6183 -0.8903
  140SAPE  H10R15271   5.600   0.994   9.621  0.1654 -0.5776 -1.1194
  140SAPE  H10S15272   5.631   0.822   9.584 -0.6960 -0.1970 -0.7013
  140SAPE  C21115273   5.748   0.962   9.456 -0.1248  0.6871 -0.3349
  140SAPE  H11R15274   5.852   1.000   9.460  0.6162 -0.9616 -2.6071
  140SAPE  C21215275   5.693   0.942   9.328  0.2368  0.2161 -0.5360
  140SAPE  H12R15276   5.742   0.976   9.236  0.1889 -2.6503 -1.6643
  140SAPE  C21315277   5.559   0.877   9.310 -0.5208 -1.3673  0.3614
  140SAPE  H13R15278   5.520   0.849   9.410  0.9201 -1.0473  1.0353
  140SAPE  H13S15279   5.572   0.782   9.255  0.6728 -0.8348 -0.3109
  140SAPE  C21415280   5.462   0.962   9.237 -0.2132  0.1491 -0.2393
  140SAPE  H14R15281   5.384   1.002   9.303  0.1609 -1.0631  0.9614
  140SAPE  C21515282   5.451   0.964   9.104 -0.3604  0.0773  0.6969
  140SAPE  H15R15283   5.374   1.031   9.062 -1.2838 -1.1831  0.3484
  140SAPE  C21615284   5.544   0.886   9.012 -0.1335 -0.5207  0.2655
  140SAPE  H16R15285   5.588   0.794   9.056 -0.3952  0.3225  2.3110
  140SAPE  H16S15286   5.632   0.948   8.984  0.6404 -2.1880 -1.0808
  140SAPE  C21715287   5.492   0.842   8.869 -0.0472 -0.9913 -0.0377
  140SAPE  H17R15288   5.404   0.775   8.881 -1.4800  0.7234 -0.7132
  140SAPE  H17S15289   5.576   0.789   8.820 -0.5101 -0.0916 -1.8293
  140SAPE  C21815290   5.440   0.960   8.777  0.5417 -0.0147 -0.3438
  140SAPE  H18R15291   5.520   1.036   8.781  1.3013 -0.8723  1.3176
  140SAPE  H18S15292   5.344   0.998   8.819  0.4905 -0.7252  0.2004
  140SAPE  C21915293   5.404   0.924   8.627 -0.4914  0.3762  0.4032
  140SAPE  H19R15294   5.489   0.866   8.586 -0.4123  2.0026 -1.8782
  140SAPE  H19S15295   5.390   1.020   8.573 -1.0278 -0.0642 -0.2416
  140SAPE  C22015296   5.288   0.820   8.607  0.2487 -0.2952 -0.1503
  140SAPE  H20R15297   5.262   0.814   8.499  1.9331  1.3096 -0.6794
  140SAPE  H20S15298   5.197   0.867   8.651  0.7863  1.1724 -0.5555
  140SAPE  H20T15299   5.306   0.719   8.649  1.6409 -0.8620 -1.9962
  140SAPE   C3315300   5.262   0.792  10.167 -0.0870 -0.0775 -0.1960
  140SAPE   H3X15301   5.263   0.901  10.187  0.4600  0.5474 -3.4058
  140SAPE   H3Y15302   5.158   0.758  10.153 -0.5511  0.5300  1.5887
  140SAPE   C3415303   5.336   0.774  10.027 -0.5795  0.5102 -0.7945
  140SAPE   H4X15304   5.321   0.668   9.998 -0.7415  0.3521 -0.1344
  140SAPE   H4Y15305   5.443   0.797  10.047 -0.7141  0.8509 -0.4665
  140SAPE   C3515306   5.284   0.863   9.919  0.2056 -0.6334  0.0633
  140SAPE   H5X15307   5.308   0.963   9.959 -2.0093  0.3938 -1.1084
  140SAPE   H5Y15308   5.173   0.863   9.914  0.1062 -2.1618  1.6834
  140SAPE   C3615309   5.351   0.830   9.784 -0.2239 -0.2373  0.5443
  140SAPE   H6X15310   5.346   0.720   9.773  2.6270 -0.2479 -1.2111
  140SAPE   H6Y15311   5.461   0.843   9.794  0.4115 -1.8703 -3.4049
  140SAPE   C3715312   5.295   0.915   9.676 -0.3613  0.0895 -0.3548
  140SAPE   H7X15313   5.345   0.875   9.585 -0.2882  0.0134 -0.2800
  140SAPE   H7Y15314   5.329   1.018   9.699  2.0058 -0.5778 -0.6996
  140SAPE   C3815315   5.142   0.895   9.665  0.2178  0.3049 -0.1662
  140SAPE   H8X15316   5.081   0.977   9.709 -1.5399 -0.9149 -0.2528
  140SAPE   H8Y15317   5.112   0.813   9.733 -1.0868  1.4751  0.7027
  140SAPE   C3915318   5.092   0.859   9.524 -0.1746  0.1033 -0.6378
  140SAPE   H9X15319   4.984   0.833   9.534 -0.1094 -1.7736 -4.0532
  140SAPE   H9Y15320   5.157   0.775   9.491  0.8437  0.7315 -0.2480
  140SAPE  C31015321   5.086   0.987   9.437 -0.3632  0.0913  0.0426
  140SAPE  H10X15322   5.182   1.041   9.451 -0.8019  1.1200 -0.8646
  140SAPE  H10Y15323   5.000   1.052   9.462 -1.6721 -0.7364 -2.2080
  140SAPE  C31115324   5.063   0.938   9.296 -0.3110  0.6360 -0.1387
  140SAPE  H11X15325   4.976   0.871   9.279  0.3536 -0.6217  1.3305
  140SAPE  H11Y15326   5.141   0.869   9.256 -1.4514  0.2035 -1.7048
  140SAPE  C31215327   5.066   1.047   9.188 -0.2429 -0.1417  0.1119
  140SAPE  H12X15328   5.165   1.095   9.198 -0.0625 -0.7365  1.3556
  140SAPE  H12Y15329   4.991   1.126   9.209 -0.0366 -0.0147  0.3795
  140SAPE  C31315330   5.027   0.997   9.044 -0.4746  0.3550 -0.4935
  140SAPE  H13X15331   4.938   0.931   9.047 -0.4740  0.4377  2.9980
  140SAPE  H13Y15332   5.118   0.940   9.014 -0.3372  0.8738 -1.0718
  140SAPE  C31415333   5.009   1.109   8.940 -0.0237 -0.4334  0.4272
  140SAPE  H14X15334   5.106   1.164   8.946 -1.2075  1.8412 -0.6773
  140SAPE  H14Y15335   4.921   1.173   8.965  0.6963 -0.2649  2.6030
  140SAPE  C31515336   4.999   1.056   8.798 -0.2293 -0.6515 -0.4773
  140SAPE  H15X15337   4.902   1.005   8.782  1.1775 -3.2346 -1.2223
  140SAPE  H15Y15338   5.086   0.988   8.783  0.3897 -0.2153  1.0043
  140SAPE  C31615339   4.994   1.173   8.699  0.0501  0.8353 -0.3571
  140SAPE  H16X15340   5.084   1.239   8.697 -0.7104  1.9598  0.9155
  140SAPE  H16Y15341   4.906   1.241   8.703  0.6051  1.5066  0.8317
  140SAPE  C31715342   4.993   1.105   8.559 -0.3748 -0.0498 -0.6453
  140SAPE  H17X15343   4.895   1.053   8.552 -0.5417  0.1373  0.1884
  140SAPE  H17Y15344   5.080   1.036   8.551 -1.7976 -1.8765 -0.9346
  140SAPE  C31815345   5.002   1.193   8.431  0.0413  1.0214 -0.6757
  140SAPE  H18X15346   4.913   1.260   8.431 -0.4973  0.3152 -1.3285
  140SAPE  H18Y15347   5.017   1.127   8.343 -1.9064 -0.9166  0.4100
  140SAPE  H18Z15348   5.099   1.246   8.443  1.6659 -1.5118 -2.1595
  141SAPE     N15349   6.179   1.653  11.210 -0.4181  0.8379 -0.9140
  141SAPE   HN115350   6.187   1.750  11.247  0.5597  0.3638  0.1728
  141SAPE   HN215351   6.092   1.608  11.244  0.3840 -0.1332 -0.0805
  141SAPE   HN315352   6.262   1.603  11.249 -1.3295 -0.5222 -0.7221
  141SAPE   C1215353   6.181   1.665  11.057 -0.2286 -0.0685 -0.8135
  141SAPE  H12A15354   6.275   1.722  11.044  0.9727 -1.6674  0.6375
  141SAPE  H12B15355   6.098   1.734  11.033  0.4701  0.0748 -2.8963
  141SAPE   C1115356   6.194   1.530  11.009 -0.2380 -0.3857 -0.0766
  141SAPE  H11A15357   6.211   1.543  10.900 -1.1334 -0.1060 -0.1867
  141SAPE  H11B15358   6.100   1.471  11.018 -0.8780  0.8461  1.5966
  141SAPE     P15359   6.362   1.332  11.010 -0.3289  0.7014 -0.2188
  141SAPE   O1315360   6.497   1.313  11.052 -0.1597 -0.0461 -0.3847
  141SAPE   O1415361   6.270   1.222  11.037 -0.2195  0.3014  0.1389
  141SAPE   O1215362   6.308   1.464  11.076  0.3416 -0.2398 -0.1274
  141SAPE   O1115363   6.351   1.362  10.856 -0.2461  0.1212  0.1823
  141SAPE    C115364   6.445   1.429  10.774  0.3877 -0.2004  0.2633
  141SAPE    HA15365   6.424   1.537  10.759  0.6168  0.0039  1.3865
  141SAPE    HB15366   6.551   1.428  10.805 -0.1696 -2.4940  2.2800
  141SAPE    C215367   6.440   1.372  10.628 -0.3347  0.2142  0.4869
  141SAPE    HS15368   6.510   1.427  10.562  0.0343 -0.3780  0.3796
  141SAPE   O2115369   6.309   1.366  10.575  0.1305 -0.6809  0.2569
  141SAPE   C2115370   6.261   1.490  10.554  0.0494 -0.4192  0.3834
  141SAPE   O2215371   6.324   1.595  10.545  0.2143 -0.4971  0.3784
  141SAPE   C2215372   6.103   1.470  10.547 -0.0594 -0.5387 -0.0333
  141SAPE   H2R15373   6.085   1.361  10.561  0.5988 -0.4843  1.4160
  141SAPE   H2S15374   6.059   1.538  10.624 -0.6027  0.5142 -1.2686
  141SAPE    C315375   6.503   1.234  10.624  0.1025 -0.1430 -0.0109
  141SAPE    HX15376   6.460   1.181  10.713  2.8563  0.9923  2.0765
  141SAPE    HY15377   6.614   1.239  10.635  0.1920 -2.6399  0.7711
  141SAPE   O3115378   6.465   1.154  10.514  0.3698 -0.0559  0.9880
  141SAPE   C3115379   6.521   1.186  10.401 -0.3071  0.8914 -0.3406
  141SAPE   O3215380   6.596   1.281  10.380 -0.2234 -0.5939  0.3988
  141SAPE   C3215381   6.524   1.065  10.312 -0.0077  0.9467  0.5561
  141SAPE   H2X15382   6.420   1.037  10.284  0.2532 -2.1479  2.4289
  141SAPE   H2Y15383   6.554   0.970  10.360  0.8212  1.1637  0.4716
  141SAPE   C2315384   6.052   1.520  10.415 -0.1142 -0.1662 -0.0692
  141SAPE   H3R15385   6.093   1.623  10.407  2.0870 -0.7893  2.3801
  141SAPE   H3S15386   5.944   1.529  10.436 -0.2974 -3.2033  0.4810
  141SAPE   C2415387   6.076   1.430  10.293 -0.0805 -0.2566  0.3307
  141SAPE   H4R15388   6.024   1.468  10.203 -0.5240 -2.3230 -0.2957
  141SAPE   H4S15389   6.038   1.328  10.312  0.6600 -0.9856 -1.9259
  141SAPE   C2515390   6.219   1.435  10.251  1.0620 -0.6002  0.3066
  141SAPE   H5R15391   6.276   1.527  10.271 -1.6794  1.2568 -0.0345
  141SAPE   C2615392   6.274   1.345  10.166 -0.0999  0.1357 -0.5418
  141SAPE   H6R15393   6.383   1.348  10.154 -0.1480 -0.2264 -1.1449
  141SAPE   C2715394   6.207   1.222  10.105 -0.0985 -0.0743  0.5623
  141SAPE   H7R15395   6.098   1.238  10.092 -0.1247  0.1471  1.0220
  141SAPE   H7S15396   6.228   1.145  10.181 -0.1793 -0.2656  0.3907
  141SAPE   C2815397   6.280   1.168   9.973  0.0511  0.3903  0.7645
  141SAPE   H8R15398   6.376   1.122   9.999 -0.7896 -1.5934  0.3977
  141SAPE   C2915399   6.249   1.207   9.850  0.8034 -0.5648  0.5176
  141SAPE   H9R15400   6.314   1.164   9.771  2.7343 -0.2463  1.8918
  141SAPE  C21015401   6.130   1.297   9.807 -0.3842 -0.3417  0.3028
  141SAPE  H10R15402   6.095   1.353   9.896  1.8145 -0.0410  1.0157
  141SAPE  H10S15403   6.048   1.229   9.776  0.9057 -2.1281  0.6909
  141SAPE  C21115404   6.148   1.383   9.687 -0.0631 -0.0727  0.2503
  141SAPE  H11R15405   6.214   1.469   9.705 -1.8088  1.4122 -0.2315
  141SAPE  C21215406   6.095   1.367   9.563 -0.0100 -0.7134 -0.1743
  141SAPE  H12R15407   6.120   1.442   9.486 -0.9829  0.1509  0.3428
  141SAPE  C21315408   6.010   1.255   9.512  0.0570  0.0121  0.5943
  141SAPE  H13R15409   5.904   1.275   9.536  0.5473  1.3541  1.7528
  141SAPE  H13S15410   6.041   1.161   9.562  0.4395  0.7434  1.7341
  141SAPE  C21415411   6.015   1.232   9.362 -0.4563  0.1518  0.2063
  141SAPE  H14R15412   5.932   1.276   9.304  1.1966  0.8824 -1.6731
  141SAPE  C21515413   6.122   1.171   9.304 -0.1689 -0.6380  0.4430
  141SAPE  H15R15414   6.111   1.156   9.196 -3.3688 -1.7945  0.8781
  141SAPE  C21615415   6.248   1.116   9.357  0.0823 -0.0985 -0.5512
  141SAPE  H16R15416   6.270   1.027   9.295  1.0435  0.1771 -0.6002
  141SAPE  H16S15417   6.244   1.078   9.462 -1.4735 -1.6020 -1.1309
  141SAPE  C21715418   6.363   1.212   9.337 -0.7590  0.2017 -0.1580
  141SAPE  H17R15419   6.455   1.177   9.390  0.1658  1.6367 -0.8036
  141SAPE  H17S15420   6.348   1.303   9.399 -1.9262  0.4050 -0.7266
  141SAPE  C21815421   6.406   1.251   9.188  0.3047  0.0231 -0.0551
  141SAPE  H18R15422   6.505   1.300   9.201  0.2773  0.2421 -0.6675
  141SAPE  H18S15423   6.338   1.329   9.147  2.1043  0.6509 -1.9392
  141SAPE  C21915424   6.402   1.132   9.098 -0.5034 -0.2823 -0.2298
  141SAPE  H19R15425   6.299   1.091   9.086 -0.6861 -0.3064  1.3312
  141SAPE  H19S15426   6.440   1.039   9.145 -1.2020  1.2473  3.5668
  141SAPE  C22015427   6.473   1.153   8.963  0.1858  0.0707  0.3054
  141SAPE  H20R15428   6.455   1.068   8.894  1.0896  1.5423 -1.8178
  141SAPE  H20S15429   6.580   1.175   8.982 -0.0719  1.2083  0.4790
  141SAPE  H20T15430   6.419   1.237   8.914 -1.2798 -1.4112 -0.6521
  141SAPE   C3315431   6.597   1.096  10.172 -0.2647 -0.0910 -0.5389
  141SAPE   H3X15432   6.700   1.126  10.197 -0.3555  1.6202 -2.0992
  141SAPE   H3Y15433   6.551   1.188  10.128 -2.8960 -0.7918  0.6367
  141SAPE   C3415434   6.598   0.989  10.067  0.9014 -0.3731 -0.6381
  141SAPE   H4X15435   6.493   0.956  10.049  0.6244  1.1811 -2.0846
  141SAPE   H4Y15436   6.671   0.912  10.101  0.3890 -0.7406 -0.3582
  141SAPE   C3515437   6.648   1.041   9.923  0.8928  0.2097 -0.1582
  141SAPE   H5X15438   6.757   1.063   9.925  0.6976  1.2956 -0.7402
  141SAPE   H5Y15439   6.595   1.135   9.897  1.9205  1.3592  1.7793
  141SAPE   C3615440   6.617   0.931   9.819  0.0574 -0.6172  0.1326
  141SAPE   H6X15441   6.506   0.919   9.814 -0.2253  2.0797 -1.0940
  141SAPE   H6Y15442   6.673   0.838   9.839  2.1628  0.6606  0.3872
  141SAPE   C3715443   6.656   0.979   9.681 -0.1888 -0.3717 -0.5118
  141SAPE   H7X15444   6.763   1.009   9.682 -0.5275  0.9024 -1.0470
  141SAPE   H7Y15445   6.592   1.068   9.666 -1.4045 -0.9614  0.9860
  141SAPE   C3815446   6.622   0.874   9.571  0.5826  0.7433 -0.6339
  141SAPE   H8X15447   6.514   0.847   9.576  1.0414 -1.1575 -0.9036
  141SAPE   H8Y15448   6.675   0.778   9.585 -2.0702 -0.5790  0.5513
  141SAPE   C3915449   6.660   0.919   9.434 -0.1850  0.4577  0.6432
  141SAPE   H9X15450   6.771   0.915   9.433 -0.1903  0.4775 -0.8182
  141SAPE   H9Y15451   6.627   1.019   9.400 -0.4177  0.3047  0.4211
  141SAPE  C31015452   6.611   0.824   9.322 -0.6098  0.2069 -0.2652
  141SAPE  H10X15453   6.505   0.854   9.308 -0.7262 -0.7318 -1.4419
  141SAPE  H10Y15454   6.621   0.716   9.345  0.4706  0.1076 -1.1769
  141SAPE  C31115455   6.676   0.847   9.187 -0.8062 -0.3550 -0.7114
  141SAPE  H11X15456   6.780   0.809   9.201  0.6938  3.8757  0.7644
  141SAPE  H11Y15457   6.683   0.956   9.164 -0.3391 -0.0561  0.7728
  141SAPE  C31215458   6.605   0.783   9.062 -0.1095 -0.3432 -0.6305
  141SAPE  H12X15459   6.511   0.836   9.038 -0.2037 -0.2699 -0.1091
  141SAPE  H12Y15460   6.583   0.678   9.093  0.3121 -0.8567 -2.0317
  141SAPE  C31315461   6.701   0.771   8.941 -0.2176  0.3142  0.2242
  141SAPE  H13X15462   6.779   0.697   8.969  0.1427  1.5125  2.5612
  141SAPE  H13Y15463   6.766   0.861   8.928  0.8615 -0.5328 -0.3437
  141SAPE  C31415464   6.643   0.725   8.802 -0.0919 -0.6977 -0.1454
  141SAPE  H14X15465   6.562   0.794   8.769 -1.5207 -2.4536 -0.3787
  141SAPE  H14Y15466   6.612   0.619   8.796 -1.9369 -0.1573 -0.5619
  141SAPE  C31515467   6.741   0.736   8.680  0.9276 -0.5862  0.3459
  141SAPE  H15X15468   6.816   0.654   8.681  1.8998  0.2648 -1.3764
  141SAPE  H15Y15469   6.808   0.823   8.695  1.3531 -0.9364  0.4745
  141SAPE  C31615470   6.683   0.722   8.537 -0.1014  0.5381  0.2024
  141SAPE  H16X15471   6.596   0.790   8.528 -0.5768 -0.2329 -1.2068
  141SAPE  H16Y15472   6.645   0.618   8.531  0.6079  0.3412 -1.1483
  141SAPE  C31715473   6.781   0.744   8.419  0.2423  0.1466  0.3785
  141SAPE  H17X15474   6.871   0.681   8.438 -0.1253  0.4172  3.1343
  141SAPE  H17Y15475   6.817   0.849   8.419 -1.5998  0.8006  0.1328
  141SAPE  C31815476   6.714   0.719   8.278 -0.2348  0.6156  0.2312
  141SAPE  H18X15477   6.608   0.747   8.296 -0.7822 -1.8385  1.0510
  141SAPE  H18Y15478   6.720   0.613   8.245  0.1644  1.3752 -2.2887
  141SAPE  H18Z15479   6.755   0.787   8.201 -0.3061 -0.7737 -1.0741
  142SAPE     N15480   6.370   0.358  11.114  0.5554  0.1453  0.2879
  142SAPE   HN115481   6.295   0.290  11.137 -0.9517  0.9517 -2.0907
  142SAPE   HN215482   6.464   0.318  11.135  0.7492  0.5510  0.2125
  142SAPE   HN315483   6.346   0.429  11.187 -3.6011 -0.7575 -0.1095
  142SAPE   C1215484   6.341   0.417  10.980  0.2126 -0.5451  0.2904
  142SAPE  H12A15485   6.237   0.454  10.988 -0.8013 -2.8778 -1.5415
  142SAPE  H12B15486   6.338   0.328  10.915 -0.6850  0.0021 -0.4247
  142SAPE   C1115487   6.449   0.520  10.938 -0.5575  0.2944 -0.5672
  142SAPE  H11A15488   6.420   0.557  10.837 -2.7049  0.4571  0.0966
  142SAPE  H11B15489   6.554   0.484  10.929 -0.5080  0.4192 -0.4854
  142SAPE     P15490   6.563   0.730  11.066  0.0220 -0.0954 -0.5424
  142SAPE   O1315491   6.501   0.849  11.134 -0.1494 -0.5977  0.2451
  142SAPE   O1415492   6.658   0.650  11.144  0.4360  0.0044 -0.5161
  142SAPE   O1215493   6.444   0.640  11.022  0.5356  0.2995 -0.6718
  142SAPE   O1115494   6.636   0.766  10.934 -0.0249 -0.6286  0.2725
  142SAPE    C115495   6.558   0.817  10.819 -0.0441 -0.0534  0.3297
  142SAPE    HA15496   6.460   0.768  10.804  0.5623 -0.6739 -1.6244
  142SAPE    HB15497   6.526   0.921  10.844  0.9041  0.1221  0.8550
  142SAPE    C215498   6.635   0.819  10.683  0.1315 -1.1762 -0.0160
  142SAPE    HS15499   6.565   0.885  10.627 -1.0168  0.2932  3.0419
  142SAPE   O2115500   6.643   0.682  10.639  0.0799 -0.3361  0.0111
  142SAPE   C2115501   6.583   0.654  10.521  0.1200  0.5913 -0.4465
  142SAPE   O2215502   6.531   0.741  10.449 -0.3053  0.3515 -0.2360
  142SAPE   C2215503   6.583   0.501  10.495  0.0056 -0.8347  0.8585
  142SAPE   H2R15504   6.685   0.458  10.509 -0.3432 -1.5413  1.2154
  142SAPE   H2S15505   6.534   0.461  10.586 -0.2280  0.4427  1.3126
  142SAPE    C315506   6.771   0.889  10.689 -0.0443  0.7997  0.6972
  142SAPE    HX15507   6.831   0.817  10.750  0.8041  1.0332  0.1575
  142SAPE    HY15508   6.757   0.986  10.740 -0.1963  0.9195  0.4266
  142SAPE   O3115509   6.824   0.908  10.556  0.3584  0.1345 -0.6913
  142SAPE   C3115510   6.899   0.809  10.508 -0.0480 -0.2746 -0.7796
  142SAPE   O3215511   6.926   0.706  10.568  0.2090  0.1370  0.0988
  142SAPE   C3215512   6.940   0.842  10.366 -0.4810  0.2192 -0.1466
  142SAPE   H2X15513   7.032   0.903  10.377  0.7309 -1.7328  0.6942
  142SAPE   H2Y15514   6.854   0.892  10.316 -0.2226  3.0359  2.0820
  142SAPE   C2315515   6.490   0.454  10.381  0.5229 -0.7507  0.1604
  142SAPE   H3R15516   6.398   0.516  10.377  1.5190  0.6225 -2.7427
  142SAPE   H3S15517   6.447   0.356  10.410 -1.9685  0.3524  0.3527
  142SAPE   C2415518   6.553   0.426  10.244 -0.3210  0.0522  0.1586
  142SAPE   H4R15519   6.475   0.373  10.186 -1.3604 -1.2344  2.6470
  142SAPE   H4S15520   6.634   0.351  10.250 -2.3279 -2.1007  0.9711
  142SAPE   C2515521   6.580   0.558  10.178 -0.1124 -0.2710 -0.0638
  142SAPE   H5R15522   6.557   0.642  10.244  0.7229  0.0398 -0.1638
  142SAPE   C2615523   6.621   0.585  10.053  0.2428  0.3610 -0.4810
  142SAPE   H6R15524   6.622   0.694  10.040 -1.7251  0.4936  0.4152
  142SAPE   C2715525   6.642   0.491   9.944 -0.1102  0.2941  0.6385
  142SAPE   H7R15526   6.729   0.423   9.960  0.1858  0.1579 -1.3567
  142SAPE   H7S15527   6.688   0.541   9.856  0.5795 -0.3476  0.6276
  142SAPE   C2815528   6.518   0.417   9.896 -0.7609 -0.0437 -0.3689
  142SAPE   H8R15529   6.435   0.402   9.967 -0.1357 -1.3611  0.1074
  142SAPE   C2915530   6.498   0.368   9.775  0.4887  0.3410 -0.0256
  142SAPE   H9R15531   6.409   0.306   9.760  0.6257 -0.3508  1.8789
  142SAPE  C21015532   6.592   0.368   9.659  0.2361 -0.0531  0.5942
  142SAPE  H10R15533   6.694   0.403   9.686 -0.0541  2.5372 -1.4416
  142SAPE  H10S15534   6.561   0.454   9.596  3.1120  0.5330 -0.0813
  142SAPE  C21115535   6.599   0.235   9.578 -0.1730 -0.8420  0.2488
  142SAPE  H11R15536   6.647   0.156   9.637  0.3424 -1.7404 -1.3621
  142SAPE  C21215537   6.561   0.217   9.445 -0.3420  0.8914 -0.2675
  142SAPE  H12R15538   6.565   0.115   9.404 -0.7100  0.4337  0.8154
  142SAPE  C21315539   6.511   0.324   9.353  0.1890  0.5886  0.2616
  142SAPE  H13R15540   6.456   0.399   9.415  0.4821  0.2827  0.8997
  142SAPE  H13S15541   6.443   0.276   9.279  2.1215  0.7035 -1.6169
  142SAPE  C21415542   6.616   0.407   9.282  0.4190  0.1725 -0.1260
  142SAPE  H14R15543   6.685   0.455   9.353 -0.6087 -0.0189  1.0207
  142SAPE  C21515544   6.626   0.425   9.155 -0.6003 -0.2893  0.1889
  142SAPE  H15R15545   6.698   0.500   9.121  0.9564 -0.9493  1.9755
  142SAPE  C21615546   6.545   0.369   9.043  0.2083  1.4556  0.7882
  142SAPE  H16R15547   6.506   0.452   8.980  0.2644  0.3352 -0.7328
  142SAPE  H16S15548   6.457   0.309   9.074  1.0376 -0.2681 -0.0911
  142SAPE  C21715549   6.632   0.280   8.954 -0.1119  0.7219 -0.1959
  142SAPE  H17R15550   6.658   0.186   9.008 -2.3560  0.2431  0.0870
  142SAPE  H17S15551   6.720   0.339   8.920  0.1183 -1.0388 -2.8288
  142SAPE  C21815552   6.552   0.244   8.828 -0.3325 -0.6248  0.5644
  142SAPE  H18R15553   6.518   0.334   8.772  0.7887 -0.3871  0.2411
  142SAPE  H18S15554   6.475   0.172   8.861  1.1686 -2.8522 -0.6215
  142SAPE  C21915555   6.632   0.161   8.726  0.4564 -0.2970  0.4820
  142SAPE  H19R15556   6.588   0.060   8.718  2.3827 -1.1195  0.1358
  142SAPE  H19S15557   6.729   0.130   8.770  0.6621 -1.9931 -1.0882
  142SAPE  C22015558   6.660   0.215   8.582  0.7127  0.2726 -0.5149
  142SAPE  H20R15559   6.575   0.261   8.527  0.4920  1.4655  0.7860
  142SAPE  H20S15560   6.699   0.133   8.518  1.4484 -1.3763  1.9759
  142SAPE  H20T15561   6.737   0.295   8.582  0.2440  0.7423  0.7617
  142SAPE   C3315562   6.966   0.719  10.274  0.7503  0.0602 -0.1713
  142SAPE   H3X15563   6.880   0.650  10.264 -0.5921  1.5439  0.8950
  142SAPE   H3Y15564   7.052   0.658  10.312  0.5070 -0.6776 -0.8044
  142SAPE   C3415565   7.002   0.777  10.142  0.2171 -0.6111  0.2789
  142SAPE   H4X15566   7.104   0.820  10.135 -0.9827  2.0270 -2.1824
  142SAPE   H4Y15567   6.941   0.865  10.111 -0.8225 -1.3400  0.2401
  142SAPE   C3515568   7.010   0.679  10.020  1.0709 -1.0942 -0.2112
  142SAPE   H5X15569   6.919   0.616  10.025 -1.7469  2.9609  2.6336
  142SAPE   H5Y15570   7.092   0.607  10.045  0.0982 -2.7718 -1.7177
  142SAPE   C3615571   7.004   0.746   9.879  0.1048 -0.1877 -0.3707
  142SAPE   H6X15572   7.085   0.821   9.865 -0.2923  0.4497  0.7132
  142SAPE   H6Y15573   6.908   0.801   9.888  0.2246  0.0015 -0.2460
  142SAPE   C3715574   7.002   0.651   9.767 -0.1090  0.8928 -0.1164
  142SAPE   H7X15575   6.917   0.582   9.786  1.1988 -1.0975 -1.3014
  142SAPE   H7Y15576   7.098   0.597   9.773  2.2379  4.7312 -1.5587
  142SAPE   C3815577   6.983   0.703   9.628 -0.6718  0.0901 -0.8882
  142SAPE   H8X15578   7.077   0.759   9.606 -0.2701 -0.8978 -1.7278
  142SAPE   H8Y15579   6.899   0.776   9.627  0.7696  1.8035 -2.6735
  142SAPE   C3915580   6.959   0.594   9.523  0.2670  1.3240 -0.2746
  142SAPE   H9X15581   6.855   0.554   9.524  1.5405 -2.1527  0.1352
  142SAPE   H9Y15582   7.022   0.508   9.555 -1.3009  0.6522  1.0566
  142SAPE  C31015583   6.996   0.639   9.381 -0.5507 -0.3698  0.1485
  142SAPE  H10X15584   7.097   0.686   9.381 -2.2276  3.3975  0.1715
  142SAPE  H10Y15585   6.928   0.708   9.328  0.1865 -0.0484 -0.3914
  142SAPE  C31115586   6.995   0.520   9.278 -0.4893 -0.4533 -0.1128
  142SAPE  H11X15587   6.890   0.484   9.272 -0.8125  0.3450  0.7621
  142SAPE  H11Y15588   7.059   0.432   9.299 -2.1338 -1.9380 -1.1235
  142SAPE  C31215589   7.040   0.579   9.137  0.1908  0.3532 -0.5727
  142SAPE  H12X15590   7.143   0.621   9.138 -0.3238  1.6228 -0.2441
  142SAPE  H12Y15591   6.968   0.662   9.122 -2.3797 -1.6409  0.3964
  142SAPE  C31315592   7.032   0.490   9.018  0.3024  0.1311  1.1468
  142SAPE  H13X15593   6.937   0.434   9.004  0.8111 -0.9080  1.7535
  142SAPE  H13Y15594   7.108   0.413   9.041 -0.1013 -0.1653  1.5101
  142SAPE  C31415595   7.071   0.561   8.887  0.7349 -0.1725  0.0839
  142SAPE  H14X15596   7.166   0.617   8.898  0.9279 -0.3518 -0.6565
  142SAPE  H14Y15597   6.997   0.641   8.864  0.5116 -0.4257 -0.0845
  142SAPE  C31515598   7.091   0.481   8.755 -0.3755 -0.5923  0.1966
  142SAPE  H15X15599   6.997   0.430   8.727 -0.5101 -1.2923  1.8476
  142SAPE  H15Y15600   7.173   0.408   8.772  1.2244  1.2789  0.6560
  142SAPE  C31615601   7.147   0.563   8.640 -0.7217  0.3856  1.0799
  142SAPE  H16X15602   7.247   0.604   8.666 -0.2781 -0.4403  0.6961
  142SAPE  H16Y15603   7.086   0.650   8.610 -1.5288 -0.2761  0.7906
  142SAPE  C31715604   7.180   0.481   8.508 -0.3819 -0.9449  0.2564
  142SAPE  H17X15605   7.269   0.420   8.532  2.5544  2.6367 -1.1659
  142SAPE  H17Y15606   7.202   0.553   8.426  2.6410 -3.3755 -1.1385
  142SAPE  C31815607   7.063   0.388   8.455 -0.1571  0.0438  0.8521
  142SAPE  H18X15608   6.990   0.444   8.394 -0.4503  0.6015  1.6963
  142SAPE  H18Y15609   7.010   0.335   8.537  0.8871 -0.4278  1.2286
  142SAPE  H18Z15610   7.113   0.323   8.380 -1.7542  1.8273 -1.8179
  143SAPE     N15611   2.131   0.051  10.783  0.2437 -0.0765  0.2934
  143SAPE   HN115612   2.232   0.032  10.771 -0.0688 -1.8937  0.3725
  143SAPE   HN215613   2.090  -0.018  10.717  0.8590 -0.9202  0.7806
  143SAPE   HN315614   2.105   0.149  10.760 -2.0432 -0.6292  0.4282
  143SAPE   C1215615   2.095   0.016  10.921  0.1486  0.3784 -0.0625
  143SAPE  H12A15616   2.154  -0.072  10.952 -0.0561  0.9936  2.1619
  143SAPE  H12B15617   1.988  -0.015  10.918 -0.4499  2.4309 -1.2108
  143SAPE   C1115618   2.109   0.143  11.011 -0.3485  0.8333 -0.0906
  143SAPE  H11A15619   2.206   0.193  10.992  0.1849  0.8443  2.5460
  143SAPE  H11B15620   2.109   0.122  11.120 -0.0253  1.8008  0.0999
  143SAPE     P15621   1.867   0.222  11.049 -0.3136 -0.3030 -0.0083
  143SAPE   O1315622   1.837   0.081  11.093  0.0086  0.4970  0.4982
  143SAPE   O1415623   1.870   0.330  11.153 -0.0720  0.1982  0.0329
  143SAPE   O1215624   2.004   0.230  10.971 -0.7433 -0.1997  0.2611
  143SAPE   O1115625   1.769   0.269  10.944  0.1326 -0.1182 -0.5043
  143SAPE    C115626   1.763   0.248  10.808  0.0841 -0.3538  0.6472
  143SAPE    HA15627   1.848   0.181  10.784 -1.4762 -2.6130  1.2879
  143SAPE    HB15628   1.668   0.206  10.770  0.3780 -0.4779  0.0560
  143SAPE    C215629   1.803   0.377  10.725  0.8182 -0.4592  0.5110
  143SAPE    HS15630   1.902   0.418  10.757 -0.2317  2.1722  0.5389
  143SAPE   O2115631   1.706   0.486  10.753 -0.1704 -0.3374 -0.1405
  143SAPE   C2115632   1.730   0.612  10.711 -0.2674 -0.3426 -0.7349
  143SAPE   O2215633   1.832   0.649  10.659 -0.0010 -0.5074 -0.9429
  143SAPE   C2215634   1.600   0.697  10.740  0.1713 -0.5585 -0.4146
  143SAPE   H2R15635   1.519   0.622  10.744 -0.7330  0.3176 -1.7934
  143SAPE   H2S15636   1.602   0.749  10.838  3.3063 -0.9362 -0.2323
  143SAPE    C315637   1.826   0.347  10.579 -0.5192 -0.0318 -0.1647
  143SAPE    HX15638   1.902   0.268  10.558 -1.4238 -1.2616  1.0818
  143SAPE    HY15639   1.870   0.435  10.529  0.3087 -0.7161 -0.6484
  143SAPE   O3115640   1.700   0.301  10.511 -0.0432 -0.2045 -1.1263
  143SAPE   C3115641   1.704   0.225  10.402  0.1574 -0.4157  0.2757
  143SAPE   O3215642   1.803   0.175  10.360 -0.5697 -0.1026 -0.6006
  143SAPE   C3215643   1.570   0.193  10.332 -1.0126 -0.3559 -0.5451
  143SAPE   H2X15644   1.525   0.293  10.313 -0.5898  0.0100  0.3643
  143SAPE   H2Y15645   1.499   0.148  10.406 -0.6007  0.6619  0.4821
  143SAPE   C2315646   1.590   0.802  10.627  0.7457 -0.4377 -0.2122
  143SAPE   H3R15647   1.674   0.875  10.625  0.5444 -0.2361 -1.2553
  143SAPE   H3S15648   1.497   0.861  10.646  1.3902  1.1508 -1.8499
  143SAPE   C2415649   1.578   0.758  10.477 -0.1095 -0.0849  0.8221
  143SAPE   H4R15650   1.681   0.725  10.452 -0.7007  0.2958 -2.2244
  143SAPE   H4S15651   1.564   0.852  10.420  0.7960 -0.3355  0.1734
  143SAPE   C2515652   1.485   0.644  10.440  0.2409  0.7144  0.5620
  143SAPE   H5R15653   1.423   0.608  10.524 -0.8816  2.7991  0.6714
  143SAPE   C2615654   1.481   0.586  10.312  0.0433  0.0733 -0.5561
  143SAPE   H6R15655   1.412   0.507  10.280 -0.3800  0.4000 -0.4560
  143SAPE   C2715656   1.568   0.618  10.189 -0.3834  0.6801  0.3141
  143SAPE   H7R15657   1.649   0.689  10.216  0.0833  0.3680 -0.2596
  143SAPE   H7S15658   1.496   0.668  10.121  0.6533  0.9272 -0.6201
  143SAPE   C2815659   1.638   0.505  10.120  0.6311  0.4119  0.6278
  143SAPE   H8R15660   1.725   0.465  10.173  3.1564  1.6364 -2.3670
  143SAPE   C2915661   1.609   0.440  10.005 -0.4879  0.2527 -0.3283
  143SAPE   H9R15662   1.657   0.344   9.984 -0.2472  0.1441  0.7006
  143SAPE  C21015663   1.483   0.478   9.919 -0.0175  0.3693  0.2451
  143SAPE  H10R15664   1.404   0.506   9.991  1.7308  1.0818  1.9438
  143SAPE  H10S15665   1.447   0.391   9.861 -0.9211  0.5881  0.4674
  143SAPE  C21115666   1.539   0.577   9.815  0.0958 -0.0132  0.9953
  143SAPE  H11R15667   1.489   0.675   9.817 -0.8581 -0.4867  0.8175
  143SAPE  C21215668   1.626   0.549   9.710  0.1090 -1.0390 -0.0976
  143SAPE  H12R15669   1.646   0.628   9.636 -0.7297 -1.6712 -1.0185
  143SAPE  C21315670   1.698   0.419   9.666  0.4073  0.0723 -0.0481
  143SAPE  H13R15671   1.768   0.391   9.748  1.1416 -1.4255 -1.1743
  143SAPE  H13S15672   1.768   0.444   9.584 -2.1370  0.8628 -2.0641
  143SAPE  C21415673   1.605   0.305   9.621 -0.3027 -0.0617 -0.4050
  143SAPE  H14R15674   1.517   0.292   9.685  0.0743 -3.3746 -0.4720
  143SAPE  C21515675   1.629   0.209   9.536  0.0140 -0.3878  0.2548
  143SAPE  H15R15676   1.550   0.137   9.510  0.2198 -0.5687  0.1241
  143SAPE  C21615677   1.745   0.183   9.445 -0.2249 -0.1543 -0.4026
  143SAPE  H16R15678   1.780   0.082   9.475  0.4328 -0.4771 -2.2577
  143SAPE  H16S15679   1.823   0.261   9.460  0.1383 -0.6674  0.4552
  143SAPE  C21715680   1.698   0.189   9.293  0.0258 -0.4590  0.0190
  143SAPE  H17R15681   1.687   0.295   9.262  1.4448  0.6184  3.0203
  143SAPE  H17S15682   1.604   0.129   9.286 -0.7866  0.7128  0.7052
  143SAPE  C21815683   1.801   0.114   9.204  0.1109  0.2186  0.3295
  143SAPE  H18R15684   1.799   0.003   9.211  2.1237 -0.1162 -3.0828
  143SAPE  H18S15685   1.907   0.139   9.227  0.4751 -0.7562 -0.2461
  143SAPE  C21915686   1.771   0.129   9.048 -0.1074 -0.7697  0.0657
  143SAPE  H19R15687   1.730   0.231   9.034  2.0846 -0.1812 -2.3574
  143SAPE  H19S15688   1.693   0.054   9.024  0.2381 -0.9694 -0.4467
  143SAPE  C22015689   1.885   0.106   8.943 -0.8104 -0.3428  0.2005
  143SAPE  H20R15690   1.933   0.006   8.944 -0.5658 -0.2161  1.3772
  143SAPE  H20S15691   1.969   0.176   8.960  0.1195 -1.6175  0.9175
  143SAPE  H20T15692   1.825   0.118   8.850  1.9991  2.9579 -1.2979
  143SAPE   C3315693   1.585   0.116  10.211 -0.5938  0.7326  0.1047
  143SAPE   H3X15694   1.609   0.009  10.233  1.3111  1.2450  0.5833
  143SAPE   H3Y15695   1.682   0.148  10.167 -0.7881  1.6800  0.3575
  143SAPE   C3415696   1.465   0.114  10.117  0.0694  0.0189  0.2294
  143SAPE   H4X15697   1.431   0.216  10.089  0.4804  0.5401  1.5667
  143SAPE   H4Y15698   1.388   0.079  10.190  2.6785 -1.4451  2.3541
  143SAPE   C3515699   1.482   0.002  10.012 -0.8571 -0.2034 -0.0511
  143SAPE   H5X15700   1.385  -0.048   9.992 -0.2276 -2.3511  2.0918
  143SAPE   H5Y15701   1.549  -0.082  10.037  1.6337  1.5723 -0.4864
  143SAPE   C3615702   1.530   0.053   9.877 -0.9078  0.1215 -0.3343
  143SAPE   H6X15703   1.626   0.100   9.907  0.0415 -0.8317 -1.7718
  143SAPE   H6Y15704   1.456   0.121   9.829 -0.1850  0.6025 -0.7854
  143SAPE   C3715705   1.552  -0.059   9.778  0.0363 -0.0713 -0.0014
  143SAPE   H7X15706   1.586  -0.156   9.820  1.4379  0.6073  0.4599
  143SAPE   H7Y15707   1.634  -0.018   9.716 -0.2179  0.1736 -0.1737
  143SAPE   C3815708   1.433  -0.082   9.688  0.2461  0.1809  0.2942
  143SAPE   H8X15709   1.401   0.009   9.633  2.1893 -0.2267 -1.6039
  143SAPE   H8Y15710   1.352  -0.109   9.760  1.7706  0.6666  2.2278
  143SAPE   C3915711   1.456  -0.189   9.574  0.8677  0.7150 -0.0111
  143SAPE   H9X15712   1.386  -0.177   9.489  0.3415  0.6372  0.4048
  143SAPE   H9Y15713   1.436  -0.286   9.624 -2.0914  0.9258 -0.6817
  143SAPE  C31015714   1.600  -0.186   9.512  0.3689 -0.4021 -0.3953
  143SAPE  H10X15715   1.678  -0.210   9.588 -1.2637 -0.2720  1.3448
  143SAPE  H10Y15716   1.622  -0.078   9.500 -0.8450  0.1081  1.7824
  143SAPE  C31115717   1.618  -0.254   9.380  0.1124 -0.0324  0.4935
  143SAPE  H11X15718   1.550  -0.214   9.302  1.2190 -2.2149 -1.6367
  143SAPE  H11Y15719   1.593  -0.361   9.391 -1.2048  0.0754 -1.2668
  143SAPE  C31215720   1.760  -0.253   9.337 -0.7501 -0.5173 -0.3717
  143SAPE  H12X15721   1.819  -0.287   9.425  0.0891  1.7912  0.0072
  143SAPE  H12Y15722   1.788  -0.149   9.310  0.2569 -0.3035  1.3864
  143SAPE  C31315723   1.780  -0.328   9.208  0.3054  0.6301 -0.2719
  143SAPE  H13X15724   1.764  -0.434   9.237  0.7292  0.7589  0.4367
  143SAPE  H13Y15725   1.886  -0.319   9.176  0.4906 -1.5066 -0.3351
  143SAPE  C31415726   1.699  -0.304   9.082  0.2716  0.9119 -0.4510
  143SAPE  H14X15727   1.679  -0.197   9.062 -1.4202  0.6678 -0.1587
  143SAPE  H14Y15728   1.605  -0.358   9.106  0.2138  0.9204 -0.6585
  143SAPE  C31515729   1.758  -0.350   8.948 -0.1999 -0.4041  0.4573
  143SAPE  H15X15730   1.835  -0.280   8.908  0.8761 -2.2932 -0.8590
  143SAPE  H15Y15731   1.681  -0.327   8.871 -0.1522 -1.5314  0.0576
  143SAPE  C31615732   1.818  -0.494   8.953  0.3639 -0.4892  0.4021
  143SAPE  H16X15733   1.740  -0.556   9.002  0.7261 -1.0089  0.3210
  143SAPE  H16Y15734   1.911  -0.501   9.014  0.7596  1.4264  0.0558
  143SAPE  C31715735   1.848  -0.552   8.812  0.1949  0.0958  0.0884
  143SAPE  H17X15736   1.912  -0.643   8.819 -0.9953 -0.7315  0.2453
  143SAPE  H17Y15737   1.921  -0.485   8.760  0.3339 -2.8490 -3.7200
  143SAPE  C31815738   1.733  -0.575   8.719  0.4693  0.3107 -0.0822
  143SAPE  H18X15739   1.650  -0.502   8.729 -0.1528 -0.1904 -1.3762
  143SAPE  H18Y15740   1.675  -0.669   8.736  0.6484  0.4743  1.4800
  143SAPE  H18Z15741   1.765  -0.586   8.613 -3.6093 -1.4108 -1.2154
  144SAPE     N15742   5.150   5.264  10.761 -0.0789 -0.5078  0.0856
  144SAPE   HN115743   5.090   5.264  10.676  0.2575 -2.2063 -0.1842
  144SAPE   HN215744   5.243   5.303  10.734 -0.7469 -0.4300 -2.2057
  144SAPE   HN315745   5.169   5.164  10.784 -0.9481 -0.2489  1.9999
  144SAPE   C1215746   5.070   5.328  10.874 -0.0678  0.3166  0.8040
  144SAPE  H12A15747   5.145   5.320  10.955  0.4547 -0.7109  0.2181
  144SAPE  H12B15748   4.982   5.265  10.897 -0.0613 -0.7821 -2.0059
  144SAPE   C1115749   5.020   5.469  10.849 -0.1891 -0.6320 -0.2070
  144SAPE  H11A15750   5.112   5.526  10.823 -0.9211  0.5656 -0.2264
  144SAPE  H11B15751   4.969   5.511  10.939 -0.0916  1.5836 -1.1436
  144SAPE     P15752   4.787   5.555  10.741 -0.1187  0.1504  0.0767
  144SAPE   O1315753   4.705   5.516  10.861 -0.3908 -0.6689 -0.5450
  144SAPE   O1415754   4.817   5.700  10.734  0.4443 -0.3174  0.2149
  144SAPE   O1215755   4.928   5.470  10.743  0.4681 -0.8080  0.8512
  144SAPE   O1115756   4.709   5.517  10.615  0.2982 -0.0874  0.8757
  144SAPE    C115757   4.587   5.574  10.566 -0.2746  0.2782 -0.2100
  144SAPE    HA15758   4.520   5.577  10.655 -0.7583  2.5135 -0.6280
  144SAPE    HB15759   4.608   5.673  10.521 -1.1912 -0.1787 -1.6735
  144SAPE    C215760   4.516   5.469  10.478  0.5178 -0.3664 -0.0610
  144SAPE    HS15761   4.523   5.382  10.547  1.1166 -0.9292 -0.8109
  144SAPE   O2115762   4.599   5.435  10.362  0.1395 -0.1805 -0.0995
  144SAPE   C2115763   4.605   5.527  10.271  0.6242 -0.5222  0.2627
  144SAPE   O2215764   4.557   5.640  10.272 -0.0321  0.6811 -0.6268
  144SAPE   C2215765   4.678   5.465  10.157 -0.1479  0.7187  0.1458
  144SAPE   H2R15766   4.782   5.439  10.184  0.2524  0.1968 -1.8011
  144SAPE   H2S15767   4.619   5.379  10.120  2.0597 -0.7061 -0.1200
  144SAPE    C315768   4.367   5.492  10.456 -0.5187 -0.4780  0.1843
  144SAPE    HX15769   4.351   5.602  10.445  3.2158  0.2041  0.7639
  144SAPE    HY15770   4.304   5.469  10.544 -0.3183 -0.7226  0.2619
  144SAPE   O3115771   4.307   5.427  10.346 -0.7160  0.3230  0.8290
  144SAPE   C3115772   4.204   5.490  10.280 -0.1544  0.1239  0.2592
  144SAPE   O3215773   4.141   5.583  10.323  0.2976 -0.1228 -0.2301
  144SAPE   C3215774   4.171   5.428  10.145 -0.7080  0.4702 -0.3340
  144SAPE   H2X15775   4.069   5.461  10.116 -1.3404  0.7432  2.0895
  144SAPE   H2Y15776   4.177   5.318  10.156 -0.8498  0.3218 -1.6632
  144SAPE   C2315777   4.674   5.553  10.035 -0.2783 -0.0231 -0.7727
  144SAPE   H3R15778   4.708   5.654  10.065 -1.0251  0.9747 -3.2249
  144SAPE   H3S15779   4.569   5.554   9.999 -0.9156 -1.0285  0.9770
  144SAPE   C2415780   4.764   5.499   9.921 -0.1842 -0.3610  0.3292
  144SAPE   H4R15781   4.742   5.391   9.908  1.5437 -0.4804 -1.9196
  144SAPE   H4S15782   4.868   5.522   9.952 -0.2998 -1.6628  1.7225
  144SAPE   C2515783   4.733   5.567   9.791  0.9391  0.4001  0.3582
  144SAPE   H5R15784   4.689   5.667   9.805  3.0599  1.3699  0.2916
  144SAPE   C2615785   4.758   5.512   9.676  0.3869 -0.0484  0.3440
  144SAPE   H6R15786   4.750   5.573   9.585  1.4787 -2.2784 -1.2611
  144SAPE   C2715787   4.830   5.380   9.656 -0.3583  0.1018  0.4067
  144SAPE   H7R15788   4.785   5.328   9.569 -1.3061  3.0616 -0.9380
  144SAPE   H7S15789   4.832   5.299   9.733  1.8936 -0.2489  0.0140
  144SAPE   C2815790   4.971   5.406   9.611 -0.5077  0.0580  0.2474
  144SAPE   H8R15791   5.049   5.402   9.689  0.4234  2.8506 -0.4809
  144SAPE   C2915792   5.017   5.437   9.485 -0.4583  0.2744 -0.2527
  144SAPE   H9R15793   5.123   5.439   9.457 -0.7128  3.0446 -1.1721
  144SAPE  C21015794   4.930   5.456   9.361  0.7720  0.1433 -0.2579
  144SAPE  H10R15795   4.951   5.557   9.320  1.8989 -0.7701 -1.9813
  144SAPE  H10S15796   4.823   5.452   9.388  1.0192  3.4096  1.3950
  144SAPE  C21115797   4.961   5.332   9.275 -0.4542 -0.3383 -0.3926
  144SAPE  H11R15798   4.890   5.249   9.269  0.8391 -1.5033  0.0867
  144SAPE  C21215799   5.058   5.322   9.188  0.3885 -0.5020  0.0624
  144SAPE  H12R15800   5.074   5.227   9.135 -0.5481 -0.7041  0.1343
  144SAPE  C21315801   5.144   5.440   9.149  0.3416  0.4103 -0.3699
  144SAPE  H13R15802   5.200   5.461   9.243  0.2713  0.3066 -0.3038
  144SAPE  H13S15803   5.084   5.532   9.134 -0.8191 -0.1675  0.5896
  144SAPE  C21415804   5.240   5.394   9.046 -0.5288 -0.9348  0.4421
  144SAPE  H14R15805   5.338   5.359   9.080  0.4559  2.3417  1.1929
  144SAPE  C21515806   5.214   5.368   8.917  0.4366 -0.6252  0.2633
  144SAPE  H15R15807   5.305   5.349   8.858  0.0823 -0.2151 -0.4170
  144SAPE  C21615808   5.080   5.392   8.851 -1.1986 -0.4632  0.0686
  144SAPE  H16R15809   5.003   5.417   8.928 -1.2114  2.1681 -0.7855
  144SAPE  H16S15810   5.045   5.301   8.798  0.2216 -0.2945 -1.1730
  144SAPE  C21715811   5.086   5.511   8.756  0.5433  0.3827  0.5406
  144SAPE  H17R15812   5.154   5.496   8.669  1.3929  1.0477  1.0851
  144SAPE  H17S15813   5.135   5.596   8.808 -1.6640  0.7627  2.0264
  144SAPE  C21815814   4.952   5.563   8.705 -0.5265 -0.7010 -0.3986
  144SAPE  H18R15815   4.887   5.573   8.795 -1.6974 -1.5927 -1.1305
  144SAPE  H18S15816   4.895   5.487   8.647 -0.7199 -1.4672  0.7803
  144SAPE  C21915817   4.962   5.700   8.645 -0.2931 -0.1130  0.6845
  144SAPE  H19R15818   5.003   5.770   8.722 -3.3079  2.1306  0.3637
  144SAPE  H19S15819   4.859   5.739   8.627  0.6765  1.6796 -1.1722
  144SAPE  C22015820   5.033   5.708   8.516  0.6880 -0.0459 -0.4220
  144SAPE  H20R15821   4.967   5.701   8.427  0.6680  4.4008 -0.8663
  144SAPE  H20S15822   5.102   5.620   8.513 -0.3149 -0.8133 -0.9596
  144SAPE  H20T15823   5.093   5.802   8.517  3.1374 -1.5023  3.0815
  144SAPE   C3315824   4.271   5.477  10.031  0.0374  0.0522 -0.9839
  144SAPE   H3X15825   4.373   5.444  10.062 -1.7044 -4.3775  0.4776
  144SAPE   H3Y15826   4.293   5.584  10.014  2.7172 -0.3780 -0.3695
  144SAPE   C3415827   4.235   5.405   9.897  0.1295 -0.6603 -0.4598
  144SAPE   H4X15828   4.124   5.411   9.893  0.0500 -0.1134  1.7510
  144SAPE   H4Y15829   4.253   5.296   9.904  0.0179 -0.5209  3.1710
  144SAPE   C3515830   4.301   5.451   9.767 -0.5224 -0.3936  0.1569
  144SAPE   H5X15831   4.407   5.422   9.783 -0.4266  0.4409  1.1053
  144SAPE   H5Y15832   4.301   5.562   9.768 -0.9203 -0.3927  0.7331
  144SAPE   C3615833   4.248   5.394   9.645 -0.4909  0.2664  0.4268
  144SAPE   H6X15834   4.142   5.428   9.644 -0.4285  0.4548  0.1301
  144SAPE   H6Y15835   4.250   5.284   9.631 -0.0070  0.1356  1.4789
  144SAPE   C3715836   4.309   5.453   9.518  0.4352 -0.2170  0.0718
  144SAPE   H7X15837   4.419   5.435   9.509  0.6588  1.2394 -0.2847
  144SAPE   H7Y15838   4.293   5.561   9.541 -0.7422 -0.6195  1.1680
  144SAPE   C3815839   4.256   5.416   9.375 -1.0823  0.5974 -0.6277
  144SAPE   H8X15840   4.146   5.425   9.384 -0.9497  1.7873 -0.0361
  144SAPE   H8Y15841   4.283   5.313   9.341  2.0500  1.6948 -1.6962
  144SAPE   C3915842   4.303   5.509   9.266 -0.3963 -0.5876  0.5231
  144SAPE   H9X15843   4.248   5.606   9.268 -4.8105 -2.9665  3.2557
  144SAPE   H9Y15844   4.278   5.471   9.165  1.4186  1.3756 -0.7014
  144SAPE  C31015845   4.455   5.540   9.249 -0.0524  0.0459  0.1332
  144SAPE  H10X15846   4.500   5.584   9.341  1.4753 -2.7869  0.8025
  144SAPE  H10Y15847   4.457   5.620   9.172  0.0210 -2.3527 -2.4558
  144SAPE  C31115848   4.551   5.419   9.211 -0.7592  0.2046 -0.5531
  144SAPE  H11X15849   4.481   5.339   9.180 -0.8307  0.7333 -1.7992
  144SAPE  H11Y15850   4.603   5.389   9.305 -1.1847 -1.2717 -0.7807
  144SAPE  C31215851   4.666   5.440   9.108 -0.2750  0.5852 -0.0994
  144SAPE  H12X15852   4.732   5.352   9.098 -1.1289 -0.0638 -0.0465
  144SAPE  H12Y15853   4.725   5.523   9.152  1.5482 -0.9771  0.4534
  144SAPE  C31315854   4.626   5.471   8.968  1.0064 -0.0245  0.1080
  144SAPE  H13X15855   4.699   5.542   8.924 -1.9259  3.7168  1.0480
  144SAPE  H13Y15856   4.521   5.509   8.966  0.7996 -0.5939 -0.0003
  144SAPE  C31415857   4.625   5.346   8.874 -0.3287 -0.0600  0.0758
  144SAPE  H14X15858   4.537   5.278   8.881  1.1771 -2.1341 -0.5744
  144SAPE  H14Y15859   4.725   5.302   8.895  1.3147  3.2108 -0.4860
  144SAPE  C31515860   4.632   5.373   8.719  0.5735 -0.3512 -0.0754
  144SAPE  H15X15861   4.681   5.473   8.714  1.0704 -0.4520  2.3336
  144SAPE  H15Y15862   4.532   5.388   8.672  1.2348  1.5053 -0.9275
  144SAPE  C31615863   4.706   5.254   8.650 -0.1428  0.0564  0.0814
  144SAPE  H16X15864   4.640   5.164   8.650  0.7508 -0.6239  0.9957
  144SAPE  H16Y15865   4.797   5.236   8.711  1.3941  2.0944 -1.5300
  144SAPE  C31715866   4.741   5.284   8.507  0.7746  0.5881 -0.2161
  144SAPE  H17X15867   4.809   5.370   8.489 -0.1264  1.1208 -1.1092
  144SAPE  H17Y15868   4.655   5.305   8.440 -1.6022  0.8115  2.8216
  144SAPE  C31815869   4.809   5.157   8.454 -0.8145  0.0622  0.0149
  144SAPE  H18X15870   4.809   5.158   8.343  0.7113  1.9237 -0.0048
  144SAPE  H18Y15871   4.772   5.059   8.492 -1.4317  0.4917  0.5401
  144SAPE  H18Z15872   4.918   5.158   8.477 -0.2206  2.2587 -2.6316
  145SAPE     N15873   1.711   6.529  11.266  0.0997 -0.2782 -0.5970
  145SAPE   HN115874   1.708   6.632  11.274  2.3982 -0.2416  0.0989
  145SAPE   HN215875   1.779   6.498  11.338  1.5833  4.2293  0.0930
  145SAPE   HN315876   1.737   6.510  11.167  2.0196 -0.7227 -0.0381
  145SAPE   C1215877   1.577   6.462  11.278 -0.9754  0.4277  0.2423
  145SAPE  H12A15878   1.546   6.460  11.384  0.5533  0.1807  0.6950
  145SAPE  H12B15879   1.600   6.360  11.238  3.1002  0.7934  1.4110
  145SAPE   C1115880   1.465   6.535  11.200  0.7524 -0.4033 -0.7250
  145SAPE  H11A15881   1.380   6.463  11.205  1.0098 -0.5786  1.2939
  145SAPE  H11B15882   1.495   6.544  11.093 -0.1455  1.8176 -0.8221
  145SAPE     P15883   1.394   6.791  11.200 -0.0475 -0.2923 -0.5378
  145SAPE   O1315884   1.248   6.800  11.221 -0.3059 -0.1504 -0.2412
  145SAPE   O1415885   1.481   6.905  11.239  0.0917  0.4229  0.3300
  145SAPE   O1215886   1.444   6.655  11.274 -0.4362  0.5459 -0.6524
  145SAPE   O1115887   1.414   6.760  11.048 -0.3358 -0.2102  0.1262
  145SAPE    C115888   1.456   6.856  10.945 -0.1094 -0.0749 -0.0076
  145SAPE    HA15889   1.369   6.917  10.913  0.2102  0.2654 -0.2243
  145SAPE    HB15890   1.537   6.922  10.983  0.8062 -1.3881  0.3604
  145SAPE    C215891   1.510   6.780  10.821  1.1413 -0.4925 -0.6586
  145SAPE    HS15892   1.540   6.859  10.749 -0.2329  1.8308  1.2433
  145SAPE   O2115893   1.407   6.695  10.764 -0.0711  0.1646  0.0067
  145SAPE   C2115894   1.323   6.760  10.687  0.2274 -0.8567 -0.0972
  145SAPE   O2215895   1.313   6.883  10.672  0.4053  0.0576 -0.3710
  145SAPE   C2215896   1.218   6.660  10.631  0.0661  0.1805 -0.5441
  145SAPE   H2R15897   1.242   6.555  10.657 -0.2201  0.3027  0.2233
  145SAPE   H2S15898   1.132   6.687  10.695  0.7522  0.1287  0.4120
  145SAPE    C315899   1.624   6.684  10.851 -0.2486  0.0660 -0.1382
  145SAPE    HX15900   1.609   6.618  10.939  4.5542 -1.2097 -0.1596
  145SAPE    HY15901   1.721   6.734  10.872 -1.0582  1.3814  0.5625
  145SAPE   O3115902   1.648   6.590  10.746 -0.2954 -0.7072  0.1407
  145SAPE   C3115903   1.695   6.626  10.633  0.1334 -0.3075  0.2299
  145SAPE   O3215904   1.718   6.744  10.598  0.4225 -0.2388  0.6702
  145SAPE   C3215905   1.723   6.507  10.539  0.4058 -0.1351  0.9909
  145SAPE   H2X15906   1.640   6.436  10.558  0.3382  0.6631  3.7992
  145SAPE   H2Y15907   1.820   6.467  10.576  1.5534 -1.0466 -2.7159
  145SAPE   C2315908   1.202   6.695  10.482 -0.8884 -0.1871 -0.7958
  145SAPE   H3R15909   1.190   6.805  10.469 -1.4495 -0.2513 -0.8253
  145SAPE   H3S15910   1.104   6.650  10.453 -1.3946  0.2133  0.2382
  145SAPE   C2415911   1.316   6.638  10.396  0.1495 -0.0563 -0.0729
  145SAPE   H4R15912   1.413   6.661  10.446  0.5519  1.5205 -1.5414
  145SAPE   H4S15913   1.321   6.700  10.304  0.5605 -0.3581 -0.2607
  145SAPE   C2515914   1.277   6.496  10.379  0.5507  0.1747 -0.0258
  145SAPE   H5R15915   1.270   6.434  10.470 -0.7057  0.5746  0.1596
  145SAPE   C2615916   1.219   6.445  10.266  0.3602  0.0901 -0.3433
  145SAPE   H6R15917   1.182   6.342  10.269  0.2572  0.1590  1.3777
  145SAPE   C2715918   1.201   6.516  10.136  0.7382 -0.3882 -0.5051
  145SAPE   H7R15919   1.179   6.624  10.145 -2.2868 -1.0085 -0.0728
  145SAPE   H7S15920   1.103   6.490  10.090  0.5638  0.5697 -0.6666
  145SAPE   C2815921   1.323   6.491  10.048  0.9424 -0.1338 -0.0270
  145SAPE   H8R15922   1.418   6.515  10.100  1.3223  0.5726 -1.0352
  145SAPE   C2915923   1.316   6.443   9.925  0.6224 -0.1494 -0.3205
  145SAPE   H9R15924   1.412   6.437   9.871  0.7515 -1.0737  0.0097
  145SAPE  C21015925   1.196   6.402   9.843  0.4102  0.0791  0.2077
  145SAPE  H10R15926   1.117   6.371   9.915  1.9224 -0.5376  1.6462
  145SAPE  H10S15927   1.200   6.321   9.768  0.1071 -2.2303  2.5981
  145SAPE  C21115928   1.139   6.522   9.782  1.0665  0.3219  0.4958
  145SAPE  H11R15929   1.128   6.608   9.850 -0.3841  1.0670 -0.6496
  145SAPE  C21215930   1.113   6.540   9.646 -0.4317  0.2872 -0.1416
  145SAPE  H12R15931   1.084   6.641   9.613 -1.4171  0.3424  0.8596
  145SAPE  C21315932   1.145   6.444   9.537  0.0739  0.7023  0.6904
  145SAPE  H13R15933   1.072   6.360   9.533  1.7261 -0.6799 -2.0639
  145SAPE  H13S15934   1.248   6.408   9.561 -0.4039 -0.5432  0.8908
  145SAPE  C21415935   1.140   6.504   9.396 -0.6347 -0.5556  0.1325
  145SAPE  H14R15936   1.073   6.591   9.392  0.3655  0.2830  1.4365
  145SAPE  C21515937   1.212   6.465   9.282 -0.7336  0.2167 -0.9247
  145SAPE  H15R15938   1.199   6.504   9.180 -0.4543  1.5418 -0.4613
  145SAPE  C21615939   1.312   6.352   9.271 -0.4089  0.0797  0.0938
  145SAPE  H16R15940   1.322   6.300   9.368 -4.3436  0.5079  0.8319
  145SAPE  H16S15941   1.412   6.381   9.233 -0.2106  0.5114  0.9393
  145SAPE  C21715942   1.276   6.243   9.172 -0.2640 -0.0868  0.1652
  145SAPE  H17R15943   1.189   6.182   9.202 -0.3345 -0.1685 -0.2078
  145SAPE  H17S15944   1.365   6.176   9.168 -1.1488 -1.3653  1.3613
  145SAPE  C21815945   1.257   6.299   9.029  1.2420  0.1513  0.1382
  145SAPE  H18R15946   1.164   6.357   9.014  1.0453 -0.7941 -2.6721
  145SAPE  H18S15947   1.248   6.207   8.967  0.3284  0.5356 -0.2952
  145SAPE  C21915948   1.379   6.379   8.973 -0.0335  0.2894 -0.4839
  145SAPE  H19R15949   1.466   6.311   8.986 -1.6963 -1.6341  0.8512
  145SAPE  H19S15950   1.394   6.469   9.035  1.2385  1.4901 -2.4609
  145SAPE  C22015951   1.368   6.433   8.827 -0.0354 -0.4202 -0.4482
  145SAPE  H20R15952   1.333   6.355   8.756 -1.4474  0.2136 -0.4848
  145SAPE  H20S15953   1.459   6.478   8.782 -0.2393 -1.0083 -1.4569
  145SAPE  H20T15954   1.291   6.513   8.819  1.0531  0.6765 -0.1069
  145SAPE   C3315955   1.746   6.550  10.386 -0.0975 -0.9427 -1.2777
  145SAPE   H3X15956   1.832   6.620  10.380  1.6812 -2.6793  2.2358
  145SAPE   H3Y15957   1.654   6.595  10.344 -0.2075  0.5802  0.5237
  145SAPE   C3415958   1.775   6.426  10.294 -0.4635  0.2060 -0.5420
  145SAPE   H4X15959   1.714   6.337  10.322  1.4157 -1.0442 -0.3742
  145SAPE   H4Y15960   1.877   6.388  10.313 -0.3354  1.9048  2.3781
  145SAPE   C3515961   1.748   6.445  10.142  0.0978  0.8528 -0.1699
  145SAPE   H5X15962   1.640   6.468  10.128 -0.9260 -3.0858  0.7173
  145SAPE   H5Y15963   1.755   6.340  10.108  0.7989  0.2271  1.8712
  145SAPE   C3615964   1.858   6.526  10.069  0.0514  0.4445 -0.4859
  145SAPE   H6X15965   1.934   6.445  10.055  1.8946  2.0802 -0.1343
  145SAPE   H6Y15966   1.892   6.591  10.152  0.2028 -1.5326  1.0379
  145SAPE   C3715967   1.806   6.579   9.938 -0.4761 -0.2463  0.3428
  145SAPE   H7X15968   1.736   6.660   9.968  0.7975  0.9827  0.0154
  145SAPE   H7Y15969   1.738   6.511   9.881 -2.2675 -0.2009  2.3404
  145SAPE   C3815970   1.918   6.650   9.856 -0.8152  0.3392  0.2435
  145SAPE   H8X15971   1.950   6.733   9.922 -2.5056  1.5724 -0.4468
  145SAPE   H8Y15972   1.869   6.695   9.767  1.8318  2.7915 -0.0309
  145SAPE   C3915973   2.049   6.574   9.814  0.5217  0.1569  0.0035
  145SAPE   H9X15974   2.101   6.527   9.900 -0.2142  0.4029  0.5899
  145SAPE   H9Y15975   2.117   6.650   9.770  0.7996 -0.3487 -0.4415
  145SAPE  C31015976   2.019   6.467   9.705 -0.2002 -0.1126 -0.4556
  145SAPE  H10X15977   1.955   6.510   9.625 -1.9789  0.0729  1.0205
  145SAPE  H10Y15978   1.963   6.385   9.754 -0.7124  1.3414  1.4633
  145SAPE  C31115979   2.137   6.417   9.629  0.8331  0.0567 -0.4632
  145SAPE  H11X15980   2.211   6.366   9.694  1.6750  1.1107 -0.5876
  145SAPE  H11Y15981   2.179   6.506   9.577 -2.1973  1.1055 -1.1979
  145SAPE  C31215982   2.081   6.332   9.509  0.5066  0.7537 -0.5411
  145SAPE  H12X15983   2.019   6.405   9.453  1.4367  1.6832 -0.3853
  145SAPE  H12Y15984   2.029   6.243   9.551  1.7066  0.3027  0.0456
  145SAPE  C31315985   2.187   6.278   9.415 -0.0230 -0.1159 -0.7727
  145SAPE  H13X15986   2.258   6.215   9.473 -0.3369  0.5858  0.3730
  145SAPE  H13Y15987   2.240   6.362   9.364  0.8137 -0.4945 -0.5482
  145SAPE  C31415988   2.127   6.196   9.305 -0.4289 -0.7898 -0.2242
  145SAPE  H14X15989   2.096   6.263   9.222  0.6057  0.0230  0.0463
  145SAPE  H14Y15990   2.038   6.137   9.336 -0.7214 -0.4746 -0.4610
  145SAPE  C31515991   2.233   6.096   9.246  0.1426  0.7021  0.6788
  145SAPE  H15X15992   2.267   6.028   9.327  0.4406  0.5316  0.4071
  145SAPE  H15Y15993   2.315   6.143   9.189  2.2860 -1.8777  1.5318
  145SAPE  C31615994   2.154   5.999   9.152 -1.0498 -0.5942  0.6021
  145SAPE  H16X15995   2.071   5.964   9.218  0.0368 -0.7950  1.8840
  145SAPE  H16Y15996   2.218   5.913   9.124  1.9441  1.3959  1.0921
  145SAPE  C31715997   2.099   6.062   9.025  0.1792  0.2217  0.4874
  145SAPE  H17X15998   2.185   6.105   8.970 -1.4193 -0.0901 -2.3120
  145SAPE  H17Y15999   2.021   6.136   9.053 -0.0673  0.5574 -1.0704
  145SAPE  C31816000   2.035   5.949   8.945  0.1522 -0.5019  0.3565
  145SAPE  H18X16001   1.960   5.897   9.009  0.2399 -1.3361 -0.2088
  145SAPE  H18Y16002   2.111   5.868   8.930  2.7145  1.3558  2.7300
  145SAPE  H18Z16003   1.990   5.992   8.853 -1.1687 -1.6662  0.4459
  146SAPE     N16004   5.536   6.462  10.619  0.0203  0.3445  0.4669
  146SAPE   HN116005   5.443   6.468  10.664 -0.8600 -0.2752 -1.2231
  146SAPE   HN216006   5.582   6.548  10.583 -0.0795  0.1785 -0.0630
  146SAPE   HN316007   5.528   6.398  10.538  2.2367  0.4237  0.1570
  146SAPE   C1216008   5.635   6.409  10.724  0.0062  0.4699 -0.1126
  146SAPE  H12A16009   5.577   6.317  10.748 -0.5222  0.2643 -2.0909
  146SAPE  H12B16010   5.651   6.487  10.802 -1.2607 -0.5845  1.2512
  146SAPE   C1116011   5.775   6.372  10.673 -0.4310 -0.7925  0.3075
  146SAPE  H11A16012   5.823   6.461  10.628 -2.1918 -0.7572 -1.5966
  146SAPE  H11B16013   5.749   6.298  10.595  0.5365 -1.4831  0.6255
  146SAPE     P16014   5.883   6.165  10.800  0.0383 -0.2627 -0.3012
  146SAPE   O1316015   5.996   6.142  10.896  0.5105  0.1159  0.6027
  146SAPE   O1416016   5.751   6.101  10.841  0.6949  0.2892 -0.0173
  146SAPE   O1216017   5.864   6.320  10.778 -0.0551  0.8086 -0.5143
  146SAPE   O1116018   5.908   6.097  10.661  0.0237  0.5361  0.1965
  146SAPE    C116019   6.011   6.153  10.577 -0.3579 -0.3904  0.1802
  146SAPE    HA16020   5.988   6.260  10.558 -0.1849 -0.2227  0.9052
  146SAPE    HB16021   6.110   6.134  10.623  0.7187 -0.6806 -2.1412
  146SAPE    C216022   6.013   6.074  10.450  0.2471  0.1708 -0.2043
  146SAPE    HS16023   6.048   5.973  10.479 -1.6523  0.2156  2.3963
  146SAPE   O2116024   6.094   6.135  10.347 -0.0715  0.2617  0.0493
  146SAPE   C2116025   6.215   6.127  10.357 -0.3452  0.3746 -0.1030
  146SAPE   O2216026   6.274   6.078  10.454 -0.0859 -0.3246  0.1797
  146SAPE   C2216027   6.288   6.191  10.238  1.1324  0.3814 -0.2099
  146SAPE   H2R16028   6.276   6.111  10.162 -0.5600 -0.1100  0.5465
  146SAPE   H2S16029   6.235   6.285  10.211  0.4881 -0.2148 -1.0560
  146SAPE    C316030   5.874   6.057  10.391 -0.5660 -0.7399  0.6254
  146SAPE    HX16031   5.848   6.161  10.360 -0.7052 -0.9882 -0.0852
  146SAPE    HY16032   5.810   6.015  10.472 -0.0015 -1.0576  0.9021
  146SAPE   O3116033   5.864   5.986  10.273  0.2606 -0.6988 -0.0208
  146SAPE   C3116034   5.883   5.860  10.295  0.2611  0.2966  0.1340
  146SAPE   O3216035   5.902   5.804  10.400 -0.4982  0.3148  0.5619
  146SAPE   C3216036   5.867   5.787  10.157  0.1719  0.2916  0.2236
  146SAPE   H2X16037   5.772   5.731  10.170  0.1735 -0.0757 -1.2816
  146SAPE   H2Y16038   5.949   5.713  10.152 -0.3640 -0.2781 -0.2391
  146SAPE   C2316039   6.432   6.221  10.269 -0.1568 -0.2434  0.9842
  146SAPE   H3R16040   6.486   6.137  10.318 -1.7556 -3.0309 -1.9003
  146SAPE   H3S16041   6.431   6.302  10.345 -1.7782  2.4042 -1.7794
  146SAPE   C2416042   6.509   6.260  10.144 -0.2254  0.1900  0.9383
  146SAPE   H4R16043   6.439   6.307  10.072 -0.0306 -2.0365 -0.7686
  146SAPE   H4S16044   6.540   6.167  10.091 -3.7179 -0.7127  0.3730
  146SAPE   C2516045   6.630   6.348  10.177  0.1018 -0.0786  0.4936
  146SAPE   H5R16046   6.683   6.306  10.264 -2.2597 -1.1340  1.4611
  146SAPE   C2616047   6.674   6.456  10.108 -0.4201  0.1830 -0.2900
  146SAPE   H6R16048   6.766   6.506  10.140 -0.7609  0.3391  0.4508
  146SAPE   C2716049   6.608   6.509   9.979  0.1263 -0.3627 -0.2898
  146SAPE   H7R16050   6.678   6.590   9.949  1.0043  0.1605  2.9214
  146SAPE   H7S16051   6.509   6.557   9.992  0.1923 -0.4826  0.7522
  146SAPE   C2816052   6.610   6.407   9.872  0.3930  0.1849 -0.5034
  146SAPE   H8R16053   6.638   6.306   9.907  2.2559  0.0207 -2.3549
  146SAPE   C2916054   6.580   6.425   9.742  0.8462 -0.8806 -0.7546
  146SAPE   H9R16055   6.592   6.342   9.670 -1.8286 -0.4935 -1.7086
  146SAPE  C21016056   6.520   6.545   9.673 -0.5397  0.0582 -0.6895
  146SAPE  H10R16057   6.515   6.637   9.735 -0.4753 -0.3502 -0.0674
  146SAPE  H10S16058   6.414   6.525   9.649 -1.6447 -0.7672  4.3370
  146SAPE  C21116059   6.590   6.590   9.544 -0.4667  0.2612 -0.1547
  146SAPE  H11R16060   6.700   6.592   9.545 -0.4481 -0.5074  0.5569
  146SAPE  C21216061   6.531   6.619   9.430 -0.0839  0.9217  0.0929
  146SAPE  H12R16062   6.592   6.652   9.345  2.1496  0.1518  1.3718
  146SAPE  C21316063   6.380   6.619   9.404 -0.1589  0.2587 -0.6131
  146SAPE  H13R16064   6.348   6.723   9.381  1.4722  0.9512  0.1231
  146SAPE  H13S16065   6.316   6.588   9.490 -0.4887  1.1766 -0.5202
  146SAPE  C21416066   6.344   6.530   9.283  0.0999  0.4450 -0.0681
  146SAPE  H14R16067   6.272   6.451   9.308  0.9584 -0.1895  0.4521
  146SAPE  C21516068   6.351   6.571   9.153  0.4025  0.6468  0.4975
  146SAPE  H15R16069   6.327   6.507   9.067 -6.1536  1.5374  1.4118
  146SAPE  C21616070   6.409   6.697   9.109 -0.4214 -0.2778 -0.1567
  146SAPE  H16R16071   6.422   6.772   9.190 -2.6815 -1.0557  0.9839
  146SAPE  H16S16072   6.333   6.747   9.045 -0.6702  0.7270  0.9135
  146SAPE  C21716073   6.545   6.662   9.048  0.4307 -0.1014  0.0911
  146SAPE  H17R16074   6.616   6.625   9.124  0.6128  0.8208  0.3803
  146SAPE  H17S16075   6.600   6.751   9.011 -0.8551  0.1009 -1.4187
  146SAPE  C21816076   6.544   6.574   8.921 -0.8516 -0.4135  0.4267
  146SAPE  H18R16077   6.466   6.609   8.850  1.2396 -0.7737 -2.1261
  146SAPE  H18S16078   6.502   6.475   8.950  0.4516 -0.4444  2.2864
  146SAPE  C21916079   6.675   6.559   8.850 -1.0108  0.1549  0.2259
  146SAPE  H19R16080   6.760   6.545   8.921 -1.1965 -2.4264 -0.0231
  146SAPE  H19S16081   6.690   6.660   8.808 -0.5936 -0.0649 -0.1590
  146SAPE  C22016082   6.661   6.435   8.757  0.6621  0.0739  0.5632
  146SAPE  H20R16083   6.560   6.440   8.711  1.7211  0.6193 -1.7697
  146SAPE  H20S16084   6.661   6.340   8.814 -2.1856  1.0171  2.2555
  146SAPE  H20T16085   6.745   6.443   8.686  0.3451 -1.3345  0.0190
  146SAPE   C3316086   5.872   5.883  10.035  0.4247  0.1278  0.6241
  146SAPE   H3X16087   5.965   5.944  10.037  0.1985  0.4711  0.8323
  146SAPE   H3Y16088   5.785   5.953  10.034  0.7032  0.4739 -1.9085
  146SAPE   C3416089   5.878   5.802   9.900  0.7151 -0.2398  0.1196
  146SAPE   H4X16090   5.798   5.725   9.905  0.0760  0.5024  1.6881
  146SAPE   H4Y16091   5.974   5.746   9.894  0.5616 -0.3510 -1.6059
  146SAPE   C3516092   5.873   5.891   9.775 -0.7539 -0.5137 -0.4472
  146SAPE   H5X16093   5.964   5.953   9.787 -0.5591 -0.7581 -0.6736
  146SAPE   H5Y16094   5.781   5.952   9.758  0.2033  0.5821 -1.8480
  146SAPE   C3616095   5.895   5.813   9.648 -0.6646 -0.2432  0.3367
  146SAPE   H6X16096   5.805   5.750   9.629 -0.0840 -0.2926 -2.5369
  146SAPE   H6Y16097   5.981   5.743   9.657  0.0919  0.6598  0.1408
  146SAPE   C3716098   5.910   5.906   9.529  0.3045 -0.6438  0.1161
  146SAPE   H7X16099   5.994   5.975   9.553  2.0057 -0.8859 -4.6172
  146SAPE   H7Y16100   5.816   5.964   9.515  0.7426 -0.2433 -1.2704
  146SAPE   C3816101   5.945   5.843   9.394  0.1697  0.0721  0.3310
  146SAPE   H8X16102   5.860   5.789   9.348  0.6167  0.2078 -0.6821
  146SAPE   H8Y16103   6.021   5.762   9.404 -0.5606 -0.8831 -1.5798
  146SAPE   C3916104   6.002   5.951   9.305 -0.1182  0.0234 -0.4238
  146SAPE   H9X16105   6.087   5.996   9.362  0.3774  0.5314 -1.5586
  146SAPE   H9Y16106   5.931   6.036   9.299  0.4061  0.6102  1.3309
  146SAPE  C31016107   6.064   5.920   9.162 -0.1909 -0.2958 -0.2787
  146SAPE  H10X16108   5.980   5.888   9.097 -0.4042  1.3706 -0.8495
  146SAPE  H10Y16109   6.142   5.840   9.167 -1.2015 -1.3491 -1.1158
  146SAPE  C31116110   6.136   6.045   9.098  0.2057 -0.5205  0.4200
  146SAPE  H11X16111   6.188   6.101   9.178 -0.0498  1.3088 -0.6649
  146SAPE  H11Y16112   6.052   6.105   9.057 -2.3807 -3.1919  1.5671
  146SAPE  C31216113   6.248   6.003   8.998  1.0253  0.3120  0.3110
  146SAPE  H12X16114   6.193   5.945   8.920 -2.8571 -0.4090  3.4122
  146SAPE  H12Y16115   6.324   5.933   9.040 -0.4792 -1.9619 -0.6838
  146SAPE  C31316116   6.324   6.123   8.937  0.2683  0.4230 -0.1121
  146SAPE  H13X16117   6.357   6.198   9.013 -1.7828 -0.6757  1.9123
  146SAPE  H13Y16118   6.254   6.179   8.871 -0.0740 -0.0802 -0.1714
  146SAPE  C31416119   6.448   6.078   8.864 -0.5224 -0.6489  0.0576
  146SAPE  H14X16120   6.505   6.002   8.923  2.0241 -0.9593 -2.6514
  146SAPE  H14Y16121   6.522   6.160   8.848  1.2634 -2.2491 -0.1230
  146SAPE  C31516122   6.432   6.024   8.720 -0.2310 -0.5991 -0.2243
  146SAPE  H15X16123   6.363   6.098   8.674  0.9828 -0.1438 -1.3806
  146SAPE  H15Y16124   6.385   5.924   8.729 -2.5206  0.5568  1.0311
  146SAPE  C31616125   6.554   6.010   8.633  0.5338  0.3105 -0.3748
  146SAPE  H16X16126   6.634   5.950   8.682 -0.0005 -0.0039  0.1239
  146SAPE  H16Y16127   6.596   6.111   8.613  1.6724  0.1072  0.8940
  146SAPE  C31716128   6.513   5.938   8.499  0.5301  0.3582 -0.0989
  146SAPE  H17X16129   6.429   6.002   8.464 -0.2086 -0.6763 -0.2300
  146SAPE  H17Y16130   6.466   5.840   8.522  0.1329 -0.0962 -2.7053
  146SAPE  C31816131   6.623   5.911   8.406 -0.5716  0.4750  0.1208
  146SAPE  H18X16132   6.694   5.839   8.452 -1.2560  0.8670  1.8264
  146SAPE  H18Y16133   6.667   6.010   8.381  0.0125  1.2399  3.8329
  146SAPE  H18Z16134   6.600   5.864   8.309  0.9617  0.5800 -0.3054
  147SAPE     N16135   3.054   3.516   6.283 -0.3397 -1.4265 -0.1595
  147SAPE   HN116136   3.122   3.437   6.286  0.6118 -0.6740 -1.3206
  147SAPE   HN216137   3.107   3.604   6.270 -1.2807 -0.6669  1.0641
  147SAPE   HN316138   2.995   3.531   6.367 -0.7949  1.9093 -1.0037
  147SAPE   C1216139   2.952   3.489   6.178 -0.2159  0.1567  0.1894
  147SAPE  H12A16140   3.003   3.490   6.079 -1.0082 -3.1331 -0.2961
  147SAPE  H12B16141   2.872   3.565   6.183 -0.3547  0.0201  0.0452
  147SAPE   C1116142   2.892   3.353   6.189 -0.1560  0.5324 -0.1876
  147SAPE  H11A16143   2.976   3.280   6.187  0.3658  1.0422  2.0169
  147SAPE  H11B16144   2.828   3.322   6.103 -0.7523  1.7091 -0.1766
  147SAPE     P16145   2.656   3.324   6.332  0.2457  0.0369  0.0410
  147SAPE   O1316146   2.588   3.456   6.355  0.4244  0.3690 -0.2825
  147SAPE   O1416147   2.599   3.246   6.214 -0.5386 -0.0818  0.2363
  147SAPE   O1216148   2.812   3.355   6.317  0.0979  0.4910 -0.6299
  147SAPE   O1116149   2.650   3.238   6.456  0.1597  0.3516  0.3125
  147SAPE    C116150   2.728   3.115   6.482 -0.5127  0.2070 -0.5562
  147SAPE    HA16151   2.649   3.040   6.503  0.6066  0.1067  3.8146
  147SAPE    HB16152   2.796   3.092   6.398 -1.2980  0.0357 -1.1566
  147SAPE    C216153   2.827   3.127   6.606  0.1327  0.2441  0.0052
  147SAPE    HS16154   2.874   3.029   6.627 -0.4015  0.3643  1.9078
  147SAPE   O2116155   2.766   3.181   6.721 -0.5271  0.0640 -0.1580
  147SAPE   C2116156   2.662   3.114   6.775  0.4185  0.4441  0.1072
  147SAPE   O2216157   2.620   3.005   6.745 -0.4038 -0.3235 -0.1565
  147SAPE   C2216158   2.600   3.202   6.884  0.2294 -0.0809 -0.5245
  147SAPE   H2R16159   2.675   3.270   6.929  1.5940  0.3700 -3.3738
  147SAPE   H2S16160   2.526   3.257   6.821 -0.9162  0.3523  1.1726
  147SAPE    C316161   2.935   3.231   6.567 -0.1962 -0.2894  0.2002
  147SAPE    HX16162   2.905   3.338   6.568 -0.5831 -0.3496 -2.0787
  147SAPE    HY16163   2.962   3.214   6.460  1.3134  1.2773  0.3163
  147SAPE   O3116164   3.062   3.214   6.635 -0.0175  0.6591  0.0160
  147SAPE   C3116165   3.148   3.320   6.633  0.0673 -0.0811 -0.3454
  147SAPE   O3216166   3.133   3.421   6.571 -0.5268 -0.5715 -0.4335
  147SAPE   C3216167   3.263   3.298   6.741  0.2917 -0.1051 -0.5921
  147SAPE   H2X16168   3.324   3.390   6.729  1.1148 -1.0063 -3.6282
  147SAPE   H2Y16169   3.323   3.214   6.702 -0.9838 -1.1521 -0.3247
  147SAPE   C2316170   2.516   3.115   6.976  0.5871 -0.4410 -0.6029
  147SAPE   H3R16171   2.575   3.022   6.995  1.4004  0.2435  0.3099
  147SAPE   H3S16172   2.418   3.080   6.937  0.7933 -0.3440 -1.2076
  147SAPE   C2416173   2.479   3.187   7.103 -0.5084 -0.1317  0.0501
  147SAPE   H4R16174   2.450   3.292   7.084  0.8444 -0.1074 -1.9748
  147SAPE   H4S16175   2.578   3.211   7.147  0.3252 -0.8554 -1.4006
  147SAPE   C2516176   2.364   3.126   7.182  0.1544  0.4572  0.2822
  147SAPE   H5R16177   2.267   3.104   7.134  0.2401 -2.1990  1.2346
  147SAPE   C2616178   2.357   3.113   7.315 -0.0988  0.2762 -0.3680
  147SAPE   H6R16179   2.256   3.081   7.345  0.4418 -0.1067  1.0849
  147SAPE   C2716180   2.454   3.160   7.421  0.8262  1.2570  0.2959
  147SAPE   H7R16181   2.399   3.221   7.496 -0.5755 -0.6025  0.8256
  147SAPE   H7S16182   2.521   3.239   7.382  1.5507  0.2659 -0.5288
  147SAPE   C2816183   2.533   3.050   7.480  0.4029 -0.1420 -0.6523
  147SAPE   H8R16184   2.590   2.992   7.407  0.1978  1.1037 -1.8197
  147SAPE   C2916185   2.543   3.017   7.610 -0.1279 -0.0264  0.4890
  147SAPE   H9R16186   2.579   2.915   7.632  1.9270  0.8152  1.1188
  147SAPE  C21016187   2.478   3.092   7.718 -0.0256 -0.0007 -0.5889
  147SAPE  H10R16188   2.376   3.131   7.695 -0.6575 -0.9870  0.4951
  147SAPE  H10S16189   2.547   3.178   7.732  0.8855 -0.7843 -0.1651
  147SAPE  C21116190   2.448   3.007   7.839 -0.1690 -0.0584 -0.3276
  147SAPE  H11R16191   2.391   2.915   7.817 -0.8882 -0.0534  1.4076
  147SAPE  C21216192   2.482   3.025   7.965 -0.2412  0.1644  0.3155
  147SAPE  H12R16193   2.423   2.967   8.038 -0.5485  0.0661 -0.0097
  147SAPE  C21316194   2.557   3.141   8.027  0.1080  0.1202 -0.4442
  147SAPE  H13R16195   2.598   3.211   7.951  1.3196 -1.4155 -1.2200
  147SAPE  H13S16196   2.653   3.109   8.073 -0.4603  0.6210  1.1469
  147SAPE  C21416197   2.475   3.213   8.127 -0.0601 -0.0076 -0.2486
  147SAPE  H14R16198   2.421   3.295   8.079  0.0390 -1.2375 -2.5144
  147SAPE  C21516199   2.475   3.191   8.262  0.1303 -0.6902  0.4386
  147SAPE  H15R16200   2.413   3.260   8.322  0.4594 -0.0402  0.0285
  147SAPE  C21616201   2.558   3.087   8.335  0.0057  0.1145  0.5618
  147SAPE  H16R16202   2.661   3.129   8.334  0.2525 -0.4991 -0.5716
  147SAPE  H16S16203   2.557   2.991   8.278 -0.6954  0.3981  0.0921
  147SAPE  C21716204   2.517   3.055   8.479  0.1979  0.9655 -0.3206
  147SAPE  H17R16205   2.516   3.150   8.537 -0.8716  0.9280 -0.2613
  147SAPE  H17S16206   2.590   2.984   8.523 -0.1272  1.9488  1.8628
  147SAPE  C21816207   2.376   2.981   8.496 -0.4923  0.0292 -0.1356
  147SAPE  H18R16208   2.382   2.887   8.437  2.4249  0.2198 -0.2009
  147SAPE  H18S16209   2.288   3.037   8.457 -0.9122 -1.1511 -0.8835
  147SAPE  C21916210   2.329   2.944   8.636 -0.5897  0.0890 -1.1550
  147SAPE  H19R16211   2.407   2.893   8.697 -1.0280  0.3457 -0.3659
  147SAPE  H19S16212   2.242   2.876   8.625 -0.8328  0.0081  0.9436
  147SAPE  C22016213   2.280   3.056   8.729 -0.0047  0.1942  0.1220
  147SAPE  H20R16214   2.365   3.128   8.728 -0.0487  0.2493 -0.8780
  147SAPE  H20S16215   2.250   3.030   8.832  0.0479  1.2532  0.4076
  147SAPE  H20T16216   2.188   3.088   8.675  0.5508  1.4985 -0.0908
  147SAPE   C3316217   3.227   3.275   6.889  0.1960 -0.1500  0.0752
  147SAPE   H3X16218   3.163   3.184   6.892  0.9244 -0.8185 -3.2157
  147SAPE   H3Y16219   3.173   3.364   6.930 -0.5538 -0.2335 -0.7309
  147SAPE   C3416220   3.347   3.253   6.981  0.4176  0.5389 -0.8223
  147SAPE   H4X16221   3.414   3.341   6.973  2.0646 -0.6495 -0.2335
  147SAPE   H4Y16222   3.405   3.162   6.956  0.3677  0.3463 -0.2435
  147SAPE   C3516223   3.289   3.244   7.119 -0.1372 -0.1420  0.4100
  147SAPE   H5X16224   3.209   3.166   7.119  1.2124 -1.5848  1.9802
  147SAPE   H5Y16225   3.239   3.338   7.149  2.3847  0.5197  2.7558
  147SAPE   C3616226   3.395   3.220   7.231 -0.0405 -0.3321  1.0677
  147SAPE   H6X16227   3.470   3.301   7.225  0.1981 -0.5678  0.8953
  147SAPE   H6Y16228   3.450   3.124   7.216  0.4281  0.2630 -1.2415
  147SAPE   C3716229   3.328   3.238   7.373  0.0978  0.0473  0.1920
  147SAPE   H7X16230   3.255   3.155   7.387  2.1682 -1.4368  2.5891
  147SAPE   H7Y16231   3.290   3.342   7.372  0.7212  0.2735 -0.7823
  147SAPE   C3816232   3.427   3.210   7.491  0.2442 -0.2224 -0.3642
  147SAPE   H8X16233   3.511   3.282   7.479  0.1599  0.1359  1.0611
  147SAPE   H8Y16234   3.473   3.111   7.470  2.2395  0.5734  0.1181
  147SAPE   C3916235   3.364   3.225   7.627  0.1058 -0.3760  0.2845
  147SAPE   H9X16236   3.287   3.145   7.618  0.3398 -0.7479  1.5676
  147SAPE   H9Y16237   3.314   3.323   7.646  0.9662  0.0849  0.1606
  147SAPE  C31016238   3.458   3.210   7.753 -0.3515 -0.1842 -0.1578
  147SAPE  H10X16239   3.532   3.293   7.764 -0.4127 -0.2720  1.0004
  147SAPE  H10Y16240   3.517   3.118   7.736 -2.0561 -1.8507  2.6251
  147SAPE  C31116241   3.379   3.201   7.884 -0.1831  0.0066  0.1444
  147SAPE  H11X16242   3.317   3.109   7.890  0.7428 -0.5399  1.3397
  147SAPE  H11Y16243   3.309   3.287   7.879 -1.0096 -0.6600  0.1194
  147SAPE  C31216244   3.468   3.220   8.006 -0.3116 -0.2823 -0.7070
  147SAPE  H12X16245   3.542   3.301   7.988 -1.1471  1.2973  2.6288
  147SAPE  H12Y16246   3.524   3.126   8.026 -0.2866 -0.3480 -1.0816
  147SAPE  C31316247   3.384   3.256   8.126  0.4840 -0.6135 -0.1994
  147SAPE  H13X16248   3.301   3.183   8.136 -0.9578  1.1727  1.4091
  147SAPE  H13Y16249   3.337   3.353   8.100 -1.1251 -1.0746  0.9039
  147SAPE  C31416250   3.457   3.269   8.260 -0.3683 -0.4743 -0.0253
  147SAPE  H14X16251   3.543   3.336   8.241  0.6610 -2.6504 -3.4670
  147SAPE  H14Y16252   3.487   3.168   8.295 -0.1224  0.0067  1.1681
  147SAPE  C31516253   3.366   3.326   8.367 -0.1906  1.0392  0.0937
  147SAPE  H15X16254   3.305   3.242   8.408  1.4968 -0.2674 -0.0457
  147SAPE  H15Y16255   3.302   3.405   8.322 -1.5102 -0.4362 -0.6743
  147SAPE  C31616256   3.450   3.369   8.487  0.0819 -0.2156 -0.2440
  147SAPE  H16X16257   3.510   3.451   8.442 -1.1328 -0.2475 -1.9940
  147SAPE  H16Y16258   3.511   3.280   8.511 -0.0269  0.4750  2.8201
  147SAPE  C31716259   3.365   3.407   8.612 -0.0328  0.1292  0.0876
  147SAPE  H17X16260   3.436   3.402   8.697  1.2878 -0.1250 -1.0082
  147SAPE  H17Y16261   3.288   3.332   8.637  0.7952 -0.7611 -0.0298
  147SAPE  C31816262   3.302   3.554   8.611 -0.2464 -0.1896  0.5858
  147SAPE  H18X16263   3.267   3.581   8.713  1.1817 -4.0185  2.1594
  147SAPE  H18Y16264   3.227   3.558   8.529  0.3864  0.5895  0.0458
  147SAPE  H18Z16265   3.382   3.617   8.568 -0.1516 -1.1317 -0.6253
  148SAPE     N16266   3.428   1.884   6.608 -0.5394  0.5342  0.0965
  148SAPE   HN116267   3.530   1.899   6.594 -0.0702 -1.4142  1.3365
  148SAPE   HN216268   3.405   1.789   6.642 -0.6166  0.3888 -0.3558
  148SAPE   HN316269   3.378   1.915   6.521 -0.9271 -1.9692 -0.6004
  148SAPE   C1216270   3.391   1.983   6.712  0.0015 -0.6545  0.0916
  148SAPE  H12A16271   3.440   2.079   6.685 -3.2661  0.9796 -0.3075
  148SAPE  H12B16272   3.436   1.947   6.807  0.7280  0.9580  0.3749
  148SAPE   C1116273   3.244   2.007   6.726  0.1026 -0.4188  0.3668
  148SAPE  H11A16274   3.203   2.048   6.631  0.8184 -2.3449 -0.7898
  148SAPE  H11B16275   3.225   2.076   6.811  2.0847 -0.4543  0.8707
  148SAPE     P16276   3.042   1.836   6.702  0.2523 -0.2138  0.5629
  148SAPE   O1316277   3.023   1.902   6.567  0.0743  0.4258 -0.8307
  148SAPE   O1416278   3.033   1.691   6.705 -0.8145  0.5308  0.0298
  148SAPE   O1216279   3.189   1.880   6.743  0.1734  0.0647  0.1438
  148SAPE   O1116280   2.927   1.883   6.802 -0.4143  0.3402  0.6271
  148SAPE    C116281   2.945   1.875   6.945 -0.1744 -0.5665  0.3592
  148SAPE    HA16282   2.860   1.823   6.993 -1.9894  1.5491 -0.4889
  148SAPE    HB16283   3.031   1.811   6.972 -0.2193 -0.9044 -0.2818
  148SAPE    C216284   2.946   2.022   6.994 -0.0760 -0.2400 -0.3336
  148SAPE    HS16285   3.039   2.077   6.969 -1.7036  2.5891 -0.3105
  148SAPE   O2116286   2.925   2.024   7.136  0.2105  0.9527  0.4487
  148SAPE   C2116287   3.023   1.977   7.202  0.0917  0.1839 -0.1557
  148SAPE   O2216288   3.128   1.937   7.158 -0.1457 -0.2645  0.6065
  148SAPE   C2216289   2.992   1.978   7.351 -0.0137 -0.0066  0.4468
  148SAPE   H2R16290   2.914   2.055   7.365  0.6034  0.6310  0.4093
  148SAPE   H2S16291   2.939   1.883   7.372 -0.6005  0.1690 -0.2038
  148SAPE    C316292   2.830   2.092   6.919 -0.4767  0.3310  0.2449
  148SAPE    HX16293   2.752   2.021   6.886 -0.4043  0.6563 -0.6417
  148SAPE    HY16294   2.878   2.135   6.828 -0.7387  0.4735  0.1726
  148SAPE   O3116295   2.767   2.202   6.988 -0.1548  0.1700  0.1093
  148SAPE   C3116296   2.670   2.171   7.078  0.0534  0.2454  0.0966
  148SAPE   O3216297   2.626   2.056   7.104  0.5701 -0.3094 -0.2676
  148SAPE   C3216298   2.642   2.301   7.149  0.7876  0.5366  0.1168
  148SAPE   H2X16299   2.591   2.370   7.078  0.7435 -0.4368 -0.8188
  148SAPE   H2Y16300   2.736   2.354   7.174  0.4181  1.0857  0.3467
  148SAPE   C2316301   3.112   1.991   7.449 -0.2965  0.5393 -0.2888
  148SAPE   H3R16302   3.164   2.086   7.425 -0.2383  0.2225 -1.4283
  148SAPE   H3S16303   3.188   1.915   7.423 -0.3141  0.9951 -1.7084
  148SAPE   C2416304   3.085   1.986   7.598 -0.1030  1.3030 -0.0902
  148SAPE   H4R16305   3.182   1.997   7.651  0.9937 -0.6231 -1.6479
  148SAPE   H4S16306   3.042   1.885   7.616  3.5560 -0.0920  1.4199
  148SAPE   C2516307   2.981   2.084   7.644 -0.4635  0.2700  0.0776
  148SAPE   H5R16308   2.975   2.165   7.570  0.7544  0.6508  0.3924
  148SAPE   C2616309   2.889   2.062   7.742  0.0349  1.0374 -0.1186
  148SAPE   H6R16310   2.825   2.146   7.772  1.0872  1.2476  1.6665
  148SAPE   C2716311   2.863   1.937   7.826 -0.5453 -0.3284  0.2717
  148SAPE   H7R16312   2.893   1.854   7.759  1.3072  1.9316 -1.7774
  148SAPE   H7S16313   2.754   1.939   7.849 -0.9737 -0.8235 -1.6770
  148SAPE   C2816314   2.943   1.920   7.955 -0.0344  0.1579 -0.0324
  148SAPE   H8R16315   3.050   1.931   7.934  0.0611 -0.8136 -0.0657
  148SAPE   C2916316   2.899   1.900   8.084 -1.0165 -0.4188  0.0267
  148SAPE   H9R16317   2.972   1.897   8.166 -1.9448 -1.4409  0.8230
  148SAPE  C21016318   2.752   1.898   8.135 -0.3321  0.0324  0.1421
  148SAPE  H10R16319   2.754   1.865   8.241  0.0801 -0.6198 -0.0661
  148SAPE  H10S16320   2.694   1.826   8.074 -0.5113 -0.2308  0.6190
  148SAPE  C21116321   2.690   2.042   8.117 -0.2864  0.7942  0.2850
  148SAPE  H11R16322   2.654   2.058   8.015 -0.6517  0.7579  0.4087
  148SAPE  C21216323   2.685   2.140   8.208  0.0649  0.3833 -0.9128
  148SAPE  H12R16324   2.636   2.236   8.186 -1.2954 -0.4355 -1.4752
  148SAPE  C21316325   2.747   2.123   8.350  0.7661  0.1149  0.7383
  148SAPE  H13R16326   2.841   2.180   8.365  0.0342  1.2406  1.0858
  148SAPE  H13S16327   2.785   2.020   8.369 -2.0151 -1.1867 -0.4523
  148SAPE  C21416328   2.653   2.169   8.458  0.2451  0.5783  0.0942
  148SAPE  H14R16329   2.562   2.220   8.426 -0.4362 -0.8630 -0.2996
  148SAPE  C21516330   2.667   2.141   8.592  0.4898 -0.0396  0.8660
  148SAPE  H15R16331   2.602   2.191   8.666 -0.0272  0.2267  0.2426
  148SAPE  C21616332   2.786   2.067   8.650 -0.6996 -0.4122  0.2621
  148SAPE  H16R16333   2.844   2.136   8.714 -1.4678  0.3917  0.1008
  148SAPE  H16S16334   2.849   2.014   8.575 -0.4273  2.2359 -1.4327
  148SAPE  C21716335   2.733   1.966   8.739 -0.1060 -0.2323 -0.0970
  148SAPE  H17R16336   2.651   1.903   8.696 -0.5105  0.2514 -0.0374
  148SAPE  H17S16337   2.683   2.009   8.829  1.4335  1.2237  0.0835
  148SAPE  C21816338   2.851   1.880   8.799 -0.4445  0.2641  0.4484
  148SAPE  H18R16339   2.924   1.954   8.839  0.5658  1.0453 -2.6460
  148SAPE  H18S16340   2.889   1.833   8.705 -1.9397  1.7730 -0.9474
  148SAPE  C21916341   2.814   1.774   8.906  0.6226  0.1119  0.6169
  148SAPE  H19R16342   2.774   1.679   8.866 -1.4355  1.3973 -0.4540
  148SAPE  H19S16343   2.738   1.821   8.972  0.7102  0.7251  0.2889
  148SAPE  C22016344   2.946   1.753   8.984 -0.0955 -0.3309  0.9045
  148SAPE  H20R16345   2.970   1.847   9.038  0.0448  0.7176 -0.9366
  148SAPE  H20S16346   3.027   1.728   8.912 -0.6621 -1.9965  0.8180
  148SAPE  H20T16347   2.917   1.669   9.050  0.0966 -1.4172 -0.3695
  148SAPE   C3316348   2.576   2.280   7.282  0.4352  0.1718 -0.0199
  148SAPE   H3X16349   2.483   2.228   7.251  0.0338  1.4612 -0.9995
  148SAPE   H3Y16350   2.537   2.373   7.328 -0.7012 -0.3924  0.1753
  148SAPE   C3416351   2.675   2.220   7.374  0.3273 -0.0174 -0.0988
  148SAPE   H4X16352   2.769   2.278   7.386  0.3663  0.5537 -2.8442
  148SAPE   H4Y16353   2.696   2.120   7.330 -0.2780 -0.6111  0.9323
  148SAPE   C3516354   2.626   2.205   7.516 -0.5518 -0.3767  0.6137
  148SAPE   H5X16355   2.622   2.306   7.563 -0.1497  1.1084 -2.4110
  148SAPE   H5Y16356   2.706   2.144   7.565 -0.7661  0.0408  1.4950
  148SAPE   C3616357   2.490   2.136   7.542 -0.0090 -0.3742  0.6204
  148SAPE   H6X16358   2.485   2.046   7.477 -2.0745  1.9429 -2.5584
  148SAPE   H6Y16359   2.407   2.201   7.508  1.0475  1.3436  1.2576
  148SAPE   C3716360   2.461   2.107   7.690  0.7567 -0.2678  0.1697
  148SAPE   H7X16361   2.423   2.187   7.757  0.0706 -1.4973  1.2663
  148SAPE   H7Y16362   2.550   2.065   7.741  0.5681 -0.2936  0.4771
  148SAPE   C3816363   2.357   1.994   7.708 -0.1745 -0.3417 -0.1645
  148SAPE   H8X16364   2.378   1.909   7.639 -0.1847  1.3121 -2.2430
  148SAPE   H8Y16365   2.252   2.016   7.682 -0.6272 -2.5764 -0.3454
  148SAPE   C3916366   2.357   1.940   7.855 -0.0898 -0.5114 -0.1274
  148SAPE   H9X16367   2.308   2.022   7.911  0.7920  0.1482 -0.3114
  148SAPE   H9Y16368   2.464   1.932   7.883  0.0740  2.4361  0.2746
  148SAPE  C31016369   2.290   1.802   7.882  0.1404  0.3285  0.0056
  148SAPE  H10X16370   2.346   1.723   7.829  0.2521  1.6920 -1.9631
  148SAPE  H10Y16371   2.185   1.807   7.848 -0.1541  1.3694  1.0149
  148SAPE  C31116372   2.278   1.752   8.034  0.4837 -0.5471  0.0834
  148SAPE  H11X16373   2.250   1.644   8.033 -1.3789 -0.0704 -0.5461
  148SAPE  H11Y16374   2.213   1.821   8.093 -1.0970  0.1725 -2.4298
  148SAPE  C31216375   2.412   1.762   8.116 -0.8393 -0.6276 -0.3816
  148SAPE  H12X16376   2.449   1.864   8.141  3.5708 -1.9520 -1.1562
  148SAPE  H12Y16377   2.494   1.729   8.049 -0.2413  2.5281 -1.2536
  148SAPE  C31316378   2.401   1.687   8.247 -0.0513 -1.3711 -0.2066
  148SAPE  H13X16379   2.360   1.589   8.215  0.2822 -1.8741  0.8573
  148SAPE  H13Y16380   2.335   1.728   8.326  0.8613  1.3427 -0.8077
  148SAPE  C31416381   2.542   1.660   8.316  0.0638  0.3897  0.0500
  148SAPE  H14X16382   2.587   1.740   8.379 -0.2546  0.7854 -0.2228
  148SAPE  H14Y16383   2.623   1.640   8.243  0.7125 -1.4186  1.2129
  148SAPE  C31516384   2.533   1.546   8.418 -0.3707 -0.3204 -0.2087
  148SAPE  H15X16385   2.496   1.461   8.356  0.8015 -1.3408  0.4686
  148SAPE  H15Y16386   2.454   1.574   8.490 -0.9331 -0.8370 -0.6186
  148SAPE  C31616387   2.672   1.528   8.472 -0.3406 -0.0158 -0.2626
  148SAPE  H16X16388   2.705   1.611   8.538 -1.5135  2.7122 -2.9652
  148SAPE  H16Y16389   2.733   1.524   8.380 -1.1295 -0.5264 -0.7710
  148SAPE  C31716390   2.682   1.403   8.551  0.4996 -0.4878 -0.0658
  148SAPE  H17X16391   2.665   1.310   8.492 -0.7037 -0.5770  0.4133
  148SAPE  H17Y16392   2.604   1.406   8.630  0.5557  2.4830 -0.0581
  148SAPE  C31816393   2.811   1.398   8.633  0.8047  0.0123 -0.3098
  148SAPE  H18X16394   2.811   1.319   8.711 -0.7894  0.7090  0.4186
  148SAPE  H18Y16395   2.817   1.488   8.699 -1.6905 -0.3612  0.5114
  148SAPE  H18Z16396   2.905   1.390   8.576  0.6246  0.6107 -0.6982
  149SAPE     N16397   2.564   2.544   6.080  0.6832 -0.1770 -0.1337
  149SAPE   HN116398   2.650   2.562   6.134  0.6105  0.9683 -0.3899
  149SAPE   HN216399   2.539   2.456   6.131  0.7021 -0.9198 -1.3956
  149SAPE   HN316400   2.581   2.521   5.980  0.5648  0.4871 -0.3092
  149SAPE   C1216401   2.447   2.636   6.101 -0.2176  0.2622  0.4235
  149SAPE  H12A16402   2.374   2.612   6.020 -1.6061  1.2311  1.3684
  149SAPE  H12B16403   2.493   2.737   6.099  3.8150 -1.5260 -0.8342
  149SAPE   C1116404   2.370   2.622   6.236 -0.3499 -0.4105 -0.8679
  149SAPE  H11A16405   2.321   2.522   6.245 -1.0968  0.1025  1.1487
  149SAPE  H11B16406   2.282   2.691   6.231 -0.5872 -0.5748  0.6798
  149SAPE     P16407   2.487   2.541   6.453 -0.3080  0.0604  0.3017
  149SAPE   O1316408   2.551   2.432   6.379  0.4458  0.0872 -0.1445
  149SAPE   O1416409   2.566   2.605   6.559 -0.4444  0.5779  0.2091
  149SAPE   O1216410   2.450   2.651   6.343  0.0559 -0.1109  0.1704
  149SAPE   O1116411   2.340   2.498   6.514 -0.7124  0.2619 -1.0904
  149SAPE    C116412   2.263   2.600   6.581 -0.0872 -0.0363 -0.1159
  149SAPE    HA16413   2.316   2.693   6.612 -0.1985 -0.9600  3.0908
  149SAPE    HB16414   2.177   2.630   6.519 -0.1241  0.0565 -0.0215
  149SAPE    C216415   2.199   2.551   6.715 -0.1171  0.2680 -0.4289
  149SAPE    HS16416   2.115   2.619   6.741 -0.8494 -0.6885 -0.2607
  149SAPE   O2116417   2.288   2.549   6.828  0.8050  0.2502  0.5192
  149SAPE   C2116418   2.321   2.670   6.878 -0.5441  0.0833 -0.1517
  149SAPE   O2216419   2.290   2.781   6.836  0.0732  0.1023  0.1001
  149SAPE   C2216420   2.413   2.651   6.998 -0.2774 -0.2108 -0.1138
  149SAPE   H2R16421   2.410   2.543   7.023  1.0000  0.2497  2.1790
  149SAPE   H2S16422   2.515   2.674   6.959 -0.2494  1.4271  0.8835
  149SAPE    C316423   2.143   2.407   6.689 -0.3547  0.3051 -0.2066
  149SAPE    HX16424   2.233   2.341   6.689  0.3100  1.1959 -1.3536
  149SAPE    HY16425   2.110   2.405   6.583  2.5468 -0.2722 -1.1450
  149SAPE   O3116426   2.037   2.366   6.776 -0.2386  0.1319  0.3269
  149SAPE   C3116427   2.079   2.290   6.885  0.1941 -1.1641 -0.0438
  149SAPE   O3216428   2.194   2.276   6.913  0.0105  0.6240 -0.0705
  149SAPE   C3216429   1.959   2.247   6.966 -0.5315 -0.8737  0.5791
  149SAPE   H2X16430   1.912   2.170   6.901 -1.4511 -0.5585  0.8667
  149SAPE   H2Y16431   1.890   2.333   6.975  0.9269  0.4868 -0.8563
  149SAPE   C2316432   2.363   2.720   7.123  0.1810  0.2026  0.2750
  149SAPE   H3R16433   2.265   2.673   7.147 -0.4320  1.3855  0.1286
  149SAPE   H3S16434   2.338   2.828   7.110 -1.2739 -0.0000  1.1612
  149SAPE   C2416435   2.456   2.704   7.245  0.2763 -0.2905 -0.0839
  149SAPE   H4R16436   2.545   2.768   7.228  1.2332 -1.0371  1.9654
  149SAPE   H4S16437   2.494   2.600   7.254 -3.2120 -1.5340  1.1421
  149SAPE   C2516438   2.383   2.758   7.369 -0.2318  0.4368  0.0777
  149SAPE   H5R16439   2.326   2.851   7.358  0.0636  0.4777 -1.2525
  149SAPE   C2616440   2.374   2.695   7.491 -0.0394 -1.1464 -0.3114
  149SAPE   H6R16441   2.295   2.733   7.557 -0.1497 -0.0679 -1.0567
  149SAPE   C2716442   2.434   2.568   7.540  0.2425  0.0949  0.5623
  149SAPE   H7R16443   2.390   2.482   7.485  2.2059  0.5698 -1.8153
  149SAPE   H7S16444   2.396   2.547   7.642 -0.3911 -1.6876 -0.0263
  149SAPE   C2816445   2.584   2.566   7.524 -0.3851  0.0039 -0.1157
  149SAPE   H8R16446   2.626   2.538   7.427  1.3223 -2.0015  1.1640
  149SAPE   C2916447   2.666   2.594   7.635  0.0324  0.4811  0.0326
  149SAPE   H9R16448   2.775   2.597   7.623 -0.0968 -1.5026 -2.0679
  149SAPE  C21016449   2.607   2.625   7.770 -0.8261  0.4623  0.4102
  149SAPE  H10R16450   2.517   2.688   7.762 -1.1817  0.1115  1.5746
  149SAPE  H10S16451   2.683   2.692   7.817 -0.5274  0.0091  0.5833
  149SAPE  C21116452   2.566   2.498   7.840 -0.0036 -0.8621 -0.7686
  149SAPE  H11R16453   2.552   2.408   7.778  1.4245 -2.1678  0.7762
  149SAPE  C21216454   2.514   2.499   7.966  0.6915  0.4976  0.4898
  149SAPE  H12R16455   2.483   2.409   8.020 -1.5475  2.8827  3.3708
  149SAPE  C21316456   2.507   2.633   8.042 -0.3542 -0.4026 -0.1754
  149SAPE  H13R16457   2.570   2.713   7.998  2.1058 -1.1804  1.8438
  149SAPE  H13S16458   2.550   2.629   8.145 -0.1859  0.3852 -0.2120
  149SAPE  C21416459   2.370   2.697   8.049 -0.1739  0.4665  0.7759
  149SAPE  H14R16460   2.340   2.757   7.961  1.5214  1.0618  0.5801
  149SAPE  C21516461   2.277   2.694   8.149  0.0531 -0.9174  0.3232
  149SAPE  H15R16462   2.175   2.728   8.129 -0.0367 -0.9808  0.6613
  149SAPE  C21616463   2.294   2.618   8.286 -0.2819  0.2496 -0.6026
  149SAPE  H16R16464   2.380   2.663   8.341  1.2636  0.1908 -2.9031
  149SAPE  H16S16465   2.329   2.517   8.258  0.2943 -0.0001  0.9634
  149SAPE  C21716466   2.164   2.599   8.356 -0.3128  0.4143 -0.0979
  149SAPE  H17R16467   2.100   2.531   8.296 -0.2381  0.3150 -0.0661
  149SAPE  H17S16468   2.109   2.693   8.377 -0.8717 -0.2265  1.3587
  149SAPE  C21816469   2.189   2.542   8.499  0.5820 -0.4540 -0.9528
  149SAPE  H18R16470   2.268   2.597   8.556  1.3700 -1.8540 -0.6769
  149SAPE  H18S16471   2.225   2.437   8.489 -3.8581 -1.9709 -2.0686
  149SAPE  C21916472   2.052   2.538   8.574 -0.1511 -0.0728 -0.5230
  149SAPE  H19R16473   2.021   2.641   8.604 -0.2260 -1.3584  4.1991
  149SAPE  H19S16474   2.083   2.485   8.666  2.2751  3.4652  0.8280
  149SAPE  C22016475   1.943   2.465   8.502 -0.0424 -0.0330 -0.0446
  149SAPE  H20R16476   1.908   2.515   8.410 -1.1302  2.4962  1.6974
  149SAPE  H20S16477   1.849   2.452   8.560  0.7258  2.7681  1.9113
  149SAPE  H20T16478   1.972   2.366   8.459 -1.3217  0.3187 -1.7433
  149SAPE   C3316479   2.004   2.186   7.102 -0.1046  0.0777 -0.2310
  149SAPE   H3X16480   2.080   2.111   7.073  1.8080  0.1625  4.1312
  149SAPE   H3Y16481   1.922   2.137   7.158  0.1665 -0.6116 -0.4394
  149SAPE   C3416482   2.071   2.285   7.199 -0.5939  0.8773  0.6308
  149SAPE   H4X16483   2.154   2.341   7.152 -1.2283  0.8128 -0.5983
  149SAPE   H4Y16484   2.113   2.223   7.280  0.1578  1.0303  0.3566
  149SAPE   C3516485   1.966   2.372   7.270  0.0723 -0.5513 -0.1671
  149SAPE   H5X16486   1.880   2.305   7.290  2.6126 -3.5083  1.1381
  149SAPE   H5Y16487   1.928   2.441   7.191 -0.3374  0.7298  1.1207
  149SAPE   C3616488   2.019   2.438   7.399 -0.2086 -0.2804  0.5677
  149SAPE   H6X16489   1.943   2.508   7.439  0.7292  0.5855  0.8516
  149SAPE   H6Y16490   2.100   2.503   7.359 -1.5592  0.6961 -0.6274
  149SAPE   C3716491   2.061   2.348   7.516 -0.1788 -0.5312 -0.0488
  149SAPE   H7X16492   2.169   2.332   7.498  0.1181  1.9744 -0.7218
  149SAPE   H7Y16493   2.007   2.251   7.521 -0.6443 -0.3607 -1.6391
  149SAPE   C3816494   2.059   2.413   7.656  0.6251  0.5942  0.6919
  149SAPE   H8X16495   1.957   2.442   7.687  0.3467 -0.6880  0.9996
  149SAPE   H8Y16496   2.118   2.507   7.648  0.0809  0.9055  0.3464
  149SAPE   C3916497   2.112   2.319   7.770 -0.2110 -0.1302  0.3015
  149SAPE   H9X16498   2.196   2.255   7.736  0.7947 -0.4106  3.1974
  149SAPE   H9Y16499   2.038   2.236   7.778 -1.1050  0.5196 -1.0753
  149SAPE  C31016500   2.146   2.391   7.899  0.5092 -0.3178 -0.5272
  149SAPE  H10X16501   2.065   2.443   7.954  1.6164 -0.6949  1.4949
  149SAPE  H10Y16502   2.216   2.474   7.878 -0.6891  0.7767 -0.2254
  149SAPE  C31116503   2.213   2.294   8.001  0.4920  0.2228  0.0108
  149SAPE  H11X16504   2.262   2.358   8.077  1.3229 -0.7113  0.2688
  149SAPE  H11Y16505   2.295   2.234   7.956 -0.1620 -0.1059 -0.7708
  149SAPE  C31216506   2.110   2.185   8.059 -0.4556 -0.0675  0.3541
  149SAPE  H12X16507   2.088   2.123   7.969 -1.2439  0.2491  0.3323
  149SAPE  H12Y16508   2.011   2.231   8.077  0.2349  1.4757  0.2738
  149SAPE  C31316509   2.149   2.094   8.176  0.6646  0.3783  0.6508
  149SAPE  H13X16510   2.243   2.036   8.156  0.5221 -0.1633  1.5449
  149SAPE  H13Y16511   2.075   2.014   8.200 -1.2963  2.1672  0.6599
  149SAPE  C31416512   2.156   2.172   8.310  0.2813  0.6389  1.0764
  149SAPE  H14X16513   2.058   2.220   8.330 -0.2241 -0.8914  2.2808
  149SAPE  H14Y16514   2.229   2.256   8.300 -0.9362  1.7596  1.5624
  149SAPE  C31516515   2.184   2.083   8.432  0.5431  0.0422 -0.4625
  149SAPE  H15X16516   2.292   2.078   8.454  0.4736  0.2392 -0.0763
  149SAPE  H15Y16517   2.129   1.987   8.416  0.8868 -0.4025  1.0346
  149SAPE  C31616518   2.136   2.146   8.561  0.0257 -0.3728 -0.6351
  149SAPE  H16X16519   2.026   2.158   8.570  0.5065  2.4962  2.1967
  149SAPE  H16Y16520   2.173   2.250   8.562  2.6474 -1.2416 -1.9265
  149SAPE  C31716521   2.189   2.066   8.677  0.4925  0.3579 -0.9991
  149SAPE  H17X16522   2.295   2.040   8.656 -0.1334 -2.5972 -0.6160
  149SAPE  H17Y16523   2.137   1.969   8.683  2.3383 -0.5054  2.3509
  149SAPE  C31816524   2.163   2.138   8.804  0.1013  0.9873 -0.2054
  149SAPE  H18X16525   2.056   2.144   8.833  0.5826  0.9343  1.6524
  149SAPE  H18Y16526   2.215   2.234   8.825  2.1132  0.8263 -4.0616
  149SAPE  H18Z16527   2.196   2.070   8.885 -2.3229  0.9081  0.7695
  150SAPE     N16528   1.315   3.508   6.532 -0.0622 -0.2846  0.2499
  150SAPE   HN116529   1.288   3.594   6.584 -0.4543  0.0436 -0.4905
  150SAPE   HN216530   1.248   3.434   6.564  1.3933 -1.5687  0.3802
  150SAPE   HN316531   1.414   3.480   6.545  0.1387  0.1174 -0.3999
  150SAPE   C1216532   1.307   3.520   6.388 -0.0014  0.0418  0.1615
  150SAPE  H12A16533   1.204   3.494   6.353  0.5748 -2.3256  0.1302
  150SAPE  H12B16534   1.379   3.449   6.341  0.1296 -0.0402  0.4859
  150SAPE   C1116535   1.338   3.665   6.343 -0.1464 -0.1850  0.4007
  150SAPE  H11A16536   1.267   3.743   6.375  0.8409  2.1973 -2.9243
  150SAPE  H11B16537   1.320   3.665   6.233 -0.3738  1.6196  0.4304
  150SAPE     P16538   1.551   3.818   6.298  0.0943  0.0261  0.4002
  150SAPE   O1316539   1.664   3.767   6.222  0.3836  0.7221  0.0119
  150SAPE   O1416540   1.451   3.897   6.224 -0.2873 -0.4316 -0.1164
  150SAPE   O1216541   1.474   3.694   6.373  0.2387  0.0905 -0.1103
  150SAPE   O1116542   1.602   3.909   6.420  0.4376  0.0635 -0.2355
  150SAPE    C116543   1.543   3.914   6.546 -0.7187  0.6069 -0.2947
  150SAPE    HA16544   1.494   3.815   6.565  1.1357 -0.2814 -0.0679
  150SAPE    HB16545   1.623   3.931   6.621  1.2638 -0.7843 -2.0479
  150SAPE    C216546   1.436   4.029   6.538 -0.6051 -0.3053  0.0321
  150SAPE    HS16547   1.424   4.052   6.429  2.3497 -0.5324 -0.3810
  150SAPE   O2116548   1.498   4.144   6.602 -0.2574  0.1915  0.5520
  150SAPE   C2116549   1.455   4.257   6.574 -0.3348 -0.3438 -0.1609
  150SAPE   O2216550   1.376   4.283   6.483  0.3071 -0.3694 -0.1206
  150SAPE   C2216551   1.527   4.355   6.657 -0.4940 -0.6752 -0.1905
  150SAPE   H2R16552   1.620   4.309   6.695 -0.8362 -0.6130  0.7223
  150SAPE   H2S16553   1.548   4.444   6.595 -0.7732  0.6486  1.5877
  150SAPE    C316554   1.297   3.995   6.607 -0.3024 -0.2707  0.0373
  150SAPE    HX16555   1.250   3.924   6.536  1.4875 -0.0453 -1.3963
  150SAPE    HY16556   1.237   4.089   6.600  0.7958  0.4095 -0.5199
  150SAPE   O3116557   1.307   3.955   6.739  0.0328 -0.2549  0.2302
  150SAPE   C3116558   1.308   3.826   6.774  0.1381 -0.2081 -0.3405
  150SAPE   O3216559   1.303   3.739   6.686 -0.2372 -0.0643 -0.3391
  150SAPE   C3216560   1.334   3.818   6.926 -1.1713 -0.3986  0.4247
  150SAPE   H2X16561   1.398   3.907   6.945 -1.4035 -0.4878  1.6959
  150SAPE   H2Y16562   1.391   3.724   6.937  0.1726  0.5254  1.5262
  150SAPE   C2316563   1.434   4.412   6.762  0.4534  0.9703 -0.0213
  150SAPE   H3R16564   1.370   4.485   6.708  2.9104  1.4405 -2.4227
  150SAPE   H3S16565   1.496   4.482   6.821  1.1741 -0.4194  0.8887
  150SAPE   C2416566   1.353   4.312   6.843 -0.2260  0.9571  0.3982
  150SAPE   H4R16567   1.280   4.268   6.772  1.0085  0.4982 -0.5938
  150SAPE   H4S16568   1.296   4.372   6.917  1.2049  1.1224  1.3746
  150SAPE   C2516569   1.446   4.215   6.911 -0.0234  0.6249 -0.6742
  150SAPE   H5R16570   1.531   4.181   6.850  0.4028  0.4133  0.0299
  150SAPE   C2616571   1.462   4.192   7.041 -0.2969 -0.0278 -0.3013
  150SAPE   H6R16572   1.548   4.128   7.063  0.7740  1.2073 -0.8732
  150SAPE   C2716573   1.388   4.244   7.158  0.0741  0.3328  0.0632
  150SAPE   H7R16574   1.353   4.157   7.218 -0.8398  0.3778 -0.3948
  150SAPE   H7S16575   1.291   4.287   7.125 -1.3468 -1.3185  1.9295
  150SAPE   C2816576   1.466   4.345   7.236 -0.1550  0.0293 -0.2036
  150SAPE   H8R16577   1.545   4.383   7.170  1.3604 -2.8926 -0.1587
  150SAPE   C2916578   1.461   4.385   7.363  0.1197  0.1035  0.0544
  150SAPE   H9R16579   1.544   4.452   7.390 -0.0534  0.1196  0.5435
  150SAPE  C21016580   1.375   4.312   7.469  0.2190 -0.0341  0.0223
  150SAPE  H10R16581   1.310   4.240   7.414 -2.3145 -0.2647  3.2027
  150SAPE  H10S16582   1.302   4.378   7.520  0.3630  1.7690 -1.9984
  150SAPE  C21116583   1.470   4.234   7.563 -0.5454 -0.2162 -0.0464
  150SAPE  H11R16584   1.529   4.159   7.508 -4.6048 -1.9613 -2.1842
  150SAPE  C21216585   1.477   4.233   7.697  0.1304 -0.1733 -0.0538
  150SAPE  H12R16586   1.551   4.163   7.740 -0.1253 -0.0835  0.5264
  150SAPE  C21316587   1.396   4.308   7.797  0.2459 -0.5763  0.3724
  150SAPE  H13R16588   1.363   4.252   7.887 -4.1925  0.5193 -0.4381
  150SAPE  H13S16589   1.298   4.320   7.747  1.3944  1.3336 -1.5282
  150SAPE  C21416590   1.442   4.444   7.847  0.1242 -0.0259  0.4237
  150SAPE  H14R16591   1.539   4.485   7.816 -0.2629  0.5092 -0.0989
  150SAPE  C21516592   1.371   4.522   7.926 -0.2339 -0.1520  0.3186
  150SAPE  H15R16593   1.404   4.624   7.950  1.1082  0.3312 -3.3270
  150SAPE  C21616594   1.238   4.477   7.981 -0.3612 -0.4889  0.5518
  150SAPE  H16R16595   1.214   4.370   7.964 -1.7834 -0.3025  1.2905
  150SAPE  H16S16596   1.158   4.529   7.924 -0.6468 -0.7629  0.6973
  150SAPE  C21716597   1.216   4.523   8.124  0.6309 -0.0386 -0.0862
  150SAPE  H17R16598   1.107   4.519   8.146  0.8275  0.4632  1.0363
  150SAPE  H17S16599   1.237   4.631   8.139  4.0060 -0.4937 -1.0783
  150SAPE  C21816600   1.286   4.437   8.238 -0.3115 -0.1204  0.2147
  150SAPE  H18R16601   1.397   4.437   8.233 -0.3152 -2.1185 -0.3111
  150SAPE  H18S16602   1.251   4.333   8.222 -1.4504  0.2901 -0.0391
  150SAPE  C21916603   1.239   4.485   8.385 -0.3214  0.3890  0.2702
  150SAPE  H19R16604   1.128   4.484   8.383 -0.2993 -0.5243 -2.5502
  150SAPE  H19S16605   1.286   4.584   8.402  0.1728  0.4113 -1.2065
  150SAPE  C22016606   1.298   4.397   8.489 -0.1674 -0.2994 -0.9251
  150SAPE  H20R16607   1.282   4.288   8.474 -2.0880 -0.3629  1.2413
  150SAPE  H20S16608   1.276   4.429   8.593  0.9871  1.9474 -1.3636
  150SAPE  H20T16609   1.407   4.401   8.470  0.2230 -1.9266  0.7737
  150SAPE   C3316610   1.212   3.822   7.016 -0.1983 -0.3078 -0.3436
  150SAPE   H3X16611   1.145   3.737   6.991  0.1231 -0.2253 -1.5048
  150SAPE   H3Y16612   1.169   3.923   6.999 -0.2002 -0.0727  0.9669
  150SAPE   C3416613   1.255   3.811   7.161 -0.3868  0.1245  0.0921
  150SAPE   H4X16614   1.314   3.903   7.180 -0.6299  0.4593 -0.7379
  150SAPE   H4Y16615   1.331   3.730   7.171 -3.3271 -2.8490 -0.9546
  150SAPE   C3516616   1.140   3.792   7.261 -0.1342 -0.5523  0.2112
  150SAPE   H5X16617   1.091   3.698   7.228 -0.5319 -0.6463  1.0596
  150SAPE   H5Y16618   1.074   3.879   7.242 -1.9413 -2.1349 -0.9751
  150SAPE   C3616619   1.190   3.786   7.406  0.3617 -0.4064 -0.1490
  150SAPE   H6X16620   1.280   3.721   7.417 -0.6038 -1.7631 -0.1082
  150SAPE   H6Y16621   1.129   3.728   7.478 -0.5635  0.7762  0.0297
  150SAPE   C3716622   1.224   3.917   7.472 -0.5628 -0.6612 -0.6301
  150SAPE   H7X16623   1.141   3.989   7.452 -2.4565 -2.2917  1.1463
  150SAPE   H7Y16624   1.309   3.966   7.421  0.7619 -2.7498 -0.4573
  150SAPE   C3816625   1.267   3.911   7.625 -0.1511  0.2810  0.5523
  150SAPE   H8X16626   1.333   3.997   7.648  1.8003 -1.2672  0.8609
  150SAPE   H8Y16627   1.337   3.829   7.651 -1.0032 -1.6984 -3.0318
  150SAPE   C3916628   1.142   3.921   7.712  0.4725 -0.2024 -0.8108
  150SAPE   H9X16629   1.088   3.825   7.695  0.6701 -0.5647  0.5406
  150SAPE   H9Y16630   1.083   4.010   7.680 -2.0218 -0.4985  2.5915
  150SAPE  C31016631   1.185   3.937   7.860 -0.3976 -0.2519 -0.0469
  150SAPE  H10X16632   1.269   4.009   7.858 -0.0970 -0.5636  1.3055
  150SAPE  H10Y16633   1.228   3.842   7.895 -2.8312 -1.1009  0.7862
  150SAPE  C31116634   1.078   3.989   7.954  0.1701  0.0406 -0.1351
  150SAPE  H11X16635   1.007   3.910   7.987 -0.3420  0.6935  0.3451
  150SAPE  H11Y16636   1.002   4.061   7.916  0.1140  1.2160  2.1055
  150SAPE  C31216637   1.146   4.047   8.086  0.4748 -0.7200 -0.5666
  150SAPE  H12X16638   1.209   4.132   8.053 -0.6972 -0.4399 -2.1641
  150SAPE  H12Y16639   1.209   3.961   8.115 -0.6567 -1.3670  0.0294
  150SAPE  C31316640   1.037   4.090   8.187  0.1144 -0.4461  0.5332
  150SAPE  H13X16641   0.949   4.132   8.135  1.1223  1.6429  0.4459
  150SAPE  H13Y16642   1.080   4.174   8.246  0.4207  1.2381 -2.0482
  150SAPE  C31416643   0.999   3.984   8.293 -0.4817  0.2042 -0.5698
  150SAPE  H14X16644   0.960   4.044   8.378  3.2613  0.7360  0.8542
  150SAPE  H14Y16645   1.091   3.928   8.319  0.0167  1.7482  1.0588
  150SAPE  C31516646   0.893   3.885   8.239 -0.4134  0.3761 -0.0671
  150SAPE  H15X16647   0.936   3.822   8.158  0.6528  1.3871 -0.2896
  150SAPE  H15Y16648   0.805   3.946   8.207 -0.0139  1.7103  1.3248
  150SAPE  C31616649   0.842   3.788   8.351 -0.3732 -0.2208 -0.6887
  150SAPE  H16X16650   0.936   3.743   8.390  1.1938  1.4534 -2.4240
  150SAPE  H16Y16651   0.784   3.716   8.290 -2.9572  1.0916  0.1499
  150SAPE  C31716652   0.763   3.850   8.466  0.0183  0.1953 -0.5524
  150SAPE  H17X16653   0.828   3.920   8.522 -1.9766  3.2791 -1.9342
  150SAPE  H17Y16654   0.736   3.768   8.535 -0.6820  0.4095 -0.5714
  150SAPE  C31816655   0.627   3.923   8.441 -0.2005  0.2840 -0.4042
  150SAPE  H18X16656   0.569   3.850   8.380 -1.6422  1.8342 -0.9443
  150SAPE  H18Y16657   0.642   4.017   8.384  0.4777 -0.3784 -1.3180
  150SAPE  H18Z16658   0.568   3.943   8.533  0.0660 -0.6530 -0.0263
  151SAPE     N16659   4.047   1.012   6.362  0.8801  0.0585  0.4127
  151SAPE   HN116660   4.070   0.912   6.375 -0.9340 -0.5536 -0.9395
  151SAPE   HN216661   4.003   1.024   6.268  1.1533 -2.8431 -0.1042
  151SAPE   HN316662   4.137   1.064   6.367  1.0042  0.0268 -1.1140
  151SAPE   C1216663   3.951   1.065   6.456 -0.9600 -0.2711  0.0196
  151SAPE  H12A16664   3.951   1.000   6.546 -2.4630  0.4931  0.6001
  151SAPE  H12B16665   3.846   1.050   6.420  0.1349 -1.3447 -2.8956
  151SAPE   C1116666   3.981   1.211   6.484 -0.0717  0.0871  0.2050
  151SAPE  H11A16667   4.088   1.207   6.514  0.0804 -0.6130 -0.4195
  151SAPE  H11B16668   3.922   1.258   6.566  1.3779  1.7624  0.3347
  151SAPE     P16669   3.841   1.371   6.326 -0.2606  0.0048 -0.1959
  151SAPE   O1316670   3.874   1.446   6.206 -0.1432 -0.0578  0.0505
  151SAPE   O1416671   3.727   1.279   6.314 -1.3710  0.3308 -0.2800
  151SAPE   O1216672   3.968   1.287   6.362  0.2567  0.6693 -0.1739
  151SAPE   O1116673   3.810   1.456   6.448 -0.2031  0.1665 -0.1613
  151SAPE    C116674   3.889   1.569   6.488  0.0617  0.3965  0.6524
  151SAPE    HA16675   3.957   1.597   6.404 -0.0231  0.7274  0.6951
  151SAPE    HB16676   3.821   1.654   6.508 -1.0323 -0.1418 -0.6941
  151SAPE    C216677   3.985   1.529   6.610 -0.3944 -0.1017 -1.2410
  151SAPE    HS16678   4.061   1.452   6.585  1.2007  1.4447 -1.2366
  151SAPE   O2116679   3.897   1.476   6.709  0.7860  0.4210 -0.0892
  151SAPE   C2116680   3.963   1.411   6.809 -0.0477  0.2537 -0.7986
  151SAPE   O2216681   4.079   1.389   6.820  0.2135  0.0563  0.1507
  151SAPE   C2216682   3.863   1.387   6.919  0.0358  0.5454 -0.2405
  151SAPE   H2R16683   3.778   1.458   6.914 -1.8561 -1.7566 -1.5929
  151SAPE   H2S16684   3.817   1.289   6.896  2.1988 -0.0640 -2.2409
  151SAPE    C316685   4.059   1.652   6.652 -0.1405  0.0994  0.3103
  151SAPE    HX16686   4.078   1.713   6.561  1.3282 -0.7116  0.0720
  151SAPE    HY16687   4.155   1.618   6.696  2.0753  1.9197 -2.8989
  151SAPE   O3116688   3.985   1.727   6.741 -0.1433 -0.1115 -0.2965
  151SAPE   C3116689   4.046   1.839   6.784  0.2108 -0.0704 -0.2666
  151SAPE   O3216690   4.146   1.887   6.737  0.5612  0.4677  0.2923
  151SAPE   C3216691   3.978   1.894   6.905  0.0716 -0.0470 -0.3060
  151SAPE   H2X16692   3.867   1.891   6.902  0.0437 -0.1949  0.6809
  151SAPE   H2Y16693   4.001   2.001   6.922 -1.1738  0.2805 -0.6552
  151SAPE   C2316694   3.929   1.396   7.054 -0.4976  0.0348 -0.0157
  151SAPE   H3R16695   3.988   1.490   7.062  0.0487 -0.0730 -2.4116
  151SAPE   H3S16696   4.004   1.314   7.059  0.2804  0.7437  0.0281
  151SAPE   C2416697   3.833   1.387   7.170  0.3346 -0.8894 -0.8983
  151SAPE   H4R16698   3.758   1.469   7.161  0.8029 -0.3515 -0.0091
  151SAPE   H4S16699   3.885   1.408   7.266  0.2957 -1.0683 -0.8381
  151SAPE   C2516700   3.758   1.257   7.182  0.5024 -0.3468  0.5704
  151SAPE   H5R16701   3.721   1.204   7.093 -2.0382  1.1103  0.7094
  151SAPE   C2616702   3.723   1.197   7.294 -0.1193 -0.5145 -0.1168
  151SAPE   H6R16703   3.677   1.101   7.269  1.3657 -0.9817 -1.1013
  151SAPE   C2716704   3.747   1.242   7.440 -0.2256  0.9496  0.4027
  151SAPE   H7R16705   3.851   1.276   7.456  0.0419  0.4570 -0.2966
  151SAPE   H7S16706   3.753   1.150   7.503 -3.4488  0.3256 -0.0648
  151SAPE   C2816707   3.636   1.332   7.494  0.3894 -0.4379  0.0995
  151SAPE   H8R16708   3.562   1.368   7.421 -0.2817 -2.1740 -0.0982
  151SAPE   C2916709   3.619   1.363   7.624 -0.1844 -1.0417 -0.0270
  151SAPE   H9R16710   3.543   1.436   7.655  1.0422 -0.7894  2.4895
  151SAPE  C21016711   3.707   1.312   7.742 -0.0911 -0.7240  0.8337
  151SAPE  H10R16712   3.747   1.397   7.801  0.5321 -1.0308  0.8580
  151SAPE  H10S16713   3.789   1.255   7.695 -0.3603  0.1012 -0.6701
  151SAPE  C21116714   3.623   1.226   7.832  0.0095 -0.2693 -0.1443
  151SAPE  H11R16715   3.594   1.128   7.793  1.6466 -1.7768  2.2816
  151SAPE  C21216716   3.593   1.253   7.963 -0.3876 -1.1825 -0.2584
  151SAPE  H12R16717   3.529   1.183   8.017  1.0823 -1.8742  0.6310
  151SAPE  C21316718   3.649   1.383   8.031  0.3812  0.5268  0.4567
  151SAPE  H13R16719   3.662   1.466   7.958 -0.3732  0.4714  0.2608
  151SAPE  H13S16720   3.748   1.355   8.073 -0.0853 -1.5764  0.2126
  151SAPE  C21416721   3.553   1.419   8.143 -0.6816 -0.6161  0.2123
  151SAPE  H14R16722   3.451   1.439   8.105 -0.3952  0.1421 -0.1844
  151SAPE  C21516723   3.571   1.433   8.276 -0.4919  0.6098 -0.0310
  151SAPE  H15R16724   3.483   1.456   8.338 -0.8676  0.0806 -0.3642
  151SAPE  C21616725   3.695   1.428   8.345 -0.4831  0.3333 -0.3289
  151SAPE  H16R16726   3.717   1.521   8.401 -2.0458 -0.3970  1.5698
  151SAPE  H16S16727   3.786   1.390   8.292  0.3800  0.4724  1.0455
  151SAPE  C21716728   3.661   1.326   8.463  0.9890 -0.3891 -1.0337
  151SAPE  H17R16729   3.566   1.351   8.516  1.0032 -2.0677 -0.2082
  151SAPE  H17S16730   3.741   1.330   8.539  2.0369  1.2584 -2.1816
  151SAPE  C21816731   3.661   1.183   8.408  0.0501 -0.3703  0.0014
  151SAPE  H18R16732   3.764   1.161   8.372  1.5740  4.4903  0.9961
  151SAPE  H18S16733   3.590   1.196   8.324  1.2356  2.3550 -0.6238
  151SAPE  C21916734   3.618   1.077   8.511  0.8799  0.7406 -0.5955
  151SAPE  H19R16735   3.586   0.987   8.454  0.1252  0.4458  0.2881
  151SAPE  H19S16736   3.527   1.108   8.566  0.5068 -0.3416 -0.5974
  151SAPE  C22016737   3.731   1.049   8.608  0.2124 -0.3824  0.1391
  151SAPE  H20R16738   3.831   1.060   8.559  0.1808  0.6602  0.2919
  151SAPE  H20S16739   3.731   1.131   8.683 -1.4539  0.1306 -0.3900
  151SAPE  H20T16740   3.724   0.947   8.649  2.6549 -0.8249 -0.4511
  151SAPE   C3316741   4.025   1.812   7.029 -0.4127  0.2475 -0.1095
  151SAPE   H3X16742   4.114   1.860   7.074  0.3825  0.6975 -2.1216
  151SAPE   H3Y16743   4.067   1.712   7.005  1.2279  0.2909  2.4463
  151SAPE   C3416744   3.919   1.791   7.140 -0.0894  0.5614 -0.4017
  151SAPE   H4X16745   3.827   1.756   7.088  0.7146 -1.1423 -0.7283
  151SAPE   H4Y16746   3.899   1.896   7.168  0.9079  1.1272 -1.7567
  151SAPE   C3516747   3.974   1.719   7.268 -0.1733 -0.4936  0.1740
  151SAPE   H5X16748   4.047   1.784   7.322 -0.3492 -0.2371  0.1042
  151SAPE   H5Y16749   4.014   1.622   7.232  0.0563  0.2008 -1.4423
  151SAPE   C3616750   3.863   1.695   7.369  0.1453  0.1362  0.5109
  151SAPE   H6X16751   3.893   1.617   7.443 -0.0796 -1.7794 -1.3810
  151SAPE   H6Y16752   3.774   1.653   7.318 -0.6418 -0.5338  2.3678
  151SAPE   C3716753   3.820   1.813   7.450  0.3979  0.1632  0.7142
  151SAPE   H7X16754   3.803   1.897   7.379  0.7099 -0.3663  0.0121
  151SAPE   H7Y16755   3.908   1.841   7.512  0.3402  0.7896  0.5234
  151SAPE   C3816756   3.717   1.783   7.559 -0.2618  0.6884 -0.6791
  151SAPE   H8X16757   3.629   1.731   7.515 -0.7478  0.7800  0.1688
  151SAPE   H8Y16758   3.678   1.879   7.598 -0.4500  0.5640 -0.5559
  151SAPE   C3916759   3.754   1.707   7.691  0.2333  0.7781  0.0467
  151SAPE   H9X16760   3.790   1.604   7.667 -0.9382 -0.5789  3.7815
  151SAPE   H9Y16761   3.659   1.699   7.748 -0.5330 -0.7281 -1.3724
  151SAPE  C31016762   3.843   1.785   7.794 -0.0665  0.3249  0.5982
  151SAPE  H10X16763   3.782   1.877   7.810  0.1394  0.5456  0.1306
  151SAPE  H10Y16764   3.943   1.806   7.750  0.5563 -1.5071  1.0907
  151SAPE  C31116765   3.862   1.710   7.931 -0.3247 -0.7018 -0.5489
  151SAPE  H11X16766   3.912   1.618   7.893  1.3263 -1.0691  2.3070
  151SAPE  H11Y16767   3.770   1.704   7.993  1.4670  1.7879  2.4949
  151SAPE  C31216768   3.958   1.790   8.025 -0.2175  0.1869 -0.1528
  151SAPE  H12X16769   3.928   1.896   8.031 -0.2396  0.1782 -0.1035
  151SAPE  H12Y16770   4.064   1.787   7.991  0.0334  0.3484  0.6018
  151SAPE  C31316771   3.954   1.739   8.175  0.2729  0.1649 -0.6315
  151SAPE  H13X16772   3.975   1.630   8.178 -0.8568 -0.0370  0.5986
  151SAPE  H13Y16773   3.855   1.765   8.219  1.3889  1.3975  1.2660
  151SAPE  C31416774   4.057   1.812   8.254  0.3644 -0.4210  0.0083
  151SAPE  H14X16775   4.053   1.921   8.235 -3.3034  0.1559  3.3297
  151SAPE  H14Y16776   4.160   1.786   8.223  0.7502  0.8151  0.2142
  151SAPE  C31516777   4.040   1.785   8.405  0.6363 -0.3439 -0.5545
  151SAPE  H15X16778   3.972   1.863   8.447  1.2236 -1.1576  2.0247
  151SAPE  H15Y16779   4.139   1.805   8.451  1.2469 -0.7004 -1.6888
  151SAPE  C31616780   3.985   1.650   8.448  0.1120  0.4188  0.7906
  151SAPE  H16X16781   4.035   1.562   8.403 -0.4865  0.7424 -0.5064
  151SAPE  H16Y16782   3.879   1.652   8.414 -0.4525 -2.6879  2.1666
  151SAPE  C31716783   3.986   1.615   8.602  0.2392  0.1626  0.2388
  151SAPE  H17X16784   3.937   1.515   8.604  1.2512 -0.3530 -0.0093
  151SAPE  H17Y16785   3.922   1.692   8.649  0.5023  0.2269  0.4925
  151SAPE  C31816786   4.125   1.611   8.659 -0.5136 -0.4620  0.1910
  151SAPE  H18X16787   4.184   1.697   8.623 -0.4599  0.0282  1.4303
  151SAPE  H18Y16788   4.169   1.514   8.628 -0.4716 -0.1604 -0.6956
  151SAPE  H18Z16789   4.128   1.617   8.770 -0.9968 -0.4521  0.2051
  152SAPE     N16790   1.177   4.206   5.937 -0.6543 -0.0606  0.5970
  152SAPE   HN116791   1.130   4.170   5.852  0.0296  0.0844  0.1486
  152SAPE   HN216792   1.205   4.302   5.909 -0.3318 -0.5210 -0.6978
  152SAPE   HN316793   1.263   4.149   5.950 -0.5140  0.4695  2.1176
  152SAPE   C1216794   1.092   4.206   6.059  0.5566 -0.6032 -0.6888
  152SAPE  H12A16795   1.057   4.101   6.073 -0.0516 -0.1743  1.1326
  152SAPE  H12B16796   0.994   4.256   6.047 -1.0008 -3.0768  1.1938
  152SAPE   C1116797   1.173   4.245   6.185  0.7730  0.5122  0.3807
  152SAPE  H11A16798   1.258   4.176   6.205 -0.3022 -0.7227  0.7171
  152SAPE  H11B16799   1.111   4.235   6.277  1.6360 -2.4376  0.6817
  152SAPE     P16800   1.137   4.507   6.212  0.3293  0.1447 -0.3815
  152SAPE   O1316801   1.235   4.613   6.239 -0.2495 -0.2364  0.2142
  152SAPE   O1416802   1.058   4.535   6.089  0.0722  0.5483 -0.2544
  152SAPE   O1216803   1.232   4.376   6.187  0.4862 -0.2875 -0.9593
  152SAPE   O1116804   1.048   4.478   6.339  0.8816  0.4902  0.4217
  152SAPE    C116805   1.094   4.542   6.461  0.1048  0.4690  0.2867
  152SAPE    HA16806   1.205   4.529   6.465  0.0100 -1.3253 -2.0579
  152SAPE    HB16807   1.059   4.647   6.468 -1.4997 -0.0039 -0.5087
  152SAPE    C216808   1.039   4.460   6.578 -0.6517 -0.5967  0.3437
  152SAPE    HS16809   0.929   4.463   6.593 -1.1637  0.4951 -3.1553
  152SAPE   O2116810   1.108   4.516   6.698  0.5319  0.3195 -0.1353
  152SAPE   C2116811   1.052   4.632   6.741  0.6072 -0.2410  0.1205
  152SAPE   O2216812   0.952   4.682   6.695  0.0153 -0.1227 -0.1965
  152SAPE   C2216813   1.134   4.687   6.859 -1.0521  0.3594 -0.4106
  152SAPE   H2R16814   1.243   4.672   6.846 -1.0894  0.3570 -0.7314
  152SAPE   H2S16815   1.103   4.794   6.859  0.2211  0.7370  0.4158
  152SAPE    C316816   1.061   4.308   6.569 -0.0312 -0.7809  0.1390
  152SAPE    HX16817   1.159   4.290   6.520  0.4870 -0.0131  0.8883
  152SAPE    HY16818   0.979   4.273   6.502  0.4199 -0.5196 -0.5585
  152SAPE   O3116819   1.063   4.236   6.698 -0.5132 -0.0771 -0.0275
  152SAPE   C3116820   0.944   4.224   6.758  0.2009 -0.5330  0.5343
  152SAPE   O3216821   0.836   4.248   6.708  0.2050 -0.1499 -0.2311
  152SAPE   C3216822   0.980   4.167   6.890 -0.5178  0.2517  0.4294
  152SAPE   H2X16823   1.073   4.106   6.881 -1.9846 -1.9256 -0.4030
  152SAPE   H2Y16824   0.894   4.104   6.921  1.5094 -2.5954  0.4790
  152SAPE   C2316825   1.086   4.633   6.995 -0.3419 -0.0651 -0.7687
  152SAPE   H3R16826   1.157   4.551   7.018 -0.4041  1.2109  4.7077
  152SAPE   H3S16827   0.979   4.604   6.988 -0.1460 -0.9858 -0.0826
  152SAPE   C2416828   1.097   4.744   7.100  0.5686 -0.3164  0.1526
  152SAPE   H4R16829   1.042   4.716   7.192  2.3655 -2.5973  0.5611
  152SAPE   H4S16830   1.047   4.835   7.059  0.2664 -0.2663  0.6293
  152SAPE   C2516831   1.242   4.780   7.130  0.2479  0.3936 -0.1575
  152SAPE   H5R16832   1.309   4.794   7.044  0.9993 -1.6553  0.0823
  152SAPE   C2616833   1.289   4.798   7.258 -0.1550  0.7813  0.1337
  152SAPE   H6R16834   1.390   4.839   7.273 -1.1824  2.7585  1.7094
  152SAPE   C2716835   1.212   4.775   7.387 -0.0007  0.5081  0.0947
  152SAPE   H7R16836   1.147   4.684   7.387  1.1253 -0.4420  4.7883
  152SAPE   H7S16837   1.125   4.844   7.398 -0.3483 -0.2426  2.3679
  152SAPE   C2816838   1.288   4.758   7.513  0.3614 -0.5105  0.5830
  152SAPE   H8R16839   1.383   4.704   7.502  0.7575 -0.0352  1.6045
  152SAPE   C2916840   1.249   4.805   7.635 -0.1432 -0.0884 -0.3952
  152SAPE   H9R16841   1.329   4.787   7.709  1.0186 -2.3579 -2.1627
  152SAPE  C21016842   1.119   4.869   7.679  0.0172 -0.0007 -0.4101
  152SAPE  H10R16843   1.045   4.860   7.596  0.2728  1.8752 -0.8549
  152SAPE  H10S16844   1.126   4.978   7.697 -1.7567  0.3933 -1.9241
  152SAPE  C21116845   1.054   4.793   7.798  0.4059  0.4127 -0.8309
  152SAPE  H11R16846   1.001   4.698   7.784  0.4702  0.6415 -2.7818
  152SAPE  C21216847   1.067   4.839   7.925 -0.3776 -0.0451  0.1578
  152SAPE  H12R16848   1.016   4.784   8.005 -0.8325  0.6340  0.3390
  152SAPE  C21316849   1.150   4.959   7.979 -0.4123  0.7458 -0.3169
  152SAPE  H13R16850   1.206   5.005   7.896  2.4394  2.4260  2.4308
  152SAPE  H13S16851   1.228   4.909   8.041 -0.5011  1.8191  0.6771
  152SAPE  C21416852   1.088   5.075   8.045  0.0321 -0.6472 -0.3998
  152SAPE  H14R16853   1.010   5.126   7.986 -0.7485 -0.3887  0.8349
  152SAPE  C21516854   1.121   5.129   8.165  0.1058 -0.3979 -0.1566
  152SAPE  H15R16855   1.061   5.211   8.205 -2.8820 -1.2125 -2.7905
  152SAPE  C21616856   1.232   5.089   8.256 -0.2173 -0.3603  0.4969
  152SAPE  H16R16857   1.324   5.143   8.226  1.4287 -0.8063  4.4908
  152SAPE  H16S16858   1.249   4.979   8.252  1.6797 -0.0507 -0.6862
  152SAPE  C21716859   1.215   5.137   8.409 -0.3125  0.3721  0.4272
  152SAPE  H17R16860   1.125   5.088   8.452 -0.8525 -0.0597 -1.1508
  152SAPE  H17S16861   1.196   5.246   8.396  1.1960  0.5300 -0.5232
  152SAPE  C21816862   1.342   5.120   8.499  0.1737  0.0877  0.2544
  152SAPE  H18R16863   1.349   5.208   8.566 -2.3565  0.7854 -0.3419
  152SAPE  H18S16864   1.438   5.118   8.443  0.4993  2.0230  0.7115
  152SAPE  C21916865   1.329   4.990   8.583 -0.2104  0.0777 -0.6595
  152SAPE  H19R16866   1.250   5.000   8.661  1.1628 -0.4315  0.8097
  152SAPE  H19S16867   1.419   4.984   8.647 -0.6765  2.2367  0.2501
  152SAPE  C22016868   1.333   4.862   8.508 -0.0930  0.3129  0.9906
  152SAPE  H20R16869   1.268   4.875   8.419 -1.5974 -0.8695  1.9001
  152SAPE  H20S16870   1.308   4.772   8.568  2.5169 -2.4007 -1.7823
  152SAPE  H20T16871   1.437   4.848   8.471  0.0575  1.2592  1.0483
  152SAPE   C3316872   1.006   4.270   7.007  0.2091 -0.3665  0.5464
  152SAPE   H3X16873   0.921   4.343   7.004  1.1926  0.7446 -0.6510
  152SAPE   H3Y16874   1.095   4.333   6.988 -0.4780  0.7409  0.9016
  152SAPE   C3416875   1.011   4.206   7.152  0.1754 -0.9234  0.2802
  152SAPE   H4X16876   1.085   4.123   7.154  0.3725 -0.7292  0.8139
  152SAPE   H4Y16877   0.908   4.165   7.165 -0.1245 -0.5402 -0.8242
  152SAPE   C3516878   1.038   4.311   7.260 -0.5956 -0.1194  0.3047
  152SAPE   H5X16879   0.979   4.401   7.232 -0.3695  0.5849  2.0223
  152SAPE   H5Y16880   1.141   4.351   7.248 -0.6668 -0.4609 -1.5198
  152SAPE   C3616881   1.011   4.261   7.403 -0.6283  0.0693  0.2586
  152SAPE   H6X16882   1.106   4.209   7.428 -0.7990 -0.2216  0.3096
  152SAPE   H6Y16883   0.924   4.194   7.387  0.8574 -2.0354  0.8028
  152SAPE   C3716884   0.981   4.372   7.499 -0.5965 -0.1428 -0.9337
  152SAPE   H7X16885   0.904   4.441   7.458 -0.4479  1.1349  0.8894
  152SAPE   H7Y16886   1.071   4.435   7.516  0.2361 -0.5251 -3.6556
  152SAPE   C3816887   0.919   4.320   7.630  0.6806  0.1526  0.4281
  152SAPE   H8X16888   0.979   4.233   7.664  1.0829 -0.9947 -2.9755
  152SAPE   H8Y16889   0.816   4.283   7.609  1.6151 -0.6456 -3.2407
  152SAPE   C3916890   0.929   4.425   7.741  0.1764 -0.5783  0.3092
  152SAPE   H9X16891   0.915   4.527   7.698 -0.2371 -0.6119  0.3592
  152SAPE   H9Y16892   1.030   4.423   7.786  0.5595  0.6134 -0.4695
  152SAPE  C31016893   0.820   4.393   7.839 -0.0012  0.2490 -0.3278
  152SAPE  H10X16894   0.825   4.285   7.866 -2.0916  0.0948 -0.4924
  152SAPE  H10Y16895   0.724   4.400   7.784  1.3934  2.4639 -2.5944
  152SAPE  C31116896   0.818   4.478   7.967  0.9581 -0.3308 -0.0742
  152SAPE  H11X16897   0.799   4.587   7.955 -1.7595 -0.3504  3.1608
  152SAPE  H11Y16898   0.919   4.462   8.010  1.2510  2.4413  0.3745
  152SAPE  C31216899   0.708   4.434   8.067  0.0836  0.5823  0.1499
  152SAPE  H12X16900   0.706   4.323   8.076 -0.7744  0.3971 -2.0499
  152SAPE  H12Y16901   0.613   4.471   8.022  1.2411  1.5324 -1.5492
  152SAPE  C31316902   0.709   4.501   8.206  0.6662  0.1557 -0.9682
  152SAPE  H13X16903   0.692   4.609   8.189  0.4064  0.4731  1.1581
  152SAPE  H13Y16904   0.807   4.496   8.257  0.1393 -2.4954 -0.0794
  152SAPE  C31416905   0.595   4.459   8.306  0.1584 -0.4049 -1.0371
  152SAPE  H14X16906   0.604   4.358   8.350 -2.4049 -0.3995 -0.4213
  152SAPE  H14Y16907   0.492   4.468   8.264 -0.6579  1.3104  1.2082
  152SAPE  C31516908   0.599   4.547   8.443 -0.3392 -0.2992 -0.7529
  152SAPE  H15X16909   0.612   4.651   8.408 -3.3281  0.5561  0.5000
  152SAPE  H15Y16910   0.676   4.508   8.513 -0.3923  0.5531 -0.2113
  152SAPE  C31616911   0.475   4.537   8.524 -0.8160  0.6588  0.4858
  152SAPE  H16X16912   0.469   4.434   8.566 -0.0971  0.4174  0.0030
  152SAPE  H16Y16913   0.390   4.562   8.458 -0.3300  0.8095 -0.0782
  152SAPE  C31716914   0.465   4.645   8.634 -0.0407 -0.2644 -0.1810
  152SAPE  H17X16915   0.473   4.743   8.583 -0.6234 -0.4324 -0.5929
  152SAPE  H17Y16916   0.544   4.637   8.712  0.2358  0.9281 -0.3311
  152SAPE  C31816917   0.332   4.645   8.705 -0.2923 -0.2391 -0.7066
  152SAPE  H18X16918   0.246   4.637   8.635 -1.8777 -0.7662  1.2538
  152SAPE  H18Y16919   0.319   4.731   8.774 -1.8948 -1.5746  0.7043
  152SAPE  H18Z16920   0.334   4.549   8.761  1.0329  2.4076  4.0708
  153SAPE     N16921   4.539   6.131   6.377 -0.6004 -0.4956  0.5298
  153SAPE   HN116922   4.606   6.211   6.385 -0.1865 -0.8874  1.0426
  153SAPE   HN216923   4.456   6.157   6.434 -0.3382  2.3819 -0.2870
  153SAPE   HN316924   4.577   6.043   6.416  2.7497 -0.1278 -1.6665
  153SAPE   C1216925   4.496   6.117   6.235  0.1693  0.6763 -1.0553
  153SAPE  H12A16926   4.584   6.110   6.168 -0.1172 -0.2973 -1.3391
  153SAPE  H12B16927   4.433   6.204   6.207 -0.8294  1.2064  2.4688
  153SAPE   C1116928   4.407   5.986   6.213 -0.0818  0.6201 -0.2230
  153SAPE  H11A16929   4.474   5.911   6.260  1.6256  1.2170 -1.6674
  153SAPE  H11B16930   4.400   5.972   6.103  2.0043  0.3920 -0.3537
  153SAPE     P16931   4.193   5.896   6.341 -0.1363  0.3109  0.1346
  153SAPE   O1316932   4.126   5.943   6.458 -0.2118 -0.4992 -0.5190
  153SAPE   O1416933   4.113   5.844   6.228  0.1040 -0.4945  0.6289
  153SAPE   O1216934   4.288   6.005   6.283  0.2319 -0.0264 -0.2636
  153SAPE   O1116935   4.298   5.793   6.378  0.3637  0.1552  0.2753
  153SAPE    C116936   4.305   5.657   6.326 -0.1460 -0.2283  0.2194
  153SAPE    HA16937   4.288   5.639   6.218  3.1704 -2.7306  0.0356
  153SAPE    HB16938   4.412   5.628   6.330 -0.1436 -0.2801 -0.2148
  153SAPE    C216939   4.226   5.550   6.409  0.5300 -0.9785  0.2026
  153SAPE    HS16940   4.117   5.571   6.396  0.5201 -0.8023  0.5679
  153SAPE   O2116941   4.284   5.560   6.545 -0.3966  0.2526 -0.1557
  153SAPE   C2116942   4.194   5.536   6.630  0.2688 -0.2475 -0.4128
  153SAPE   O2216943   4.077   5.508   6.610 -0.1028 -0.2730  0.1640
  153SAPE   C2216944   4.266   5.569   6.764 -0.6866 -0.9184 -0.2035
  153SAPE   H2R16945   4.286   5.478   6.824 -1.1433 -0.5002  0.6015
  153SAPE   H2S16946   4.362   5.624   6.749 -0.7937 -0.7070 -0.1208
  153SAPE    C316947   4.259   5.414   6.354 -0.4757 -0.4718  0.6493
  153SAPE    HX16948   4.369   5.405   6.370 -0.0106  1.3919 -1.2210
  153SAPE    HY16949   4.251   5.402   6.243  2.0687 -3.8870  0.7660
  153SAPE   O3116950   4.183   5.299   6.406  0.6551 -0.0035  0.0245
  153SAPE   C3116951   4.053   5.291   6.393 -0.2238  0.2695  0.5478
  153SAPE   O3216952   3.975   5.362   6.328 -0.7778 -1.1678 -0.0631
  153SAPE   C3216953   4.003   5.164   6.462 -0.2055  0.2260 -0.1008
  153SAPE   H2X16954   4.076   5.082   6.444 -0.4698  0.0897 -0.5705
  153SAPE   H2Y16955   3.908   5.131   6.413 -0.1984 -0.2487  0.1986
  153SAPE   C2316956   4.177   5.649   6.859 -0.6050 -0.4904 -0.0698
  153SAPE   H3R16957   4.094   5.584   6.896 -1.4267  0.2056 -0.6829
  153SAPE   H3S16958   4.128   5.733   6.807  2.4035  1.0202 -0.5625
  153SAPE   C2416959   4.242   5.706   6.984  0.2357 -0.5590 -0.5336
  153SAPE   H4R16960   4.342   5.749   6.961  0.4224 -0.7799 -0.1275
  153SAPE   H4S16961   4.252   5.621   7.054  1.2831 -0.0747 -0.0739
  153SAPE   C2516962   4.160   5.830   7.037 -1.1115  0.0473 -0.1920
  153SAPE   H5R16963   4.126   5.896   6.955 -1.1202  0.7409  0.3666
  153SAPE   C2616964   4.118   5.851   7.159  0.2775  0.0548  0.0091
  153SAPE   H6R16965   4.065   5.946   7.178  1.2416  0.3675  1.2283
  153SAPE   C2716966   4.125   5.765   7.284  0.5183  0.3405  0.2492
  153SAPE   H7R16967   4.214   5.779   7.348  0.9466 -1.0331 -0.0327
  153SAPE   H7S16968   4.122   5.658   7.254 -1.4859  0.5136 -0.2573
  153SAPE   C2816969   4.006   5.790   7.366  0.2774 -0.4705  0.6623
  153SAPE   H8R16970   3.923   5.842   7.315 -0.1604 -0.7606  1.0815
  153SAPE   C2916971   3.979   5.764   7.496 -0.2427 -0.6465 -0.4986
  153SAPE   H9R16972   3.881   5.792   7.538 -1.8406 -1.3490 -3.5324
  153SAPE  C21016973   4.067   5.689   7.584  0.2164  0.6292  0.0654
  153SAPE  H10R16974   4.157   5.648   7.533  1.1924  1.2746  1.2369
  153SAPE  H10S16975   4.008   5.610   7.635 -1.9942  0.6635 -2.3826
  153SAPE  C21116976   4.139   5.777   7.688 -0.5388 -0.3745  0.0020
  153SAPE  H11R16977   4.141   5.883   7.659 -1.2009 -0.9898 -2.3806
  153SAPE  C21216978   4.180   5.739   7.812  0.5384  0.4706 -0.4349
  153SAPE  H12R16979   4.241   5.808   7.872  0.8980 -0.0577 -0.1880
  153SAPE  C21316980   4.180   5.597   7.860  0.4333  0.4663  0.1029
  153SAPE  H13R16981   4.140   5.527   7.783  0.5299 -0.2739  0.7254
  153SAPE  H13S16982   4.117   5.584   7.950  1.5836 -0.7208  0.7636
  153SAPE  C21416983   4.326   5.565   7.889  0.4689  0.9851 -0.1592
  153SAPE  H14R16984   4.394   5.592   7.807 -0.3229  1.6784 -0.5891
  153SAPE  C21516985   4.365   5.498   8.002 -0.0181  0.1325 -0.5787
  153SAPE  H15R16986   4.472   5.494   8.026  0.0735  1.2004 -0.7945
  153SAPE  C21616987   4.258   5.460   8.105  0.7547  0.2411  0.0796
  153SAPE  H16R16988   4.168   5.524   8.121 -0.6381 -1.9464  1.3019
  153SAPE  H16S16989   4.305   5.465   8.206 -2.0093  0.5948  1.4017
  153SAPE  C21716990   4.207   5.314   8.109 -0.2098 -0.0345  0.5720
  153SAPE  H17R16991   4.153   5.292   8.014  0.3008 -0.1797  0.3140
  153SAPE  H17S16992   4.147   5.289   8.199 -2.3997  1.6782 -0.3417
  153SAPE  C21816993   4.333   5.212   8.111  0.8124  0.7807  0.6189
  153SAPE  H18R16994   4.402   5.226   8.025 -1.6623 -2.0959 -1.9539
  153SAPE  H18S16995   4.273   5.124   8.081 -0.6430  2.1325 -0.5213
  153SAPE  C21916996   4.412   5.192   8.243 -0.3961 -1.0227  0.2033
  153SAPE  H19R16997   4.453   5.295   8.253  0.8310 -1.2116 -2.3141
  153SAPE  H19S16998   4.492   5.117   8.228  0.4511 -0.0411 -0.3347
  153SAPE  C22016999   4.337   5.166   8.365 -0.0364  0.1012 -0.5349
  153SAPE  H20R17000   4.243   5.113   8.337 -1.1497  1.1825  1.0272
  153SAPE  H20S17001   4.291   5.261   8.401  1.3102  0.3833  0.4800
  153SAPE  H20T17002   4.390   5.120   8.451 -1.9047 -1.1224  0.0006
  153SAPE   C3317003   3.970   5.195   6.610  0.2542  0.4825 -0.0778
  153SAPE   H3X17004   4.042   5.266   6.656  0.0921 -0.4060  1.5871
  153SAPE   H3Y17005   3.972   5.101   6.670  1.8359 -0.3754 -1.4429
  153SAPE   C3417006   3.832   5.254   6.646 -0.3904 -0.0097  0.5096
  153SAPE   H4X17007   3.758   5.195   6.589  1.6262 -0.5242 -1.6327
  153SAPE   H4Y17008   3.816   5.357   6.607 -0.8014  0.9675  3.1114
  153SAPE   C3517009   3.787   5.233   6.790  0.3938 -0.3693 -0.5770
  153SAPE   H5X17010   3.710   5.311   6.805  1.2147  0.6228 -1.3872
  153SAPE   H5Y17011   3.873   5.262   6.854 -0.1585  4.7297 -1.9224
  153SAPE   C3617012   3.726   5.098   6.846 -0.2638  0.3061 -0.3122
  153SAPE   H6X17013   3.796   5.015   6.823 -0.0889  1.0279 -2.4684
  153SAPE   H6Y17014   3.642   5.082   6.775 -0.1912 -0.5183 -0.2247
  153SAPE   C3717015   3.691   5.090   6.998  0.7901 -0.2350 -0.0977
  153SAPE   H7X17016   3.614   5.170   7.007 -0.1949 -1.1322 -0.4146
  153SAPE   H7Y17017   3.787   5.100   7.053 -0.0033  1.0200  1.0773
  153SAPE   C3817018   3.619   4.968   7.055 -0.2681  0.0811 -0.0091
  153SAPE   H8X17019   3.681   4.876   7.047  0.5094  0.5569  0.5397
  153SAPE   H8Y17020   3.529   4.932   7.000  0.3566 -1.8777  0.2256
  153SAPE   C3917021   3.584   4.984   7.205 -0.7933 -0.0760 -0.7818
  153SAPE   H9X17022   3.522   4.900   7.244  0.3369  0.5982  2.6088
  153SAPE   H9Y17023   3.519   5.074   7.202 -0.0060  0.5443  0.5257
  153SAPE  C31017024   3.689   5.016   7.313  0.1803  0.3736 -0.4800
  153SAPE  H10X17025   3.759   5.093   7.273  0.3208 -0.7358 -2.4718
  153SAPE  H10Y17026   3.746   4.921   7.325 -1.7658 -0.7027  0.5519
  153SAPE  C31117027   3.634   5.064   7.448 -0.1574 -0.5703 -0.2586
  153SAPE  H11X17028   3.572   4.979   7.483 -0.2601  0.0196  1.0140
  153SAPE  H11Y17029   3.571   5.155   7.438  0.5944  0.1546  1.3862
  153SAPE  C31217030   3.743   5.104   7.544  0.6737  0.3651  0.1627
  153SAPE  H12X17031   3.800   5.187   7.497  2.4207 -0.7796  0.2107
  153SAPE  H12Y17032   3.803   5.011   7.556  2.3437  1.3598 -0.3359
  153SAPE  C31317033   3.691   5.141   7.684 -0.4460 -0.3521  0.2466
  153SAPE  H13X17034   3.649   5.046   7.723 -0.9073 -0.9471 -1.6251
  153SAPE  H13Y17035   3.615   5.220   7.669  3.9610  4.5839  2.3718
  153SAPE  C31417036   3.801   5.196   7.780 -0.4916 -1.0387  0.0254
  153SAPE  H14X17037   3.847   5.290   7.742  1.5734 -2.3502 -0.8360
  153SAPE  H14Y17038   3.885   5.124   7.772  0.7687  0.0940  2.5105
  153SAPE  C31517039   3.743   5.196   7.926 -0.4733  0.3952  0.4962
  153SAPE  H15X17040   3.691   5.099   7.941  1.9932 -1.2264 -1.1254
  153SAPE  H15Y17041   3.659   5.265   7.947  0.0443  0.7939  1.3184
  153SAPE  C31617042   3.851   5.217   8.028 -0.2145  0.1488  0.4011
  153SAPE  H16X17043   3.900   5.314   8.008  0.2974 -0.8103 -3.3036
  153SAPE  H16Y17044   3.924   5.135   8.014 -1.4323 -0.5533 -2.1685
  153SAPE  C31717045   3.810   5.200   8.174  0.0925 -0.5061 -0.0914
  153SAPE  H17X17046   3.757   5.288   8.216  1.6096 -0.0691  0.9485
  153SAPE  H17Y17047   3.891   5.168   8.243 -0.0574 -0.9006 -0.0939
  153SAPE  C31817048   3.706   5.094   8.190  0.1162  1.1476  0.0111
  153SAPE  H18X17049   3.720   4.997   8.138 -1.7938  1.2557 -0.7323
  153SAPE  H18Y17050   3.608   5.135   8.160  0.5139 -0.6506 -4.0962
  153SAPE  H18Z17051   3.691   5.066   8.297  0.7095 -0.2403 -0.2561
  154SAPE     N17052   1.894   3.885   6.128 -0.6872  0.4897 -0.1008
  154SAPE   HN117053   1.804   3.833   6.135  1.4098 -3.1994  0.6043
  154SAPE   HN217054   1.928   3.922   6.037  0.7848  1.1331  0.6986
  154SAPE   HN317055   1.957   3.804   6.141 -0.7958  0.4076 -0.0823
  154SAPE   C1217056   1.923   3.982   6.244 -0.0549  0.2683  0.8806
  154SAPE  H12A17057   2.031   4.004   6.253  0.6218 -2.2396 -0.5061
  154SAPE  H12B17058   1.892   3.935   6.341 -1.0744  1.0110  0.9265
  154SAPE   C1117059   1.825   4.104   6.235 -0.4133  0.0756 -0.0656
  154SAPE  H11A17060   1.817   4.146   6.337  1.4801 -0.1650  0.1948
  154SAPE  H11B17061   1.722   4.075   6.205  0.6374 -1.9771 -1.8497
  154SAPE     P17062   1.974   4.324   6.207 -0.0757 -0.0760  0.1452
  154SAPE   O1317063   2.098   4.272   6.264  0.1583  0.0768 -0.6197
  154SAPE   O1417064   1.991   4.429   6.099  0.0322  0.4709 -0.4443
  154SAPE   O1217065   1.888   4.206   6.146 -0.3185  0.7707 -0.1292
  154SAPE   O1117066   1.884   4.394   6.317 -0.3564 -0.5410 -0.3638
  154SAPE    C117067   1.956   4.506   6.392  0.2002  0.1931 -0.3603
  154SAPE    HA17068   2.046   4.547   6.341  1.1895 -3.1828 -1.4351
  154SAPE    HB17069   1.893   4.595   6.413  0.4125  0.3511 -0.3880
  154SAPE    C217070   2.003   4.474   6.539  0.5703  0.4674 -0.3040
  154SAPE    HS17071   2.003   4.569   6.595  0.5100  0.6331 -0.5835
  154SAPE   O2117072   2.123   4.396   6.539  0.1106 -0.3791 -0.2035
  154SAPE   C2117073   2.231   4.472   6.533  0.0114 -0.2538  0.5853
  154SAPE   O2217074   2.239   4.591   6.509 -0.2640  0.1702 -0.1629
  154SAPE   C2217075   2.349   4.378   6.544  0.7074 -0.2053 -0.3834
  154SAPE   H2R17076   2.312   4.280   6.580 -2.2390  0.4524 -1.4932
  154SAPE   H2S17077   2.388   4.370   6.440  0.1550  0.0781 -0.6157
  154SAPE    C317078   1.884   4.383   6.593 -0.0235 -0.5912  1.1569
  154SAPE    HX17079   1.882   4.287   6.537  0.0689  0.4343 -0.6361
  154SAPE    HY17080   1.791   4.440   6.570 -0.0248 -0.3730  1.6844
  154SAPE   O3117081   1.890   4.367   6.732  0.5407  0.0559  0.1504
  154SAPE   C3117082   1.981   4.281   6.782  0.6013  0.5040 -0.1503
  154SAPE   O3217083   2.031   4.195   6.709  0.0715 -0.0507 -0.3122
  154SAPE   C3217084   1.987   4.280   6.932 -0.7890  0.5987 -0.7504
  154SAPE   H2X17085   2.012   4.383   6.966 -0.1818  0.0860  0.4117
  154SAPE   H2Y17086   2.076   4.221   6.965 -1.6109  0.3876  1.1265
  154SAPE   C2317087   2.458   4.436   6.636 -0.0021 -0.8229 -0.2789
  154SAPE   H3R17088   2.478   4.542   6.608  1.7104 -0.8950  0.5942
  154SAPE   H3S17089   2.557   4.384   6.636  0.2296 -0.4026 -1.1309
  154SAPE   C2417090   2.404   4.442   6.783 -0.3405  0.2368 -0.5743
  154SAPE   H4R17091   2.317   4.509   6.798 -0.8629  0.2447 -3.2697
  154SAPE   H4S17092   2.482   4.499   6.838 -1.9418  2.0694 -0.1506
  154SAPE   C2517093   2.388   4.302   6.842  0.5563  0.9479  0.0377
  154SAPE   H5R17094   2.296   4.248   6.817 -0.3711  2.7658 -0.5551
  154SAPE   C2617095   2.469   4.252   6.936  0.8097 -0.0032  0.4050
  154SAPE   H6R17096   2.435   4.157   6.981 -1.6592 -0.4807 -2.3033
  154SAPE   C2717097   2.588   4.320   7.003 -0.0864 -0.5384 -0.1571
  154SAPE   H7R17098   2.551   4.369   7.095  1.9478 -2.5360  1.7902
  154SAPE   H7S17099   2.622   4.409   6.946 -1.6658  0.5913  0.6281
  154SAPE   C2817100   2.705   4.230   7.027 -0.2025  0.2513 -0.8436
  154SAPE   H8R17101   2.769   4.216   6.938  3.3655 -1.3053  1.8458
  154SAPE   C2917102   2.736   4.158   7.139 -0.4268  0.1037 -0.5114
  154SAPE   H9R17103   2.827   4.097   7.138 -0.6036 -0.1428 -2.4468
  154SAPE  C21017104   2.654   4.153   7.265 -0.7644  0.3709  0.2052
  154SAPE  H10R17105   2.643   4.048   7.300 -0.9444  0.5324  0.6420
  154SAPE  H10S17106   2.550   4.189   7.247  0.1538  1.8146 -2.3644
  154SAPE  C21117107   2.706   4.245   7.373  0.6147  0.0979 -0.3818
  154SAPE  H11R17108   2.714   4.349   7.338  0.3573  0.4638  0.6322
  154SAPE  C21217109   2.736   4.220   7.499 -0.2387 -0.4163  0.4541
  154SAPE  H12R17110   2.753   4.298   7.575 -2.4154 -0.5737  1.1456
  154SAPE  C21317111   2.713   4.095   7.576  0.6488  0.6897 -0.0144
  154SAPE  H13R17112   2.672   4.012   7.515 -0.4212  2.1127 -1.2810
  154SAPE  H13S17113   2.636   4.110   7.655 -1.0220  0.1608 -1.4946
  154SAPE  C21417114   2.846   4.057   7.644  0.2039 -0.2799  0.4908
  154SAPE  H14R17115   2.914   4.021   7.566  1.2364  1.0487  0.7634
  154SAPE  C21517116   2.882   4.082   7.774  0.5736 -0.5264  0.2918
  154SAPE  H15R17117   2.975   4.038   7.812  0.4749  0.7312  2.0780
  154SAPE  C21617118   2.812   4.142   7.890 -0.4758  0.7200 -0.2423
  154SAPE  H16R17119   2.718   4.192   7.860  1.9099  5.6153 -0.0880
  154SAPE  H16S17120   2.875   4.225   7.930 -0.0629 -0.5971  1.8830
  154SAPE  C21717121   2.780   4.040   7.998 -0.2151 -0.5772  0.0376
  154SAPE  H17R17122   2.716   4.102   8.065 -1.1821 -1.6056  0.0980
  154SAPE  H17S17123   2.868   4.010   8.059 -0.1118 -2.3613 -0.9638
  154SAPE  C21817124   2.701   3.918   7.952 -0.5863  0.4186  0.0605
  154SAPE  H18R17125   2.769   3.868   7.879  3.5683  3.2038  1.8407
  154SAPE  H18S17126   2.612   3.952   7.895 -0.1765  2.0388  0.3767
  154SAPE  C21917127   2.668   3.821   8.065 -0.2934  0.0683  0.0344
  154SAPE  H19R17128   2.614   3.864   8.151  0.0415 -0.6174  0.5939
  154SAPE  H19S17129   2.766   3.788   8.105 -0.9721 -1.7017  0.2682
  154SAPE  C22017130   2.595   3.700   8.012  0.3670  0.2624 -0.3868
  154SAPE  H20R17131   2.576   3.624   8.090  2.0093  0.7073  0.4641
  154SAPE  H20S17132   2.635   3.654   7.920  0.9256  0.3587 -0.1948
  154SAPE  H20T17133   2.490   3.722   7.982 -0.2214 -0.9904  0.6955
  154SAPE   C3317134   1.853   4.250   7.001  0.4305  0.0491  0.4171
  154SAPE   H3X17135   1.807   4.156   6.963 -0.9343  1.2035 -0.8529
  154SAPE   H3Y17136   1.776   4.325   6.974  1.3903  0.5226 -1.0664
  154SAPE   C3417137   1.859   4.247   7.154  0.1237 -0.0982 -0.3673
  154SAPE   H4X17138   1.753   4.255   7.186 -0.2355 -0.2160 -1.4898
  154SAPE   H4Y17139   1.905   4.339   7.196  2.2866 -1.5296  0.5251
  154SAPE   C3517140   1.930   4.129   7.218 -0.2421 -0.0951  0.0528
  154SAPE   H5X17141   2.037   4.107   7.196  1.0786  2.7603  3.2120
  154SAPE   H5Y17142   1.866   4.038   7.206  0.3374 -0.4204 -0.6000
  154SAPE   C3617143   1.920   4.143   7.369 -0.0405 -0.4966 -0.2871
  154SAPE   H6X17144   1.972   4.054   7.410  0.8906 -0.1722 -0.7527
  154SAPE   H6Y17145   1.815   4.136   7.404 -0.2598  1.7329 -0.3962
  154SAPE   C3717146   1.984   4.267   7.433 -0.1223  0.3294 -0.2121
  154SAPE   H7X17147   1.926   4.357   7.401 -1.2149  0.4092  1.8716
  154SAPE   H7Y17148   2.086   4.282   7.394  0.6513  0.2737  1.7401
  154SAPE   C3817149   1.988   4.259   7.579  0.0066 -0.8972 -0.0768
  154SAPE   H8X17150   2.047   4.346   7.613  0.4654 -1.0354 -0.5050
  154SAPE   H8Y17151   2.034   4.170   7.627 -0.1103 -0.8417  0.1381
  154SAPE   C3917152   1.858   4.287   7.653 -0.1978  0.7878  0.0847
  154SAPE   H9X17153   1.795   4.196   7.661 -1.0152  1.1476 -1.9058
  154SAPE   H9Y17154   1.804   4.367   7.597 -2.1141 -1.0222 -0.7458
  154SAPE  C31017155   1.869   4.347   7.794 -0.3911  0.7879  0.0872
  154SAPE  H10X17156   1.767   4.376   7.825 -0.8569  2.8709 -3.1271
  154SAPE  H10Y17157   1.931   4.439   7.790  1.4890 -0.4529 -0.1048
  154SAPE  C31117158   1.917   4.253   7.902  0.5369 -0.0100  0.2996
  154SAPE  H11X17159   2.023   4.220   7.897  0.8696  0.2421  4.1706
  154SAPE  H11Y17160   1.863   4.156   7.910  1.9404 -0.8331 -0.0360
  154SAPE  C31217161   1.904   4.319   8.042  0.5555 -0.9650  0.0647
  154SAPE  H12X17162   1.798   4.351   8.050  1.2681  1.0505  1.9593
  154SAPE  H12Y17163   1.966   4.411   8.053  1.9364 -2.0265  1.2337
  154SAPE  C31317164   1.946   4.220   8.154 -0.4226 -0.7771 -0.2349
  154SAPE  H13X17165   2.055   4.198   8.150 -0.1689  0.5421 -0.8478
  154SAPE  H13Y17166   1.884   4.129   8.160  0.0244 -0.9561  2.5646
  154SAPE  C31417167   1.919   4.288   8.296  0.5814 -0.9312 -0.0334
  154SAPE  H14X17168   1.821   4.340   8.296  1.9547  1.7525 -0.5367
  154SAPE  H14Y17169   1.997   4.366   8.307 -0.9846  0.3909  2.1961
  154SAPE  C31517170   1.921   4.186   8.404 -0.1839  0.5319 -0.2063
  154SAPE  H15X17171   2.021   4.139   8.421 -1.1442 -2.4831 -2.3695
  154SAPE  H15Y17172   1.848   4.106   8.380 -0.1832  0.4289  0.1373
  154SAPE  C31617173   1.880   4.247   8.547  0.1598 -0.6119  0.4017
  154SAPE  H16X17174   1.951   4.332   8.559  0.7912 -1.0668 -0.0828
  154SAPE  H16Y17175   1.898   4.170   8.624  1.1492 -1.0035 -0.2032
  154SAPE  C31717176   1.739   4.295   8.546 -0.4330  0.1219 -0.0450
  154SAPE  H17X17177   1.684   4.200   8.533  1.8297 -0.9843 -1.8986
  154SAPE  H17Y17178   1.711   4.350   8.455 -0.3726  1.1129  0.5288
  154SAPE  C31817179   1.701   4.366   8.677  0.0984  0.1408  0.1666
  154SAPE  H18X17180   1.749   4.321   8.767 -1.2101 -1.9013 -0.1189
  154SAPE  H18Y17181   1.590   4.369   8.684  0.0943 -1.0591  0.8294
  154SAPE  H18Z17182   1.737   4.471   8.669  0.4779 -0.0427 -0.5924
  155SAPE     N17183   1.630   5.313   6.473  0.0413 -0.1653 -0.0296
  155SAPE   HN117184   1.578   5.264   6.550  0.4338  1.6396  1.4095
  155SAPE   HN217185   1.562   5.378   6.430 -0.4491 -1.4163 -1.1960
  155SAPE   HN317186   1.662   5.237   6.410  0.8177  0.1770 -0.0443
  155SAPE   C1217187   1.754   5.393   6.529 -0.9240 -0.1193  0.5506
  155SAPE  H12A17188   1.839   5.372   6.461 -1.2840  0.5036 -0.0959
  155SAPE  H12B17189   1.789   5.343   6.622  1.1328  0.1761 -0.0443
  155SAPE   C1117190   1.730   5.539   6.557 -0.3515  0.0284  0.0784
  155SAPE  H11A17191   1.810   5.594   6.610 -0.2303  0.3897 -0.4669
  155SAPE  H11B17192   1.643   5.549   6.626 -2.0248 -0.1617 -1.9494
  155SAPE     P17193   1.816   5.661   6.347 -0.1433  0.0240  0.1144
  155SAPE   O1317194   1.886   5.547   6.292  0.3115  0.3063 -0.0170
  155SAPE   O1417195   1.756   5.760   6.251  0.5725 -0.3537  0.1502
  155SAPE   O1217196   1.702   5.617   6.441 -0.1379 -0.3191  0.7420
  155SAPE   O1117197   1.912   5.737   6.446  0.6605  0.2565  0.1395
  155SAPE    C117198   1.998   5.845   6.410  0.2844  0.0438  0.2424
  155SAPE    HA17199   1.951   5.916   6.339 -0.0602 -0.0385  0.3857
  155SAPE    HB17200   2.000   5.913   6.499 -0.0607  2.4002 -1.5071
  155SAPE    C217201   2.142   5.797   6.368 -0.2625  0.0968 -0.0923
  155SAPE    HS17202   2.136   5.748   6.269 -0.2907  1.8145 -0.9720
  155SAPE   O2117203   2.195   5.710   6.470  0.2257  0.0045 -0.5547
  155SAPE   C2117204   2.301   5.643   6.452  0.1057 -0.8651  0.2540
  155SAPE   O2217205   2.378   5.643   6.357  0.4418  0.4191 -0.0439
  155SAPE   C2217206   2.331   5.556   6.576 -0.6093 -0.3893 -0.7004
  155SAPE   H2R17207   2.297   5.602   6.671  1.2970  0.6385 -0.4959
  155SAPE   H2S17208   2.282   5.460   6.548 -1.3004  0.3933 -2.2320
  155SAPE    C317209   2.230   5.915   6.332  0.2043 -0.2521  0.4388
  155SAPE    HX17210   2.183   5.960   6.242  0.5157 -0.1366  0.3295
  155SAPE    HY17211   2.336   5.885   6.313  0.5031 -0.0138  1.6480
  155SAPE   O3117212   2.223   6.022   6.436 -0.0573  0.0064  0.0930
  155SAPE   C3117213   2.327   6.020   6.516 -0.3452 -0.2524 -0.0001
  155SAPE   O3217214   2.429   5.955   6.507  0.3855  0.1398 -0.1289
  155SAPE   C3217215   2.291   6.113   6.640  0.2953 -0.1632 -0.6498
  155SAPE   H2X17216   2.240   6.205   6.604  0.8146  0.2282 -0.3941
  155SAPE   H2Y17217   2.389   6.141   6.684  0.2693 -1.0928  0.0090
  155SAPE   C2317218   2.483   5.528   6.594 -0.7473 -0.6704  0.7786
  155SAPE   H3R17219   2.549   5.617   6.592  1.1874 -2.0727 -0.3865
  155SAPE   H3S17220   2.508   5.457   6.512  2.1190 -1.4426  2.2722
  155SAPE   C2417221   2.508   5.478   6.737  1.0155 -0.0734 -0.0090
  155SAPE   H4R17222   2.470   5.547   6.816  1.8539 -0.3490  0.6514
  155SAPE   H4S17223   2.616   5.473   6.761  0.8014 -2.7014  0.6313
  155SAPE   C2517224   2.449   5.343   6.750  0.0959 -0.1181 -0.1859
  155SAPE   H5R17225   2.438   5.275   6.664  1.2367 -2.1869  1.2482
  155SAPE   C2617226   2.395   5.299   6.864 -0.2286 -0.5413 -0.2897
  155SAPE   H6R17227   2.357   5.196   6.866  0.1044 -0.7931 -3.8347
  155SAPE   C2717228   2.390   5.371   6.996  0.1717  0.1686 -0.2901
  155SAPE   H7R17229   2.478   5.437   7.013  1.3280 -1.3803 -0.1361
  155SAPE   H7S17230   2.381   5.298   7.079 -1.6929 -0.2157 -0.8054
  155SAPE   C2817231   2.264   5.460   6.989 -0.5571 -1.0109  0.1973
  155SAPE   H8R17232   2.247   5.508   6.892 -2.0080 -1.4009  0.2449
  155SAPE   C2917233   2.184   5.491   7.096  0.6852 -0.0454  0.1442
  155SAPE   H9R17234   2.110   5.570   7.075 -0.1036 -1.0826 -1.0470
  155SAPE  C21017235   2.188   5.452   7.238  0.4398 -0.4173  0.5955
  155SAPE  H10R17236   2.163   5.544   7.294  0.2466  0.9369 -1.6802
  155SAPE  H10S17237   2.291   5.426   7.272  0.0493 -0.4400  1.7715
  155SAPE  C21117238   2.091   5.336   7.262 -0.1956 -0.1792  0.1638
  155SAPE  H11R17239   2.097   5.254   7.189 -1.5503  0.8774 -1.1471
  155SAPE  C21217240   1.990   5.335   7.356  0.1544 -0.0792  0.3431
  155SAPE  H12R17241   1.919   5.252   7.371  0.7022 -0.7985 -0.8857
  155SAPE  C21317242   1.974   5.444   7.453  0.5689  0.2292 -0.9259
  155SAPE  H13R17243   1.989   5.546   7.413  2.5719  0.7848  1.1722
  155SAPE  H13S17244   2.061   5.425   7.519  0.3103  1.2733 -0.2686
  155SAPE  C21417245   1.847   5.447   7.539  0.0259 -0.1782 -0.6694
  155SAPE  H14R17246   1.762   5.491   7.484 -1.2000  0.3823  1.6081
  155SAPE  C21517247   1.827   5.414   7.668  0.0464 -0.5112  0.1015
  155SAPE  H15R17248   1.724   5.433   7.702  0.5398 -1.4034  2.1597
  155SAPE  C21617249   1.927   5.355   7.766  0.9769 -0.3912 -0.5099
  155SAPE  H16R17250   1.945   5.423   7.852 -1.6863  0.3265 -0.4555
  155SAPE  H16S17251   2.020   5.328   7.712  0.7487  0.6497 -1.4407
  155SAPE  C21717252   1.889   5.227   7.843  0.0785  0.3205  0.6525
  155SAPE  H17R17253   1.793   5.232   7.899  0.7059 -1.4130  1.9209
  155SAPE  H17S17254   1.962   5.202   7.923  0.1627  0.3303  0.5782
  155SAPE  C21817255   1.889   5.104   7.749 -0.4730 -0.7263 -0.2091
  155SAPE  H18R17256   1.826   5.144   7.667  1.4807  1.6948 -0.5825
  155SAPE  H18S17257   1.841   5.012   7.788 -1.5498 -0.9132 -1.9027
  155SAPE  C21917258   2.024   5.066   7.678  1.0851  0.4115  0.1129
  155SAPE  H19R17259   2.050   5.153   7.614 -2.0292  0.0351 -1.7844
  155SAPE  H19S17260   2.008   4.980   7.610  1.2392  0.3239  0.1876
  155SAPE  C22017261   2.137   5.039   7.782  0.6754  0.6152  0.0340
  155SAPE  H20R17262   2.136   5.109   7.869  3.2998  0.5586  0.1441
  155SAPE  H20S17263   2.239   5.055   7.740  0.9304  1.2262  0.8626
  155SAPE  H20T17264   2.111   4.937   7.818  0.2043  1.3169  1.7370
  155SAPE   C3317265   2.199   6.045   6.745 -0.1150  0.2984  0.2899
  155SAPE   H3X17266   2.105   6.042   6.684  0.5988 -0.5269 -0.7928
  155SAPE   H3Y17267   2.197   6.117   6.829 -0.4970  0.2085  0.3614
  155SAPE   C3417268   2.252   5.911   6.795  0.3780  0.2716  0.0875
  155SAPE   H4X17269   2.347   5.935   6.847  0.6578  0.9427 -0.7290
  155SAPE   H4Y17270   2.268   5.836   6.714  1.4329  0.8726 -0.2651
  155SAPE   C3517271   2.157   5.846   6.894  0.6579 -0.5795 -0.2690
  155SAPE   H5X17272   2.207   5.750   6.921 -0.1333 -0.6272  1.0659
  155SAPE   H5Y17273   2.060   5.815   6.848  0.3098 -2.8597  1.8665
  155SAPE   C3617274   2.123   5.932   7.020  0.3145 -0.2492  0.7611
  155SAPE   H6X17275   2.022   5.974   6.999 -0.0889 -1.7705 -0.3850
  155SAPE   H6Y17276   2.204   6.008   7.026  0.4108 -0.4088  1.5911
  155SAPE   C3717277   2.109   5.847   7.143  0.1840 -0.1371  0.1418
  155SAPE   H7X17278   2.207   5.797   7.157  0.3438  0.2503  0.4311
  155SAPE   H7Y17279   2.026   5.774   7.130 -0.0973  0.0933  0.6305
  155SAPE   C3817280   2.068   5.922   7.271 -1.0627 -0.7904  0.1985
  155SAPE   H8X17281   1.977   5.982   7.249 -1.7305 -1.1598  1.8472
  155SAPE   H8Y17282   2.161   5.979   7.291 -0.1418 -2.4264  0.7272
  155SAPE   C3917283   2.063   5.825   7.394 -0.2291  0.0064 -0.1813
  155SAPE   H9X17284   2.163   5.778   7.409  0.1417  1.0853  0.7820
  155SAPE   H9Y17285   1.987   5.745   7.381 -0.8907  0.3447  1.5282
  155SAPE  C31017286   2.016   5.883   7.534  0.3176  0.1629  0.1460
  155SAPE  H10X17287   1.936   5.954   7.501 -0.5300  0.4501  2.7421
  155SAPE  H10Y17288   2.096   5.939   7.587  0.6624 -0.7702  0.6218
  155SAPE  C31117289   1.952   5.784   7.632 -0.8436  0.0480  0.3145
  155SAPE  H11X17290   2.031   5.718   7.673 -0.3470  0.0748 -0.5686
  155SAPE  H11Y17291   1.884   5.735   7.558 -0.4232 -0.5112  0.2917
  155SAPE  C31217292   1.878   5.865   7.737 -0.9096  0.2690 -0.1337
  155SAPE  H12X17293   1.792   5.927   7.705 -1.9520 -0.6590  0.8149
  155SAPE  H12Y17294   1.953   5.936   7.780 -2.0079  1.4248 -0.1121
  155SAPE  C31317295   1.849   5.776   7.856 -0.6893 -0.1073 -0.8940
  155SAPE  H13X17296   1.914   5.686   7.864  1.0940  1.3724  1.9915
  155SAPE  H13Y17297   1.750   5.729   7.837 -1.2112 -0.3356  2.1798
  155SAPE  C31417298   1.858   5.855   7.993  0.0298  0.3625  0.7443
  155SAPE  H14X17299   1.796   5.946   7.989  2.4131  2.0187  0.5131
  155SAPE  H14Y17300   1.961   5.896   7.997 -0.7230  2.4118 -0.2668
  155SAPE  C31517301   1.811   5.770   8.119 -0.2722 -0.2917 -0.1622
  155SAPE  H15X17302   1.880   5.683   8.120  0.3595  0.1935  2.3209
  155SAPE  H15Y17303   1.708   5.743   8.089 -0.3824  0.6427 -0.6644
  155SAPE  C31617304   1.807   5.851   8.239  0.6192 -0.7548  0.6892
  155SAPE  H16X17305   1.730   5.929   8.221 -0.6807 -2.3578 -0.9186
  155SAPE  H16Y17306   1.902   5.905   8.257 -0.1394  0.4034  1.2652
  155SAPE  C31717307   1.778   5.772   8.369  0.2196 -0.2944 -0.4791
  155SAPE  H17X17308   1.867   5.707   8.383 -1.6207 -3.1199 -1.4528
  155SAPE  H17Y17309   1.682   5.717   8.361 -1.3488  1.9960  1.6125
  155SAPE  C31817310   1.773   5.865   8.492 -0.1442  0.2131 -0.7135
  155SAPE  H18X17311   1.702   5.943   8.458 -0.2233 -0.6564 -2.6027
  155SAPE  H18Y17312   1.866   5.918   8.523 -1.3597  1.9110  0.1192
  155SAPE  H18Z17313   1.736   5.818   8.585  0.9342  1.1565  0.2137
  156SAPE     N17314   1.110   5.896   6.503  0.2369 -0.1338 -0.0590
  156SAPE   HN117315   1.110   5.927   6.602 -0.1116  0.8932 -0.3684
  156SAPE   HN217316   1.208   5.889   6.471  0.5088 -2.6280  1.2031
  156SAPE   HN317317   1.068   5.971   6.444 -2.1766 -2.0540 -0.8816
  156SAPE   C1217318   1.037   5.765   6.477 -0.2921 -0.0990  0.0562
  156SAPE  H12A17319   1.101   5.679   6.505 -4.6290 -3.1872  0.9772
  156SAPE  H12B17320   1.037   5.769   6.366 -1.4773  2.7757  0.0970
  156SAPE   C1117321   0.892   5.757   6.533  0.0080 -0.5228 -0.3923
  156SAPE  H11A17322   0.906   5.760   6.643  3.5523  0.5844 -0.8086
  156SAPE  H11B17323   0.843   5.665   6.496  0.3959 -0.9345  0.1236
  156SAPE     P17324   0.669   5.855   6.467 -0.0372  0.2780  0.1253
  156SAPE   O1317325   0.614   5.981   6.414  0.1349  0.0617 -0.2359
  156SAPE   O1417326   0.641   5.736   6.392 -0.8006 -0.2940  0.3948
  156SAPE   O1217327   0.823   5.866   6.476  0.5887 -0.1302  0.1636
  156SAPE   O1117328   0.634   5.836   6.619  0.0628 -0.0085 -1.0054
  156SAPE    C117329   0.648   5.942   6.719  0.7681 -0.3859 -0.9483
  156SAPE    HA17330   0.686   5.887   6.807 -4.2096 -0.1117  1.5796
  156SAPE    HB17331   0.720   6.019   6.685  0.9127 -1.0800 -2.2817
  156SAPE    C217332   0.519   6.020   6.749 -0.3245  0.4152 -0.1936
  156SAPE    HS17333   0.484   6.050   6.648  0.0538  1.0332 -0.1447
  156SAPE   O2117334   0.540   6.141   6.824 -0.1460  0.6042  0.0124
  156SAPE   C2117335   0.507   6.261   6.779 -0.2467  0.1306  0.3949
  156SAPE   O2217336   0.439   6.284   6.677  0.1275 -0.1502 -0.0741
  156SAPE   C2217337   0.570   6.371   6.866 -0.4001  0.6074 -0.7131
  156SAPE   H2R17338   0.668   6.335   6.905 -0.9383 -1.5535 -1.2956
  156SAPE   H2S17339   0.591   6.465   6.810  1.2234 -0.0672 -1.2819
  156SAPE    C317340   0.414   5.923   6.818  0.2456 -0.6337  0.1560
  156SAPE    HX17341   0.453   5.872   6.909 -2.7462 -2.1324  0.6400
  156SAPE    HY17342   0.394   5.840   6.748 -2.2584  0.7615 -0.8405
  156SAPE   O3117343   0.294   5.994   6.845  0.3550 -0.0425  0.3407
  156SAPE   C3117344   0.190   5.913   6.869 -0.1987  0.3377  1.1746
  156SAPE   O3217345   0.190   5.795   6.894  0.0374  0.0967 -0.3225
  156SAPE   C3217346   0.059   5.990   6.865  0.2775 -0.2205 -0.2287
  156SAPE   H2X17347   0.017   6.008   6.764 -3.0683 -1.2102  0.9339
  156SAPE   H2Y17348   0.088   6.087   6.911  0.4684 -0.1728 -0.4485
  156SAPE   C2317349   0.491   6.408   7.002 -0.2095  0.8921  0.7393
  156SAPE   H3R17350   0.552   6.484   7.054  1.3805  1.2647 -1.5717
  156SAPE   H3S17351   0.480   6.320   7.069 -2.7292  1.3600  1.0061
  156SAPE   C2417352   0.358   6.478   6.970  0.4686 -0.6178 -0.8459
  156SAPE   H4R17353   0.307   6.422   6.889 -1.3772  0.1395 -0.2282
  156SAPE   H4S17354   0.386   6.579   6.933 -0.3104 -0.3465 -0.7051
  156SAPE   C2517355   0.262   6.491   7.084 -0.3249 -0.5825 -0.5440
  156SAPE   H5R17356   0.215   6.394   7.103  0.1670 -0.6747  0.1989
  156SAPE   C2617357   0.224   6.601   7.157 -0.0114 -0.2032  0.8807
  156SAPE   H6R17358   0.161   6.586   7.246 -1.1316 -3.2982 -0.3917
  156SAPE   C2717359   0.277   6.745   7.131  0.0207 -0.0230  0.3726
  156SAPE   H7R17360   0.194   6.820   7.136 -1.6831 -1.9434  1.4178
  156SAPE   H7S17361   0.319   6.756   7.028 -0.3321 -0.5361  0.1716
  156SAPE   C2817362   0.372   6.790   7.240  0.1184 -0.7781  0.3498
  156SAPE   H8R17363   0.474   6.757   7.219  0.2413 -0.0633 -0.1676
  156SAPE   C2917364   0.339   6.850   7.355 -0.7551 -0.1521  1.1183
  156SAPE   H9R17365   0.421   6.878   7.423  0.4844 -1.6796  0.3072
  156SAPE  C21017366   0.205   6.883   7.415  1.1284  0.7541 -0.1463
  156SAPE  H10R17367   0.161   6.787   7.448  0.8727  0.6878 -0.6800
  156SAPE  H10S17368   0.134   6.925   7.341  1.0324  0.9381  0.0493
  156SAPE  C21117369   0.205   6.969   7.538  0.3995 -0.6081  0.1962
  156SAPE  H11R17370   0.300   7.024   7.538 -0.1547  0.3499  0.1889
  156SAPE  C21217371   0.109   6.988   7.630  0.4692  0.1867 -0.1020
  156SAPE  H12R17372   0.134   7.062   7.707 -1.6616 -1.1609  1.9799
  156SAPE  C21317373  -0.034   6.926   7.636 -0.0284  0.4361  0.3191
  156SAPE  H13R17374  -0.083   6.927   7.536  0.6151 -3.1690 -0.1270
  156SAPE  H13S17375  -0.108   6.993   7.683  0.9666  0.7464  1.4690
  156SAPE  C21417376  -0.029   6.780   7.695  0.3210 -0.7882 -0.2657
  156SAPE  H14R17377   0.068   6.739   7.662  1.2772  2.4606 -1.6620
  156SAPE  C21517378  -0.122   6.720   7.771 -0.3252  0.0513  0.0366
  156SAPE  H15R17379  -0.102   6.613   7.784  1.1895  0.1459 -1.4080
  156SAPE  C21617380  -0.254   6.781   7.821  0.0379  0.1862 -0.5971
  156SAPE  H16R17381  -0.243   6.891   7.807 -1.9419  0.3528 -0.9519
  156SAPE  H16S17382  -0.270   6.760   7.929  0.3686 -1.7286 -0.9091
  156SAPE  C21717383  -0.373   6.738   7.745 -0.0063 -0.7461 -0.1648
  156SAPE  H17R17384  -0.406   6.646   7.798  1.7350  0.1115  2.4694
  156SAPE  H17S17385  -0.356   6.723   7.636 -0.5288 -1.9631 -0.0886
  156SAPE  C21817386  -0.481   6.848   7.755  0.4609  0.0201 -0.3506
  156SAPE  H18R17387  -0.575   6.831   7.698  0.6312 -2.3460  0.0270
  156SAPE  H18S17388  -0.445   6.943   7.710  0.5621  0.0659 -0.1727
  156SAPE  C21917389  -0.528   6.860   7.899  0.7010 -0.6531  0.6922
  156SAPE  H19R17390  -0.449   6.879   7.974 -0.3499 -0.7350  1.8344
  156SAPE  H19S17391  -0.563   6.759   7.930  3.6166 -2.3417 -1.3164
  156SAPE  C22017392  -0.645   6.966   7.924  0.0188 -0.9409 -0.3930
  156SAPE  H20R17393  -0.686   6.970   8.028 -0.9398  2.5780 -0.8387
  156SAPE  H20S17394  -0.738   6.948   7.867  0.2874  0.1835 -1.2069
  156SAPE  H20T17395  -0.608   7.071   7.925 -0.6782 -0.6612 -2.7107
  156SAPE   C3317396  -0.055   5.927   6.950 -0.3029 -0.0625 -0.9522
  156SAPE   H3X17397  -0.056   5.816   6.942  1.8252 -0.2378  1.0746
  156SAPE   H3Y17398  -0.154   5.967   6.917 -2.2037 -3.2347  0.6989
  156SAPE   C3417399  -0.043   5.967   7.096  0.1056 -0.4784  0.3309
  156SAPE   H4X17400  -0.032   6.077   7.101 -2.0753 -0.3064  2.1281
  156SAPE   H4Y17401   0.053   5.918   7.124  0.8807  0.9614  0.2296
  156SAPE   C3517402  -0.162   5.924   7.179  0.2637 -0.2199 -0.6512
  156SAPE   H5X17403  -0.188   5.816   7.188 -1.2663  0.0436 -1.6411
  156SAPE   H5Y17404  -0.255   5.959   7.128  0.4381 -0.1565 -0.9294
  156SAPE   C3617405  -0.149   5.978   7.323 -0.0456  0.0258 -0.5574
  156SAPE   H6X17406  -0.109   6.082   7.322 -2.8163  1.1484 -0.1136
  156SAPE   H6Y17407  -0.077   5.925   7.388  0.8238  0.4130 -1.2040
  156SAPE   C3717408  -0.280   6.009   7.392 -0.6671  0.8294 -0.2902
  156SAPE   H7X17409  -0.344   5.918   7.388  0.0606  0.2650  0.7682
  156SAPE   H7Y17410  -0.325   6.098   7.342 -1.6182 -0.5513 -1.9718
  156SAPE   C3817411  -0.278   6.036   7.543  0.4679 -0.0183 -0.4984
  156SAPE   H8X17412  -0.194   6.108   7.554  0.3536  0.4039 -2.2475
  156SAPE   H8Y17413  -0.246   5.943   7.594  0.1833  0.1334 -0.0398
  156SAPE   C3917414  -0.403   6.094   7.605  0.6185 -0.0383  0.0022
  156SAPE   H9X17415  -0.484   6.021   7.580 -0.0647  1.0757 -1.0771
  156SAPE   H9Y17416  -0.423   6.188   7.550 -3.1243 -1.9781 -2.1122
  156SAPE  C31017417  -0.382   6.118   7.756 -0.6342  0.4543 -0.3004
  156SAPE  H10X17418  -0.340   6.026   7.801 -1.5522 -0.1965 -0.7328
  156SAPE  H10Y17419  -0.487   6.133   7.791 -0.4351 -1.0119  0.9640
  156SAPE  C31117420  -0.295   6.241   7.782 -0.0739  0.0234  0.2946
  156SAPE  H11X17421  -0.320   6.313   7.702  1.9041 -0.1307 -0.5021
  156SAPE  H11Y17422  -0.189   6.214   7.760  1.0028  2.9607  1.5621
  156SAPE  C31217423  -0.315   6.289   7.925  0.6846 -0.1730  0.6422
  156SAPE  H12X17424  -0.417   6.331   7.937  0.9199  0.5145  0.2761
  156SAPE  H12Y17425  -0.259   6.384   7.945  1.7046 -0.1715 -1.9747
  156SAPE  C31317426  -0.288   6.190   8.036  0.1780  0.5128 -0.5153
  156SAPE  H13X17427  -0.187   6.145   8.045 -0.4918 -0.7579  0.9983
  156SAPE  H13Y17428  -0.356   6.106   8.008  0.3815 -0.1228  0.8285
  156SAPE  C31417429  -0.333   6.231   8.178 -0.0858 -0.3603  0.2800
  156SAPE  H14X17430  -0.337   6.148   8.251  3.1224 -2.6063 -1.9607
  156SAPE  H14Y17431  -0.441   6.258   8.177 -0.5055 -2.0301 -0.6398
  156SAPE  C31517432  -0.235   6.333   8.236 -0.0013 -0.3135 -0.7787
  156SAPE  H15X17433  -0.293   6.389   8.312  0.3033  1.4344 -1.8167
  156SAPE  H15Y17434  -0.188   6.407   8.168 -0.7892  0.1872 -0.7918
  156SAPE  C31617435  -0.117   6.267   8.313  0.1142  0.3489  0.2499
  156SAPE  H16X17436  -0.085   6.180   8.251  1.7115  1.6407 -0.7537
  156SAPE  H16Y17437  -0.149   6.238   8.416 -0.7126  0.5910  0.0666
  156SAPE  C31717438   0.001   6.358   8.335  0.7459  0.1681 -0.2985
  156SAPE  H17X17439   0.065   6.363   8.245 -0.4430 -1.4890 -1.2655
  156SAPE  H17Y17440   0.066   6.311   8.412 -0.0637 -0.3709  0.0686
  156SAPE  C31817441  -0.052   6.496   8.383 -0.7145  0.1824 -0.3762
  156SAPE  H18X17442  -0.086   6.550   8.293 -1.9841 -1.5215 -0.9577
  156SAPE  H18Y17443   0.033   6.553   8.426  0.2658  1.4219 -3.8253
  156SAPE  H18Z17444  -0.126   6.498   8.466 -2.0201 -0.3790 -1.5031
  157SAPE     N17445   4.764   1.162   6.180 -0.1883  0.0225  0.4894
  157SAPE   HN117446   4.704   1.078   6.190  1.9067 -1.4379  0.8021
  157SAPE   HN217447   4.860   1.142   6.147 -0.3737  0.7554 -0.5209
  157SAPE   HN317448   4.772   1.205   6.274  0.5546 -1.7397  1.2480
  157SAPE   C1217449   4.687   1.255   6.083  0.8692 -0.3525  0.1382
  157SAPE  H12A17450   4.660   1.197   5.992 -1.3682  1.5484 -0.4485
  157SAPE  H12B17451   4.753   1.343   6.065  0.0145 -0.3456 -3.1993
  157SAPE   C1117452   4.563   1.297   6.153  0.2118 -0.3459  0.5481
  157SAPE  H11A17453   4.488   1.346   6.087 -0.8578 -0.2945  1.7686
  157SAPE  H11B17454   4.592   1.360   6.239  0.2008  0.4289 -0.0102
  157SAPE     P17455   4.380   1.206   6.314 -0.3045 -0.5398  0.4329
  157SAPE   O1317456   4.288   1.316   6.262  0.1534 -0.0209 -0.1204
  157SAPE   O1417457   4.316   1.070   6.337  0.2229 -0.2942 -0.4126
  157SAPE   O1217458   4.494   1.182   6.209 -0.0617  0.1028 -0.2501
  157SAPE   O1117459   4.458   1.253   6.443  0.1503  0.1426 -0.1221
  157SAPE    C117460   4.536   1.154   6.519 -0.3894 -0.4537  0.2586
  157SAPE    HA17461   4.501   1.049   6.503 -0.5765 -0.3118 -0.2840
  157SAPE    HB17462   4.641   1.159   6.485 -0.5222 -0.1586 -0.1217
  157SAPE    C217463   4.540   1.189   6.671 -0.2770  1.1969  1.0917
  157SAPE    HS17464   4.570   1.296   6.675 -2.6067  1.9696 -1.0698
  157SAPE   O2117465   4.632   1.105   6.738  0.1432 -0.2066  0.2110
  157SAPE   C2117466   4.724   1.167   6.812 -0.4209 -0.6276 -0.0633
  157SAPE   O2217467   4.728   1.291   6.826  0.4944 -0.3155 -0.2658
  157SAPE   C2217468   4.823   1.072   6.885 -0.9581  0.0685  0.4573
  157SAPE   H2R17469   4.770   1.023   6.969  3.6952 -1.7119  2.5255
  157SAPE   H2S17470   4.861   1.000   6.810  0.8147  1.1266  0.3116
  157SAPE    C317471   4.401   1.179   6.735 -0.3067 -0.4346 -0.1371
  157SAPE    HX17472   4.372   1.072   6.727  0.8608 -0.6602 -1.7172
  157SAPE    HY17473   4.328   1.227   6.666  1.1274 -0.1761 -1.5127
  157SAPE   O3117474   4.396   1.232   6.869  0.1346  0.4712  0.0290
  157SAPE   C3117475   4.397   1.362   6.874  0.7548  0.4613  0.0377
  157SAPE   O3217476   4.406   1.437   6.778 -0.4381  0.1843 -0.0842
  157SAPE   C3217477   4.364   1.405   7.015 -0.5698  0.2946 -0.6292
  157SAPE   H2X17478   4.303   1.498   7.008  2.0704  2.0438 -1.1786
  157SAPE   H2Y17479   4.460   1.420   7.069  0.8681 -3.8673 -1.8135
  157SAPE   C2317480   4.951   1.130   6.954 -0.4541 -0.1627 -0.3120
  157SAPE   H3R17481   4.982   1.221   6.898 -2.9896  0.1315 -1.2786
  157SAPE   H3S17482   5.029   1.051   6.944 -2.8785 -2.5903 -0.5603
  157SAPE   C2417483   4.924   1.156   7.100  0.2352  0.4067 -0.7458
  157SAPE   H4R17484   5.015   1.211   7.134  1.2492 -0.9268 -1.2431
  157SAPE   H4S17485   4.918   1.060   7.156 -2.4614 -0.4538 -2.4443
  157SAPE   C2517486   4.804   1.249   7.139 -0.1460 -0.4696 -0.0804
  157SAPE   H5R17487   4.810   1.343   7.081 -0.6749 -0.3707  0.0236
  157SAPE   C2617488   4.707   1.230   7.235 -0.2110 -0.5635 -0.2891
  157SAPE   H6R17489   4.635   1.311   7.254  0.8515  0.3419 -0.1274
  157SAPE   C2717490   4.703   1.114   7.331 -0.5518 -0.1601 -0.3870
  157SAPE   H7R17491   4.730   1.013   7.295 -1.8733 -0.6708  0.0157
  157SAPE   H7S17492   4.595   1.098   7.352 -1.6531  2.5181 -3.6487
  157SAPE   C2817493   4.784   1.144   7.451 -0.0340 -0.3826 -0.1495
  157SAPE   H8R17494   4.891   1.150   7.426 -0.0175  1.4018  0.2486
  157SAPE   C2917495   4.745   1.185   7.572  0.3545 -0.1716  0.2340
  157SAPE   H9R17496   4.819   1.206   7.651  0.2007  0.0726  0.3126
  157SAPE  C21017497   4.603   1.216   7.610  0.0851 -0.4222 -0.4158
  157SAPE  H10R17498   4.539   1.272   7.538 -1.7047 -3.3859 -1.2210
  157SAPE  H10S17499   4.611   1.295   7.687 -1.1793 -0.4143 -0.2880
  157SAPE  C21117500   4.526   1.096   7.667  0.3302  0.2135 -0.9483
  157SAPE  H11R17501   4.488   1.031   7.587  2.0770  1.4668 -2.8653
  157SAPE  C21217502   4.514   1.067   7.797 -0.4965  0.6291  0.0433
  157SAPE  H12R17503   4.449   0.982   7.822 -1.5017  1.0085 -1.2180
  157SAPE  C21317504   4.574   1.135   7.919  0.1047 -0.0075  1.2235
  157SAPE  H13R17505   4.495   1.203   7.959  0.1375  0.1596  1.0081
  157SAPE  H13S17506   4.654   1.209   7.897 -0.1953  0.1820  0.7696
  157SAPE  C21417507   4.620   1.032   8.017 -0.0057 -0.5292  0.5488
  157SAPE  H14R17508   4.666   0.940   7.978 -2.5161 -1.5728 -0.0082
  157SAPE  C21517509   4.627   1.050   8.145 -0.7962  0.2709  0.6365
  157SAPE  H15R17510   4.659   0.965   8.206  0.5540 -0.0744 -0.5322
  157SAPE  C21617511   4.599   1.175   8.218 -0.1289 -0.0881 -0.1046
  157SAPE  H16R17512   4.600   1.256   8.142 -1.0800  0.8720  0.8929
  157SAPE  H16S17513   4.675   1.204   8.294  1.6337 -1.5678 -1.2694
  157SAPE  C21717514   4.455   1.165   8.280 -0.3929  0.5776 -0.7394
  157SAPE  H17R17515   4.372   1.161   8.206 -1.7762  2.2635  0.6668
  157SAPE  H17S17516   4.437   1.263   8.329  0.3856  0.5189 -0.3360
  157SAPE  C21817517   4.434   1.061   8.390  0.6466  0.3693  0.0827
  157SAPE  H18R17518   4.454   0.962   8.344  0.5161  1.0279 -1.4167
  157SAPE  H18S17519   4.326   1.066   8.415  0.0421  0.2302 -2.2993
  157SAPE  C21917520   4.513   1.071   8.522  0.2221  0.2308 -0.3904
  157SAPE  H19R17521   4.493   1.161   8.584  1.3947 -0.0111  0.3553
  157SAPE  H19S17522   4.618   1.087   8.489  0.6614  0.9256  1.3246
  157SAPE  C22017523   4.503   0.947   8.615  0.1797  0.5603  0.1138
  157SAPE  H20R17524   4.527   0.856   8.556 -0.3178 -0.8445  2.0235
  157SAPE  H20S17525   4.395   0.936   8.638 -0.3856  2.5854 -1.4078
  157SAPE  H20T17526   4.565   0.961   8.706 -1.7205  2.0712  1.2083
  157SAPE   C3317527   4.279   1.312   7.101  0.1449 -0.4005  0.0069
  157SAPE   H3X17528   4.324   1.219   7.141  0.7946 -0.0017  0.2158
  157SAPE   H3Y17529   4.191   1.289   7.038 -1.3916  0.8568  1.6105
  157SAPE   C3417530   4.229   1.381   7.230  0.0837  0.2241  0.2058
  157SAPE   H4X17531   4.128   1.425   7.213  0.8181  2.8161  2.1133
  157SAPE   H4Y17532   4.288   1.463   7.277  0.1719  0.1911  0.1511
  157SAPE   C3517533   4.199   1.275   7.338  0.4917 -0.1063  0.7506
  157SAPE   H5X17534   4.294   1.219   7.349  0.9498  0.4040 -0.5033
  157SAPE   H5Y17535   4.115   1.213   7.299  2.2027 -1.9757 -0.0404
  157SAPE   C3617536   4.159   1.335   7.471 -0.4661  0.1675  0.1306
  157SAPE   H6X17537   4.065   1.392   7.455 -0.3491  0.3799  0.1996
  157SAPE   H6Y17538   4.240   1.405   7.499 -0.6234  0.0321  0.9582
  157SAPE   C3717539   4.149   1.227   7.576  0.4988 -0.3015 -0.0677
  157SAPE   H7X17540   4.231   1.153   7.577  0.1513 -0.6858 -0.1011
  157SAPE   H7Y17541   4.061   1.167   7.544  1.0664 -1.8039  1.1689
  157SAPE   C3817542   4.139   1.277   7.724 -0.1052  0.3295 -0.5213
  157SAPE   H8X17543   4.045   1.336   7.731  1.9861  3.8825 -1.1224
  157SAPE   H8Y17544   4.230   1.336   7.747  0.5315 -1.2003  1.0404
  157SAPE   C3917545   4.118   1.167   7.831 -0.0170  0.3007 -0.1476
  157SAPE   H9X17546   4.206   1.099   7.837 -0.5011 -0.3747 -0.6934
  157SAPE   H9Y17547   4.023   1.112   7.816  0.3246 -0.7344  1.3543
  157SAPE  C31017548   4.097   1.219   7.973 -0.2116  0.4695  0.1494
  157SAPE  H10X17549   4.020   1.299   7.976  1.0486  1.6630  1.8844
  157SAPE  H10Y17550   4.193   1.258   8.014  0.0890  0.2414 -0.3361
  157SAPE  C31117551   4.062   1.101   8.068  0.4919 -0.6636 -0.2452
  157SAPE  H11X17552   4.155   1.041   8.058 -0.2062 -1.4082 -2.5506
  157SAPE  H11Y17553   3.980   1.039   8.027  0.8533 -1.3436  0.0527
  157SAPE  C31217554   4.024   1.151   8.206 -0.0560  0.3995  0.4663
  157SAPE  H12X17555   3.925   1.202   8.202 -0.0500  0.3511 -0.3265
  157SAPE  H12Y17556   4.097   1.230   8.234  1.8445 -0.7618 -1.0596
  157SAPE  C31317557   4.035   1.040   8.311 -0.0596  0.0018 -0.7415
  157SAPE  H13X17558   4.014   1.074   8.414 -1.0793  1.6204 -1.4704
  157SAPE  H13Y17559   4.140   1.003   8.306 -0.2335 -0.5179 -0.6282
  157SAPE  C31417560   3.948   0.917   8.280 -0.1391 -0.0925  0.3524
  157SAPE  H14X17561   3.991   0.887   8.182 -3.1315  1.3193 -1.4799
  157SAPE  H14Y17562   3.843   0.943   8.256 -0.7180 -1.6464  1.1346
  157SAPE  C31517563   3.966   0.810   8.391 -0.3090  0.1764  0.2364
  157SAPE  H15X17564   3.901   0.841   8.476  1.3127  1.2083  1.1205
  157SAPE  H15Y17565   4.074   0.815   8.416 -0.0898 -1.2518 -0.4138
  157SAPE  C31617566   3.930   0.669   8.345  0.6215  0.4047  0.5395
  157SAPE  H16X17567   3.951   0.592   8.422  0.0507 -0.8697 -0.5520
  157SAPE  H16Y17568   4.002   0.649   8.262 -1.6484 -1.7101 -0.9814
  157SAPE  C31717569   3.783   0.661   8.296  0.0405 -0.7282 -0.1628
  157SAPE  H17X17570   3.789   0.692   8.190  0.8367  1.0697  0.3884
  157SAPE  H17Y17571   3.725   0.734   8.355  0.7962  0.1058 -0.4386
  157SAPE  C31817572   3.714   0.529   8.321 -0.4062  0.5982  0.1613
  157SAPE  H18X17573   3.712   0.514   8.431  1.7258 -2.5815 -0.1696
  157SAPE  H18Y17574   3.770   0.458   8.257  0.0557 -1.1497  2.4303
  157SAPE  H18Z17575   3.612   0.533   8.278  0.6749 -0.3368 -2.6109
  158SAPE     N17576   6.111   5.745   6.412  0.9254  0.1640 -0.5728
  158SAPE   HN117577   6.200   5.799   6.412  1.5436 -0.8329 -2.0070
  158SAPE   HN217578   6.036   5.801   6.458  1.0937 -0.3485  0.3529
  158SAPE   HN317579   6.121   5.649   6.450 -0.9768  0.4164  0.6132
  158SAPE   C1217580   6.074   5.741   6.266 -0.2398  0.1685  0.6377
  158SAPE  H12A17581   5.964   5.728   6.258 -0.0923 -1.5485  1.0543
  158SAPE  H12B17582   6.128   5.652   6.226  0.4363  0.3854  1.0454
  158SAPE   C1117583   6.132   5.868   6.204  0.1660  0.5155  0.6979
  158SAPE  H11A17584   6.101   5.964   6.251  1.3854  0.6261  1.2958
  158SAPE  H11B17585   6.108   5.861   6.096 -1.2865  0.8570  0.9953
  158SAPE     P17586   6.373   5.946   6.287 -0.1156 -0.3267 -0.1960
  158SAPE   O1317587   6.509   5.890   6.275 -0.1391  0.6936 -0.6749
  158SAPE   O1417588   6.355   6.089   6.245 -0.3356  0.3007 -0.4319
  158SAPE   O1217589   6.274   5.860   6.195  0.5923  0.2141  0.2746
  158SAPE   O1117590   6.310   5.917   6.422 -0.3106  0.6543 -0.4098
  158SAPE    C117591   6.377   5.921   6.545  0.3110 -0.1346 -0.3209
  158SAPE    HA17592   6.446   6.008   6.548  0.2352 -0.0740 -0.3150
  158SAPE    HB17593   6.303   5.946   6.624  1.9927  1.4970  0.7825
  158SAPE    C217594   6.452   5.790   6.590  0.3101  0.0827 -0.6989
  158SAPE    HS17595   6.541   5.784   6.524 -0.5314  0.7916 -1.9382
  158SAPE   O2117596   6.366   5.679   6.570  0.4481 -0.0095  0.2714
  158SAPE   C2117597   6.433   5.561   6.578  0.1533  0.1043  0.3160
  158SAPE   O2217598   6.552   5.552   6.606 -0.1153 -0.1691 -0.4812
  158SAPE   C2217599   6.332   5.447   6.553  0.7875 -0.3574 -0.1499
  158SAPE   H2R17600   6.270   5.437   6.644 -0.4747  2.3527 -0.6685
  158SAPE   H2S17601   6.268   5.470   6.465  1.5204 -0.0832 -0.6240
  158SAPE    C317602   6.499   5.796   6.743 -0.5649 -0.2675 -0.0516
  158SAPE    HX17603   6.583   5.867   6.729 -2.5733  1.8627 -1.7179
  158SAPE    HY17604   6.538   5.702   6.788 -2.7038 -0.9567  0.4254
  158SAPE   O3117605   6.391   5.847   6.829 -0.3768 -0.6002 -0.0489
  158SAPE   C3117606   6.320   5.757   6.884 -0.1023 -0.3134 -0.2722
  158SAPE   O3217607   6.330   5.638   6.868 -0.1031  0.1947  0.5264
  158SAPE   C3217608   6.236   5.816   6.995  0.5399  0.6472  0.1544
  158SAPE   H2X17609   6.135   5.798   6.952  0.3272 -0.8848  1.2199
  158SAPE   H2Y17610   6.258   5.924   7.004  1.6544  0.5747 -1.5227
  158SAPE   C2317611   6.419   5.324   6.527 -0.1671 -0.0518  0.6070
  158SAPE   H3R17612   6.515   5.353   6.481 -0.3865  1.3373  1.0107
  158SAPE   H3S17613   6.373   5.262   6.446  0.6187  1.6801 -1.1876
  158SAPE   C2417614   6.442   5.236   6.650  1.0031  0.0391 -0.7090
  158SAPE   H4R17615   6.500   5.302   6.718 -1.4182  0.5833  0.8809
  158SAPE   H4S17616   6.513   5.154   6.623 -1.9957 -2.8123 -0.1892
  158SAPE   C2517617   6.326   5.164   6.706 -0.1271  0.1162 -0.3979
  158SAPE   H5R17618   6.282   5.093   6.635  0.1675 -0.6604  0.1808
  158SAPE   C2617619   6.271   5.178   6.826 -0.2439 -0.2559  0.7960
  158SAPE   H6R17620   6.184   5.117   6.853 -0.7719  1.0552  2.1243
  158SAPE   C2717621   6.324   5.277   6.928 -0.2044 -0.5785 -0.3841
  158SAPE   H7R17622   6.376   5.358   6.872  0.6111 -0.5337  0.4399
  158SAPE   H7S17623   6.390   5.225   7.000 -0.8461  0.6275  1.1094
  158SAPE   C2817624   6.210   5.341   6.997  0.7279  0.1932  0.2623
  158SAPE   H8R17625   6.151   5.398   6.924  0.8001 -0.7672 -0.5562
  158SAPE   C2917626   6.175   5.345   7.130 -0.1903  0.4482  0.3640
  158SAPE   H9R17627   6.081   5.393   7.157 -1.0927 -1.3693  0.5466
  158SAPE  C21017628   6.254   5.282   7.244  0.5630 -0.1187  0.2045
  158SAPE  H10R17629   6.232   5.329   7.342  0.9955  1.1628 -0.2975
  158SAPE  H10S17630   6.364   5.283   7.234  0.5168  3.3565 -0.7889
  158SAPE  C21117631   6.222   5.132   7.253 -0.5427 -0.4710 -0.3657
  158SAPE  H11R17632   6.270   5.075   7.172 -0.4785  0.8746 -1.3023
  158SAPE  C21217633   6.156   5.064   7.343  0.1766  0.0645  0.5102
  158SAPE  H12R17634   6.124   4.960   7.329 -1.8452  0.9116 -1.3893
  158SAPE  C21317635   6.098   5.115   7.472 -0.3970 -0.1473  0.9308
  158SAPE  H13R17636   6.151   5.208   7.505 -2.1771  1.5017 -0.7423
  158SAPE  H13S17637   6.124   5.047   7.556 -0.1907  0.6917  1.5507
  158SAPE  C21417638   5.947   5.132   7.454  0.4010  0.2424  0.5803
  158SAPE  H14R17639   5.920   5.219   7.393 -1.6151 -0.7009  0.0738
  158SAPE  C21517640   5.848   5.049   7.504  0.3494  0.1281  0.4769
  158SAPE  H15R17641   5.750   5.091   7.478  0.3880  0.0200  0.1623
  158SAPE  C21617642   5.866   4.928   7.597  0.3902  0.2599  0.0297
  158SAPE  H16R17643   5.971   4.905   7.625  1.1232  1.8146 -1.3362
  158SAPE  H16S17644   5.847   4.830   7.547 -0.2387  1.2393 -1.6963
  158SAPE  C21717645   5.772   4.937   7.723 -0.2131 -0.0833  0.4292
  158SAPE  H17R17646   5.781   4.845   7.785 -0.1245 -1.5600 -1.7068
  158SAPE  H17S17647   5.667   4.949   7.690  0.3665 -1.5313 -2.0705
  158SAPE  C21817648   5.813   5.050   7.815 -0.1351 -0.1931 -0.9409
  158SAPE  H18R17649   5.822   5.150   7.766 -1.2326 -1.1655 -3.1992
  158SAPE  H18S17650   5.912   5.019   7.855  0.9160  2.0268 -1.6987
  158SAPE  C21917651   5.717   5.070   7.932  0.4012  0.1625  0.1223
  158SAPE  H19R17652   5.614   5.048   7.897  1.1815  0.5631 -2.5594
  158SAPE  H19S17653   5.733   5.175   7.963  0.2198  0.4932 -0.8841
  158SAPE  C22017654   5.758   4.992   8.059  0.0041 -0.1752  0.2098
  158SAPE  H20R17655   5.861   5.025   8.084  0.2987 -1.0885  0.2309
  158SAPE  H20S17656   5.754   4.884   8.034 -1.4258  0.0500 -0.6161
  158SAPE  H20T17657   5.683   5.007   8.140 -0.9809  0.5562 -0.8184
  158SAPE   C3317658   6.248   5.746   7.130 -0.2396  0.6764 -0.4002
  158SAPE   H3X17659   6.346   5.760   7.183 -0.1843 -2.6562  0.5054
  158SAPE   H3Y17660   6.243   5.639   7.103 -0.3245  0.7473 -0.6588
  158SAPE   C3417661   6.145   5.780   7.232 -0.2231  1.2406 -0.0439
  158SAPE   H4X17662   6.042   5.796   7.193 -0.4169  0.2055  0.0139
  158SAPE   H4Y17663   6.177   5.873   7.282 -0.4442  0.4214  1.6645
  158SAPE   C3517664   6.118   5.669   7.338  0.3115  0.8968  0.3313
  158SAPE   H5X17665   6.218   5.623   7.358 -0.0261 -1.0545 -2.1589
  158SAPE   H5Y17666   6.055   5.589   7.293  0.0923 -1.1131  3.9514
  158SAPE   C3617667   6.047   5.723   7.456  0.4128 -0.0332 -0.2168
  158SAPE   H6X17668   6.003   5.645   7.521 -0.7981  0.8793  0.0807
  158SAPE   H6Y17669   5.962   5.780   7.414  0.2653 -1.6313 -2.1778
  158SAPE   C3717670   6.131   5.809   7.549 -0.1126 -0.4733 -0.4767
  158SAPE   H7X17671   6.236   5.786   7.518  0.5535  1.5051  0.2126
  158SAPE   H7Y17672   6.118   5.919   7.542 -2.7513 -0.4699  3.2054
  158SAPE   C3817673   6.127   5.765   7.698  0.3429 -0.1236  0.0968
  158SAPE   H8X17674   6.161   5.659   7.701  0.6564  0.0173  2.4632
  158SAPE   H8Y17675   6.018   5.756   7.720  0.2541  1.0145  0.1346
  158SAPE   C3917676   6.203   5.852   7.795  0.3220 -0.0440 -0.8480
  158SAPE   H9X17677   6.184   5.959   7.771 -0.6387  0.3619  1.5007
  158SAPE   H9Y17678   6.313   5.842   7.782  0.1973 -1.9098 -0.5675
  158SAPE  C31017679   6.173   5.836   7.941  0.5548 -0.3715  0.1712
  158SAPE  H10X17680   6.236   5.754   7.981  1.5856  0.1583 -0.3397
  158SAPE  H10Y17681   6.068   5.800   7.944  1.2126 -2.2250  1.3539
  158SAPE  C31117682   6.168   5.960   8.027  0.0347  0.4183 -0.6092
  158SAPE  H11X17683   6.084   6.019   7.985 -3.1987 -3.3282  0.3258
  158SAPE  H11Y17684   6.261   6.019   8.012  0.1915  0.4129  0.3332
  158SAPE  C31217685   6.150   5.926   8.172  0.5593 -0.4766 -0.1108
  158SAPE  H12X17686   6.235   5.866   8.211  0.2147 -1.5349 -0.9373
  158SAPE  H12Y17687   6.061   5.864   8.194  1.1746 -1.1602  0.4672
  158SAPE  C31317688   6.158   6.056   8.268  0.1356 -0.4655 -0.4385
  158SAPE  H13X17689   6.103   6.142   8.224  0.0017 -0.4238 -0.1903
  158SAPE  H13Y17690   6.265   6.083   8.278 -0.0438  0.2256 -0.3552
  158SAPE  C31417691   6.089   6.024   8.401  0.3894 -0.2477  0.4166
  158SAPE  H14X17692   6.116   5.927   8.447  2.9571  1.9420  3.7854
  158SAPE  H14Y17693   5.980   6.017   8.384 -0.0514 -1.5069  3.4478
  158SAPE  C31517694   6.124   6.135   8.501 -0.2229 -0.4762  0.0522
  158SAPE  H15X17695   6.083   6.233   8.469 -2.2919 -1.3609 -0.0445
  158SAPE  H15Y17696   6.235   6.133   8.496 -0.1610 -0.5084  1.3338
  158SAPE  C31617697   6.071   6.120   8.646  0.5876  0.0879  0.0106
  158SAPE  H16X17698   6.095   6.221   8.687 -1.0978  0.2545  0.6295
  158SAPE  H16Y17699   6.139   6.051   8.700  2.8321  2.6583  0.5653
  158SAPE  C31717700   5.919   6.082   8.666  0.3824  0.5359  0.6311
  158SAPE  H17X17701   5.913   5.978   8.628  1.4841 -0.0636  2.0366
  158SAPE  H17Y17702   5.851   6.141   8.600  1.8950 -0.1642 -1.6290
  158SAPE  C31817703   5.865   6.075   8.811  0.3772  0.2794 -0.7996
  158SAPE  H18X17704   5.768   6.023   8.827  0.8328 -1.0587 -2.3204
  158SAPE  H18Y17705   5.841   6.178   8.845 -0.6113 -0.4678  0.8170
  158SAPE  H18Z17706   5.938   6.026   8.879 -1.9420 -0.5322  1.1629
  159SAPE     N17707   5.952   1.569   6.123 -0.5270  0.5617  0.3147
  159SAPE   HN117708   5.945   1.582   6.226  0.1884 -1.8481  0.7036
  159SAPE   HN217709   5.912   1.476   6.101 -1.8202  1.2826 -0.4368
  159SAPE   HN317710   6.053   1.563   6.100 -0.8241  0.1430 -0.9161
  159SAPE   C1217711   5.891   1.664   6.039  0.1760 -0.2253  0.0898
  159SAPE  H12A17712   5.780   1.665   6.045  0.1528 -0.4527 -0.3088
  159SAPE  H12B17713   5.924   1.643   5.935  0.3649  1.4114 -0.1974
  159SAPE   C1117714   5.940   1.818   6.071  0.4572  0.2462  0.9004
  159SAPE  H11A17715   5.887   1.890   6.005  2.2779 -0.9919 -1.9810
  159SAPE  H11B17716   6.045   1.827   6.036  0.0589 -0.3067 -0.4783
  159SAPE     P17717   5.777   1.881   6.257 -0.0830  0.3380  0.1232
  159SAPE   O1317718   5.712   1.971   6.160 -0.5722  0.0506 -0.3535
  159SAPE   O1417719   5.709   1.756   6.298 -0.5920  0.2842  0.4953
  159SAPE   O1217720   5.926   1.855   6.206  0.0273 -0.1168  0.0668
  159SAPE   O1117721   5.806   1.962   6.390 -0.7043  0.0765 -0.1274
  159SAPE    C117722   5.930   1.953   6.462  0.4534 -0.1466  0.7352
  159SAPE    HA17723   6.014   1.920   6.398 -0.9686 -0.0636 -1.2556
  159SAPE    HB17724   5.950   2.054   6.504 -3.1881  1.4686 -1.1524
  159SAPE    C217725   5.922   1.857   6.582 -0.0224  0.3601 -0.3196
  159SAPE    HS17726   5.933   1.751   6.551  1.6997  0.1399  0.9521
  159SAPE   O2117727   5.794   1.848   6.648  0.6521 -0.2401 -0.2593
  159SAPE   C2117728   5.754   1.957   6.707 -0.3465 -0.0711  0.6549
  159SAPE   O2217729   5.798   2.069   6.687  0.0850 -0.4656 -0.8275
  159SAPE   C2217730   5.638   1.935   6.790  0.0738  0.4830  0.1162
  159SAPE   H2R17731   5.549   1.921   6.725 -0.4243 -0.2053  0.9314
  159SAPE   H2S17732   5.657   1.844   6.851 -0.4087 -0.8005 -1.6161
  159SAPE    C317733   6.032   1.879   6.690 -0.0687 -0.0712  0.1368
  159SAPE    HX17734   6.037   1.989   6.705  1.4516 -0.0588 -0.4382
  159SAPE    HY17735   6.126   1.843   6.644  0.9109  0.6335  1.5626
  159SAPE   O3117736   5.998   1.821   6.818  0.0762 -0.1596 -0.5168
  159SAPE   C3117737   6.108   1.835   6.899  0.5941  0.1118 -0.0858
  159SAPE   O3217738   6.207   1.898   6.866  0.1085  0.6753  0.0371
  159SAPE   C3217739   6.088   1.759   7.032 -0.1921 -0.4537  0.2671
  159SAPE   H2X17740   6.163   1.678   7.039 -1.9173 -2.0745  0.5323
  159SAPE   H2Y17741   5.983   1.722   7.034 -1.1400  2.0131 -0.6154
  159SAPE   C2317742   5.617   2.050   6.891  0.7529 -0.1858  0.2243
  159SAPE   H3R17743   5.514   2.034   6.929 -0.0690  2.3102 -0.8177
  159SAPE   H3S17744   5.611   2.152   6.848 -2.2263 -0.8527 -1.0766
  159SAPE   C2417745   5.719   2.043   7.003  0.1706 -0.7415 -0.4131
  159SAPE   H4R17746   5.704   2.141   7.052  2.3849 -0.5763 -0.0321
  159SAPE   H4S17747   5.815   2.044   6.948  0.1376  0.5253 -0.4612
  159SAPE   C2517748   5.703   1.924   7.096  0.3934 -0.4320 -0.3391
  159SAPE   H5R17749   5.737   1.825   7.063 -0.0060 -0.0242 -2.0228
  159SAPE   C2617750   5.661   1.936   7.221 -0.8552 -0.1598 -0.6489
  159SAPE   H6R17751   5.665   1.843   7.280  1.0630 -0.5396 -1.3771
  159SAPE   C2717752   5.607   2.042   7.317  0.2734 -0.3793  0.1847
  159SAPE   H7R17753   5.570   2.132   7.263 -0.5043  0.0679  1.4486
  159SAPE   H7S17754   5.693   2.070   7.382  2.1456 -0.1192 -2.3153
  159SAPE   C2817755   5.483   1.998   7.388 -0.4744 -0.0762 -0.0252
  159SAPE   H8R17756   5.401   1.955   7.327  1.2244  0.5507 -2.8590
  159SAPE   C2917757   5.465   1.992   7.519  0.4015  0.6665  0.1634
  159SAPE   H9R17758   5.380   1.934   7.560  0.7181 -0.1329 -0.3042
  159SAPE  C21017759   5.572   2.028   7.632  0.4046 -0.2306  0.2827
  159SAPE  H10R17760   5.571   2.139   7.639 -1.2194 -0.0404 -2.5037
  159SAPE  H10S17761   5.674   2.006   7.595  0.8735  1.1490  0.6988
  159SAPE  C21117762   5.551   1.959   7.768 -0.7396 -0.0891 -0.2810
  159SAPE  H11R17763   5.530   1.852   7.759 -0.1356 -0.1647 -0.8027
  159SAPE  C21217764   5.555   2.024   7.887  0.5910  0.0283  0.7708
  159SAPE  H12R17765   5.542   1.966   7.979 -1.8302  0.2380  0.6021
  159SAPE  C21317766   5.580   2.172   7.897  0.0112  0.0211 -0.7936
  159SAPE  H13R17767   5.490   2.207   7.843 -1.0096 -2.1508 -0.5467
  159SAPE  H13S17768   5.670   2.202   7.839 -1.2443  0.6824 -2.4395
  159SAPE  C21417769   5.581   2.236   8.033 -0.5213  0.5905 -0.1288
  159SAPE  H14R17770   5.674   2.291   8.055 -0.1308 -0.1883  0.1893
  159SAPE  C21517771   5.471   2.242   8.111  0.1788 -0.2672 -0.4481
  159SAPE  H15R17772   5.476   2.302   8.204 -2.6763 -1.8091  0.7423
  159SAPE  C21617773   5.335   2.196   8.078  0.7141 -0.5591 -0.7690
  159SAPE  H16R17774   5.334   2.155   7.975  1.2515  1.4775 -1.6077
  159SAPE  H16S17775   5.270   2.286   8.085  1.5026  0.1278 -2.1347
  159SAPE  C21717776   5.273   2.076   8.155 -0.0528  0.2080 -0.2382
  159SAPE  H17R17777   5.338   1.987   8.138 -0.3038  0.2960 -1.8012
  159SAPE  H17S17778   5.174   2.064   8.105 -0.5862  1.1977  0.5730
  159SAPE  C21817779   5.252   2.097   8.304 -0.1095  0.1178  0.4169
  159SAPE  H18R17780   5.188   2.186   8.318 -0.6558 -0.3701  1.0574
  159SAPE  H18S17781   5.348   2.134   8.347 -1.1138 -0.6531  3.4578
  159SAPE  C21917782   5.206   1.970   8.380  0.3589  0.2774 -0.2716
  159SAPE  H19R17783   5.218   1.986   8.489 -0.0753 -0.9561 -0.0423
  159SAPE  H19S17784   5.265   1.882   8.347  0.8745  0.4874  0.0730
  159SAPE  C22017785   5.061   1.928   8.352 -0.4888  0.0503 -0.3698
  159SAPE  H20R17786   5.043   1.912   8.244 -2.3931  1.0606 -0.2223
  159SAPE  H20S17787   4.985   1.999   8.391  0.5375  0.3789  1.0929
  159SAPE  H20T17788   5.042   1.831   8.402  0.4610  0.0814  0.0673
  159SAPE   C3317789   6.103   1.839   7.158  0.2987 -0.6834  0.2592
  159SAPE   H3X17790   6.036   1.926   7.145 -0.4065 -1.4203 -1.1426
  159SAPE   H3Y17791   6.206   1.879   7.170 -0.7377  1.9170  0.6811
  159SAPE   C3417792   6.055   1.770   7.285 -0.1581  0.3105  0.1977
  159SAPE   H4X17793   6.110   1.676   7.307  0.6549  0.9155  0.8039
  159SAPE   H4Y17794   5.948   1.754   7.262 -0.4166 -0.0745  1.5883
  159SAPE   C3517795   6.062   1.873   7.401 -0.2035  0.1178 -0.0809
  159SAPE   H5X17796   5.993   1.954   7.370  0.9400  0.6315 -1.3344
  159SAPE   H5Y17797   6.168   1.906   7.399 -0.5633  1.3666  0.6986
  159SAPE   C3617798   6.024   1.814   7.537 -0.5253  0.1686 -0.2111
  159SAPE   H6X17799   6.046   1.705   7.540 -0.6753  0.1668  1.0623
  159SAPE   H6Y17800   5.915   1.826   7.556 -0.8989 -0.8146 -1.6789
  159SAPE   C3717801   6.086   1.870   7.667 -0.5484 -0.5884  0.4708
  159SAPE   H7X17802   6.052   1.975   7.682  1.3876  0.3361 -1.5044
  159SAPE   H7Y17803   6.197   1.871   7.666 -0.5624  0.4398  0.0685
  159SAPE   C3817804   6.049   1.779   7.783  0.0428  0.1945 -0.0971
  159SAPE   H8X17805   6.062   1.670   7.768  1.3614  0.4013 -0.4297
  159SAPE   H8Y17806   5.946   1.807   7.815 -0.0049  0.1268 -0.1930
  159SAPE   C3917807   6.129   1.816   7.912 -0.0723  0.5571 -0.1263
  159SAPE   H9X17808   6.115   1.923   7.940 -0.0972  0.4242  0.3721
  159SAPE   H9Y17809   6.238   1.801   7.896  0.1113  1.0886  0.5762
  159SAPE  C31017810   6.092   1.735   8.042  0.0591 -0.2093 -0.4826
  159SAPE  H10X17811   5.989   1.764   8.069 -0.4764 -2.8477  0.4788
  159SAPE  H10Y17812   6.170   1.766   8.115  0.3279 -1.4715 -0.2211
  159SAPE  C31117813   6.098   1.583   8.027 -0.4340  0.4155 -0.5073
  159SAPE  H11X17814   6.198   1.543   8.002 -0.3866 -0.7853  1.5223
  159SAPE  H11Y17815   6.020   1.557   7.952 -2.5638  0.3999  1.6314
  159SAPE  C31217816   6.069   1.530   8.167  0.1152 -0.1342 -0.3502
  159SAPE  H12X17817   5.977   1.567   8.217  0.8897 -0.5408  1.4158
  159SAPE  H12Y17818   6.150   1.573   8.231 -0.9818 -0.0008  0.9709
  159SAPE  C31317819   6.067   1.377   8.173 -0.5499  0.1015 -0.0986
  159SAPE  H13X17820   6.166   1.338   8.139 -0.6151 -0.4202  0.3107
  159SAPE  H13Y17821   5.988   1.354   8.098  0.0166  2.3243 -1.4043
  159SAPE  C31417822   6.055   1.322   8.317  0.1937 -0.0474  0.1207
  159SAPE  H14X17823   6.007   1.223   8.304  0.5183 -0.3362  1.0935
  159SAPE  H14Y17824   5.996   1.393   8.378  0.8824  1.2135 -0.6528
  159SAPE  C31517825   6.196   1.296   8.378  0.9039  0.5787 -0.7969
  159SAPE  H15X17826   6.247   1.393   8.396 -0.8103  1.5648 -1.0927
  159SAPE  H15Y17827   6.245   1.236   8.298  1.6889  2.0632 -1.4584
  159SAPE  C31617828   6.170   1.228   8.510 -0.0216  0.5415 -0.3870
  159SAPE  H16X17829   6.084   1.158   8.501  1.3399 -1.0397 -1.2945
  159SAPE  H16Y17830   6.130   1.308   8.577  0.3398  1.1578 -0.9066
  159SAPE  C31717831   6.281   1.142   8.573 -0.5176  0.4856 -0.2902
  159SAPE  H17X17832   6.373   1.203   8.590 -0.4277 -0.2947  2.2292
  159SAPE  H17Y17833   6.305   1.060   8.501  3.4981  1.1836  0.1227
  159SAPE  C31817834   6.238   1.095   8.712  0.3628 -0.1718  0.3238
  159SAPE  H18X17835   6.250   1.180   8.782 -2.3178 -1.0123  1.8716
  159SAPE  H18Y17836   6.304   1.019   8.759 -0.2635 -0.7840  0.2206
  159SAPE  H18Z17837   6.134   1.057   8.710 -0.1621  1.2631 -0.0421
  160SAPE     N17838   0.034   0.174   6.400 -0.7048 -0.1396  0.9451
  160SAPE   HN117839  -0.051   0.132   6.357  0.1798 -1.1635  0.1632
  160SAPE   HN217840   0.056   0.122   6.488 -0.0252 -0.6608  0.4802
  160SAPE   HN317841   0.014   0.272   6.427 -4.2474 -1.4169  3.3991
  160SAPE   C1217842   0.145   0.167   6.293  0.1010  0.3804 -1.2427
  160SAPE  H12A17843   0.228   0.226   6.336 -1.5006  2.3684 -0.8164
  160SAPE  H12B17844   0.110   0.212   6.198 -2.0180  2.5779  0.4924
  160SAPE   C1117845   0.198   0.022   6.280 -0.0195  0.2587 -0.1877
  160SAPE  H11A17846   0.290   0.024   6.217  1.3408  1.8955  1.7801
  160SAPE  H11B17847   0.117  -0.033   6.227 -1.9281  3.5825 -0.8802
  160SAPE     P17848   0.353  -0.042   6.482 -0.2378  0.3440 -0.3947
  160SAPE   O1317849   0.431  -0.154   6.425  0.7167  0.8462 -0.0757
  160SAPE   O1417850   0.423   0.088   6.476 -0.1680  0.2729  0.1856
  160SAPE   O1217851   0.217  -0.043   6.409 -0.2658  0.1701  0.1246
  160SAPE   O1117852   0.300  -0.068   6.627 -0.4191 -0.2509 -0.1455
  160SAPE    C117853   0.232  -0.186   6.667  0.5682  0.7990  0.8222
  160SAPE    HA17854   0.244  -0.274   6.599 -1.2981  0.6391  0.6719
  160SAPE    HB17855   0.275  -0.228   6.760 -0.2986  0.2849  0.9927
  160SAPE    C217856   0.078  -0.162   6.686  0.8465 -0.3032 -0.2925
  160SAPE    HS17857   0.045  -0.114   6.591  1.2094  2.0583  0.7308
  160SAPE   O2117858   0.056  -0.082   6.806 -0.1898  0.4760 -0.3328
  160SAPE   C2117859   0.041   0.044   6.778  0.3758 -0.3179 -0.5993
  160SAPE   O2217860   0.045   0.099   6.669  0.3402  0.0204  0.6106
  160SAPE   C2217861   0.031   0.122   6.906 -0.1882  0.2529  0.7406
  160SAPE   H2R17862   0.132   0.112   6.952  0.1233 -0.9348 -0.1889
  160SAPE   H2S17863   0.015   0.232   6.893 -1.4709 -0.0454 -0.3683
  160SAPE    C317864  -0.004  -0.293   6.685  0.3052  0.1521  0.5479
  160SAPE    HX17865   0.042  -0.351   6.768  0.7074  0.2407  0.3882
  160SAPE    HY17866   0.028  -0.347   6.593  0.4912  0.0154  0.6911
  160SAPE   O3117867  -0.145  -0.270   6.707  0.6831 -0.4775 -0.4681
  160SAPE   C3117868  -0.214  -0.261   6.593  0.3211 -0.3444 -1.0136
  160SAPE   O3217869  -0.173  -0.293   6.485  0.5784 -0.0583 -0.4138
  160SAPE   C3217870  -0.352  -0.217   6.618  0.5666 -0.4069  0.2165
  160SAPE   H2X17871  -0.412  -0.286   6.682 -2.0627  0.6266 -1.0667
  160SAPE   H2Y17872  -0.405  -0.214   6.521 -1.1760 -2.5270  1.0692
  160SAPE   C2317873  -0.069   0.062   6.997  0.5780  0.3760  0.1944
  160SAPE   H3R17874  -0.043  -0.042   7.025  0.4620  0.0371 -0.9153
  160SAPE   H3S17875  -0.165   0.068   6.941  0.4083  2.7642  0.6969
  160SAPE   C2417876  -0.095   0.148   7.125 -0.7043 -1.2227  0.0843
  160SAPE   H4R17877  -0.121   0.252   7.095  2.2047 -0.3240  0.5212
  160SAPE   H4S17878   0.004   0.159   7.174  0.2397  0.8362 -2.1905
  160SAPE   C2517879  -0.181   0.089   7.230  0.6593 -0.1755  0.5369
  160SAPE   H5R17880  -0.177  -0.020   7.244  0.5096 -0.3338 -0.6469
  160SAPE   C2617881  -0.271   0.157   7.307  0.1980 -0.0845  0.3666
  160SAPE   H6R17882  -0.330   0.101   7.381 -0.9638  1.4364  0.6118
  160SAPE   C2717883  -0.309   0.308   7.284 -0.9422 -0.1397  0.5068
  160SAPE   H7R17884  -0.302   0.351   7.182  0.2078  0.6681  0.9133
  160SAPE   H7S17885  -0.247   0.370   7.352  1.4003 -0.1318 -1.5738
  160SAPE   C2817886  -0.445   0.304   7.335  0.5722 -0.5136  0.0493
  160SAPE   H8R17887  -0.518   0.258   7.267 -0.4174  0.4270  0.4664
  160SAPE   C2917888  -0.495   0.354   7.452  0.1953  0.2023  0.8333
  160SAPE   H9R17889  -0.599   0.337   7.483 -0.4623 -0.9039 -1.7996
  160SAPE  C21017890  -0.420   0.423   7.559  0.0523  0.1229  0.4336
  160SAPE  H10R17891  -0.317   0.444   7.522  0.1879 -2.0150 -0.4743
  160SAPE  H10S17892  -0.417   0.349   7.642 -0.6881 -0.8521 -0.3981
  160SAPE  C21117893  -0.496   0.555   7.602  0.1470  0.1385 -0.2939
  160SAPE  H11R17894  -0.575   0.594   7.536 -1.9570 -1.2080  1.3644
  160SAPE  C21217895  -0.484   0.606   7.724  0.1373 -0.4555  0.1095
  160SAPE  H12R17896  -0.539   0.700   7.741 -0.9376 -1.2013  0.8814
  160SAPE  C21317897  -0.396   0.567   7.841  1.0230 -0.1124  0.0871
  160SAPE  H13R17898  -0.339   0.659   7.867 -1.6602  1.7508 -0.4074
  160SAPE  H13S17899  -0.326   0.489   7.804 -1.1996 -2.4173  0.5924
  160SAPE  C21417900  -0.475   0.522   7.967 -0.1980  0.2794  0.2959
  160SAPE  H14R17901  -0.583   0.544   7.967 -0.1807  0.4405 -0.9956
  160SAPE  C21517902  -0.413   0.461   8.074  0.1792 -0.2227 -1.0477
  160SAPE  H15R17903  -0.463   0.417   8.162  2.1881  0.4242  0.4696
  160SAPE  C21617904  -0.261   0.436   8.071  0.5918  0.6618 -0.5266
  160SAPE  H16R17905  -0.210   0.467   8.165  1.5602 -1.2282 -0.4191
  160SAPE  H16S17906  -0.208   0.502   7.998  1.6102  0.7252  0.2702
  160SAPE  C21717907  -0.234   0.292   8.039 -0.3272  0.6613  1.0909
  160SAPE  H17R17908  -0.297   0.258   7.955  0.1946  0.1971  0.8872
  160SAPE  H17S17909  -0.273   0.226   8.119 -0.4785  0.1563  0.6056
  160SAPE  C21817910  -0.088   0.258   7.994  0.1448  0.6223 -0.1385
  160SAPE  H18R17911  -0.069   0.312   7.899 -1.5412 -1.1823 -1.5186
  160SAPE  H18S17912  -0.077   0.149   7.976 -0.9930  0.0429  2.3545
  160SAPE  C21917913   0.016   0.286   8.102 -0.5899 -0.0123  0.1065
  160SAPE  H19R17914  -0.011   0.216   8.184 -1.3950  0.6339  0.4021
  160SAPE  H19S17915   0.004   0.389   8.143  2.4572 -0.9460  3.6693
  160SAPE  C22017916   0.159   0.274   8.053 -0.1955  0.4162 -1.0063
  160SAPE  H20R17917   0.181   0.355   7.980  3.4341  0.0974 -0.3460
  160SAPE  H20S17918   0.184   0.178   8.002 -1.1333 -0.0811 -0.5314
  160SAPE  H20T17919   0.230   0.280   8.138  0.0817  1.8765 -1.3168
  160SAPE   C3317920  -0.358  -0.067   6.670 -0.4138 -0.1499 -0.4003
  160SAPE   H3X17921  -0.323   0.009   6.597  0.1501  0.1529  0.1724
  160SAPE   H3Y17922  -0.290  -0.062   6.758 -0.2092  1.7800 -0.6380
  160SAPE   C3417923  -0.487  -0.021   6.724  0.0860 -0.1436 -0.2281
  160SAPE   H4X17924  -0.548  -0.105   6.763  3.1644 -2.2419  0.2719
  160SAPE   H4Y17925  -0.539   0.029   6.639  0.3259 -0.0829 -0.3385
  160SAPE   C3517926  -0.482   0.095   6.826  0.4421 -0.2652  0.0558
  160SAPE   H5X17927  -0.391   0.157   6.814 -0.2801  0.5602 -1.2993
  160SAPE   H5Y17928  -0.468   0.053   6.928  1.7552 -2.0136 -0.8130
  160SAPE   C3617929  -0.606   0.188   6.835 -0.0029 -0.0375 -0.5259
  160SAPE   H6X17930  -0.699   0.128   6.833 -0.3479  0.3645  1.6016
  160SAPE   H6Y17931  -0.611   0.248   6.742  0.8215 -0.6265 -0.9626
  160SAPE   C3717932  -0.598   0.258   6.969 -0.0143  0.9818 -1.1541
  160SAPE   H7X17933  -0.493   0.288   6.988  0.2748 -0.8449  0.3635
  160SAPE   H7Y17934  -0.627   0.181   7.043 -0.3569  1.7417 -0.5046
  160SAPE   C3817935  -0.695   0.374   6.983 -0.8842 -0.9863  0.4012
  160SAPE   H8X17936  -0.792   0.353   6.933  0.1879 -0.8178 -1.7908
  160SAPE   H8Y17937  -0.655   0.452   6.916 -0.0922 -1.9957 -0.3133
  160SAPE   C3917938  -0.713   0.422   7.125 -0.0804 -0.3418 -0.1400
  160SAPE   H9X17939  -0.614   0.469   7.144  0.8948 -2.1033 -0.7988
  160SAPE   H9Y17940  -0.714   0.336   7.195  1.6258 -1.4508 -1.4260
  160SAPE  C31017941  -0.829   0.515   7.136 -0.0303 -0.3522  0.1081
  160SAPE  H10X17942  -0.913   0.464   7.086 -0.3113  0.4975 -0.3043
  160SAPE  H10Y17943  -0.815   0.607   7.075  1.1921 -2.4328 -2.9171
  160SAPE  C31117944  -0.881   0.564   7.278 -0.3313 -0.3742  0.6690
  160SAPE  H11X17945  -0.970   0.624   7.251 -0.7393 -1.6102 -0.7904
  160SAPE  H11Y17946  -0.799   0.630   7.312 -0.2413 -0.2681  0.2405
  160SAPE  C31217947  -0.916   0.459   7.381 -0.5332 -0.3068  0.1183
  160SAPE  H12X17948  -0.836   0.382   7.379  0.8756  1.1470 -0.9372
  160SAPE  H12Y17949  -1.008   0.404   7.350 -1.0723  0.5331  0.2248
  160SAPE  C31317950  -0.938   0.524   7.520 -0.1796 -0.3063 -0.1711
  160SAPE  H13X17951  -1.006   0.611   7.524 -0.3925 -0.4563 -0.4566
  160SAPE  H13Y17952  -0.844   0.559   7.567  0.4059 -2.2787  0.1744
  160SAPE  C31417953  -0.998   0.424   7.613  0.4611  0.2986 -0.1777
  160SAPE  H14X17954  -0.942   0.329   7.613  2.1149  1.2548  0.5482
  160SAPE  H14Y17955  -1.094   0.391   7.567  1.1937 -2.0040 -0.1032
  160SAPE  C31517956  -1.020   0.481   7.752 -0.0048 -0.8730  0.1562
  160SAPE  H15X17957  -1.088   0.410   7.803 -1.5320  1.0658  0.9096
  160SAPE  H15Y17958  -1.068   0.581   7.751 -0.2317 -0.9783  0.5283
  160SAPE  C31617959  -0.903   0.487   7.854 -0.4250  0.4787  0.1138
  160SAPE  H16X17960  -0.841   0.579   7.843  0.5813 -0.0110  1.5394
  160SAPE  H16Y17961  -0.833   0.403   7.834 -2.9272 -1.8960  1.1038
  160SAPE  C31717962  -0.968   0.496   7.996  0.1789 -0.5283  0.9529
  160SAPE  H17X17963  -1.044   0.416   8.011  0.0223 -0.5484  0.0988
  160SAPE  H17Y17964  -1.022   0.592   8.007  2.4918  0.9757 -0.5581
  160SAPE  C31817965  -0.858   0.467   8.101 -0.0506 -0.2692 -0.8455
  160SAPE  H18X17966  -0.902   0.461   8.203 -1.1752  2.7462 -1.0733
  160SAPE  H18Y17967  -0.783   0.549   8.102 -2.2856  1.8812 -1.6942
  160SAPE  H18Z17968  -0.805   0.371   8.085  0.3796 -0.2265  0.2598
  161SOPE     N17969   4.557   2.090  10.774 -0.2671  0.2980 -0.3115
  161SOPE   HN117970   4.483   2.156  10.805 -0.4853 -0.5931  1.1170
  161SOPE   HN217971   4.586   2.028  10.852  2.1495 -1.4879 -2.5340
  161SOPE   HN317972   4.646   2.128  10.737 -0.6506 -0.3773 -1.9718
  161SOPE   C1217973   4.491   2.023  10.654  1.0039 -0.9240  0.4514
  161SOPE  H12A17974   4.557   1.936  10.631 -0.6351 -1.6452 -1.5995
  161SOPE  H12B17975   4.498   2.097  10.571 -0.2141  1.0497  2.0561
  161SOPE   C1117976   4.349   1.979  10.676  0.0454  0.0108 -0.1899
  161SOPE  H11A17977   4.302   1.943  10.582 -4.4222 -2.3426  2.7587
  161SOPE  H11B17978   4.290   2.062  10.723 -1.1294 -0.6760 -0.4287
  161SOPE     P17979   4.312   1.724  10.765  0.5022  0.1921  0.5793
  161SOPE   O1317980   4.164   1.704  10.745 -0.4965  0.2111 -0.0974
  161SOPE   O1417981   4.361   1.668  10.891  0.1633 -0.6276 -0.1160
  161SOPE   O1217982   4.348   1.877  10.770  0.6469  0.3611 -0.1158
  161SOPE   O1117983   4.395   1.674  10.642  0.6112  0.5029 -0.2303
  161SOPE    C117984   4.338   1.593  10.537  0.0931  0.3758 -0.0640
  161SOPE    HA17985   4.235   1.553  10.552 -0.1318  1.6791  2.1143
  161SOPE    HB17986   4.405   1.505  10.524 -0.4646  0.0030 -0.4749
  161SOPE    C217987   4.332   1.669  10.408 -0.7158 -0.3558 -0.7814
  161SOPE    HS17988   4.249   1.742  10.421 -2.0370 -2.0799  0.7589
  161SOPE   O2117989   4.296   1.574  10.305  0.0035  0.2464  0.5219
  161SOPE   C2117990   4.233   1.637  10.200  0.3233  0.1571 -0.0052
  161SOPE   O2217991   4.190   1.750  10.201  0.4509  0.1643  0.0572
  161SOPE   C2217992   4.231   1.533  10.087  0.5296 -0.1991  0.1222
  161SOPE   H2R17993   4.130   1.488  10.092  0.8886 -0.8961  1.4588
  161SOPE   H2S17994   4.306   1.452  10.103  1.0161  0.2145 -0.0698
  161SOPE    C317995   4.462   1.746  10.380  0.6460  0.7431  0.1835
  161SOPE    HX17996   4.551   1.687  10.409  0.5549  0.4593 -0.1189
  161SOPE    HY17997   4.463   1.820  10.463 -0.4340  0.3641  0.5324
  161SOPE   O3117998   4.462   1.795  10.248  0.3883 -0.1432 -0.0403
  161SOPE   C3117999   4.475   1.930  10.227  0.5876 -0.3192  0.2531
  161SOPE   O3218000   4.488   2.008  10.320  0.0140  0.1192 -0.3362
  161SOPE   C3218001   4.468   1.961  10.075  0.3081 -0.4698 -0.2001
  161SOPE   H2X18002   4.362   1.983  10.051  0.8196  1.4177 -0.7817
  161SOPE   H2Y18003   4.482   1.868  10.015 -2.2016  1.3565 -3.8152
  161SOPE   C2318004   4.262   1.600   9.951 -0.5254 -0.2438  0.1677
  161SOPE   H3R18005   4.295   1.509   9.896  0.8635  0.6100 -0.4162
  161SOPE   H3S18006   4.348   1.669   9.953 -1.8305  1.4239 -0.1171
  161SOPE   C2418007   4.136   1.656   9.880  1.6372  0.3796  0.1776
  161SOPE   H4R18008   4.069   1.570   9.856  1.3568  0.4017  0.8825
  161SOPE   H4S18009   4.088   1.725   9.952  1.5630 -0.0457  0.5356
  161SOPE   C2518010   4.178   1.728   9.748  0.0237  0.0177 -0.3566
  161SOPE   H5R18011   4.085   1.779   9.715 -1.0109 -1.2625  0.5329
  161SOPE   H5S18012   4.242   1.815   9.772 -0.7426  1.0901 -2.0599
  161SOPE   C2618013   4.236   1.636   9.644  0.1954 -0.2887 -0.2501
  161SOPE   H6R18014   4.345   1.614   9.653 -0.1803 -1.9936  0.2635
  161SOPE   H6S18015   4.186   1.539   9.664 -0.9259  1.0347  3.8418
  161SOPE   C2718016   4.212   1.686   9.505  0.2175  0.0973  0.1544
  161SOPE   H7R18017   4.103   1.706   9.502  0.5509  2.2280  1.0455
  161SOPE   H7S18018   4.262   1.784   9.486  0.9621 -0.4053 -0.5227
  161SOPE   C2818019   4.240   1.587   9.388 -0.0974 -0.0914  0.3485
  161SOPE   H8R18020   4.185   1.491   9.395  1.2155 -0.9505 -0.7221
  161SOPE   H8S18021   4.187   1.626   9.298 -1.2896  0.3710  1.2491
  161SOPE   C2918022   4.389   1.570   9.348  0.4294  0.3615  0.4581
  161SOPE   H9118023   4.435   1.519   9.435  1.7667  1.2046  0.2618
  161SOPE  C21018024   4.464   1.601   9.239  0.5112  0.0650  1.0852
  161SOPE  H10118025   4.568   1.567   9.242  0.4740 -0.4904 -2.1446
  161SOPE  C21118026   4.409   1.653   9.106  0.3674  0.3685  0.0165
  161SOPE  H11R18027   4.381   1.761   9.108 -0.0373  0.4127 -3.7346
  161SOPE  H11S18028   4.316   1.594   9.095 -0.1837  0.9149  1.6259
  161SOPE  C21218029   4.517   1.625   8.998 -0.3765  0.5639 -0.4094
  161SOPE  H12R18030   4.551   1.522   8.978  1.9487  0.8048  2.0603
  161SOPE  H12S18031   4.613   1.676   9.018 -0.2580 -0.3859  1.4676
  161SOPE  C21318032   4.473   1.676   8.857  0.1283  0.0210 -0.3829
  161SOPE  H13R18033   4.430   1.777   8.871  0.6066 -0.1281  2.4270
  161SOPE  H13S18034   4.385   1.615   8.828 -1.1240  1.5449  0.1461
  161SOPE  C21418035   4.580   1.670   8.753  0.0776  0.4367 -0.5108
  161SOPE  H14R18036   4.631   1.572   8.768  1.7320  1.5878  1.7360
  161SOPE  H14S18037   4.652   1.753   8.771  0.6507 -0.6754  2.6254
  161SOPE  C21518038   4.529   1.676   8.606  0.6040 -0.1177 -0.0663
  161SOPE  H15R18039   4.449   1.752   8.597  0.2869 -0.3582  0.6564
  161SOPE  H15S18040   4.478   1.580   8.583 -1.2181  0.7708  0.1330
  161SOPE  C21618041   4.638   1.693   8.497  0.4079 -0.6724 -0.2577
  161SOPE  H16R18042   4.708   1.777   8.519 -0.1488 -0.1611 -0.4148
  161SOPE  H16S18043   4.587   1.718   8.402 -0.7798 -2.1441 -0.0260
  161SOPE  C21718044   4.722   1.577   8.463 -0.5237 -0.1746 -0.2160
  161SOPE  H17R18045   4.660   1.487   8.445 -1.8451  0.5121  0.8237
  161SOPE  H17S18046   4.788   1.550   8.549 -0.6265  2.4028  0.7040
  161SOPE  C21818047   4.799   1.589   8.331 -0.2085 -0.1003 -1.0512
  161SOPE  H18R18048   4.876   1.509   8.331 -0.1151 -0.0093 -1.3329
  161SOPE  H18S18049   4.847   1.689   8.321  1.5646 -0.7482  0.5686
  161SOPE  H18T18050   4.739   1.563   8.242 -0.6210 -0.8516 -0.5608
  161SOPE   C3318051   4.566   2.065  10.018 -0.0153  0.5820  0.0706
  161SOPE   H3X18052   4.673   2.035  10.018  0.2399  1.4540 -0.1548
  161SOPE   H3Y18053   4.558   2.151  10.088  0.4134  0.7890 -0.1289
  161SOPE   C3418054   4.526   2.131   9.883 -0.3586 -0.0193  0.3076
  161SOPE   H4X18055   4.586   2.224   9.869  0.4046 -0.5672 -0.0989
  161SOPE   H4Y18056   4.418   2.158   9.887 -0.4355 -0.5150  1.9018
  161SOPE   C3518057   4.566   2.034   9.761 -0.6697 -0.1003  0.0289
  161SOPE   H5X18058   4.507   1.941   9.778 -3.4331  1.4752 -0.7098
  161SOPE   H5Y18059   4.672   2.004   9.777  0.2670  1.2844 -3.2939
  161SOPE   C3618060   4.540   2.101   9.633  0.6480  0.0994 -0.4764
  161SOPE   H6X18061   4.613   2.184   9.623  0.4698  0.3094 -0.0814
  161SOPE   H6Y18062   4.440   2.148   9.617  0.0102 -1.2378 -0.4403
  161SOPE   C3718063   4.564   2.009   9.510 -0.4542  0.7581  0.8997
  161SOPE   H7X18064   4.484   1.933   9.495  0.2657  0.3518 -1.0332
  161SOPE   H7Y18065   4.665   1.964   9.522  0.3247  2.4324  0.7169
  161SOPE   C3818066   4.578   2.080   9.371 -0.3607  0.1288 -0.0022
  161SOPE   H8X18067   4.670   2.141   9.383 -0.4169  0.5061 -1.4482
  161SOPE   H8Y18068   4.487   2.140   9.350  0.5166  1.9391  1.2108
  161SOPE   C3918069   4.607   1.989   9.247  0.1774 -0.3476  1.0405
  161SOPE   H9X18070   4.513   1.931   9.237  1.3779 -2.0594 -0.6310
  161SOPE   H9Y18071   4.697   1.924   9.256 -0.7825 -2.1049 -1.6454
  161SOPE  C31018072   4.629   2.072   9.113 -0.2419  0.1680  0.5676
  161SOPE  H10X18073   4.739   2.088   9.125 -0.1651 -0.4150  0.6226
  161SOPE  H10Y18074   4.576   2.169   9.124  0.3296  0.6796 -1.0689
  161SOPE  C31118075   4.590   2.001   8.989 -1.1365 -0.1995 -0.4275
  161SOPE  H11X18076   4.481   1.988   8.974 -0.7193 -2.2794 -1.8472
  161SOPE  H11Y18077   4.632   1.899   8.996 -1.8003 -0.4730 -0.4123
  161SOPE  C31218078   4.643   2.072   8.861  0.5383 -1.0092 -0.1796
  161SOPE  H12X18079   4.654   2.002   8.776  1.6251 -1.3750  0.2644
  161SOPE  H12Y18080   4.747   2.108   8.871  0.4104 -0.5006 -0.6277
  161SOPE  C31318081   4.568   2.209   8.833  0.2138  0.5111 -0.5644
  161SOPE  H13X18082   4.558   2.277   8.920  1.6833  1.7477 -1.3306
  161SOPE  H13Y18083   4.465   2.183   8.801 -0.4788  1.0399  1.1838
  161SOPE  C31418084   4.622   2.280   8.718 -0.2297  0.2119 -0.2104
  161SOPE  H14X18085   4.629   2.218   8.626 -0.3299 -1.5101  0.9092
  161SOPE  H14Y18086   4.723   2.317   8.746 -1.4943  3.5439  0.1597
  161SOPE  C31518087   4.539   2.401   8.674 -0.0025  0.5863 -0.0574
  161SOPE  H15X18088   4.554   2.481   8.749  2.9351 -0.1150  0.1886
  161SOPE  H15Y18089   4.432   2.374   8.675 -0.0334  0.7184  0.5557
  161SOPE  C31618090   4.566   2.453   8.530 -0.6608  0.4758  0.0189
  161SOPE  H16X18091   4.552   2.365   8.463 -1.6358  1.6191 -1.3025
  161SOPE  H16Y18092   4.670   2.491   8.518  0.0510 -1.3470  0.2369
  161SOPE  C31718093   4.465   2.555   8.478 -0.2491  0.0423 -0.1450
  161SOPE  H17X18094   4.362   2.516   8.496 -0.9289  1.7270 -0.2700
  161SOPE  H17Y18095   4.468   2.571   8.368 -2.2916  0.3810 -0.1733
  161SOPE  C31818096   4.470   2.696   8.536 -0.3861  0.4134 -0.0447
  161SOPE  H18X18097   4.566   2.744   8.509  0.2319 -0.1904  1.0455
  161SOPE  H18Y18098   4.445   2.706   8.644 -0.4782  0.2068 -0.0475
  161SOPE  H18Z18099   4.395   2.769   8.498 -1.8925 -0.6269  0.8900
  162SOPE     N18100   2.952   1.904  10.958  0.3602  0.2270 -0.2312
  162SOPE   HN118101   2.977   1.877  10.861 -0.1452  0.8140 -0.5285
  162SOPE   HN218102   2.992   1.838  11.027  2.0046 -0.3332 -1.6960
  162SOPE   HN318103   2.848   1.897  10.970  0.3701 -0.9401 -0.7295
  162SOPE   C1218104   3.000   2.046  10.968 -0.6326 -0.1554  0.0655
  162SOPE  H12A18105   2.991   2.075  11.075 -0.0393  3.0401 -0.6990
  162SOPE  H12B18106   2.944   2.114  10.900 -1.4582 -0.4648  0.4313
  162SOPE   C1118107   3.153   2.062  10.934 -0.8190 -0.0215 -0.1129
  162SOPE  H11A18108   3.217   2.019  11.014  0.3024  1.1364 -0.3717
  162SOPE  H11B18109   3.167   2.171  10.917 -0.7848 -0.1450 -0.9374
  162SOPE     P18110   3.323   1.970  10.750 -0.0644  0.1439  0.1938
  162SOPE   O1318111   3.422   1.964  10.862 -0.1593 -0.2221  0.2018
  162SOPE   O1418112   3.349   2.068  10.647 -0.3546 -0.8752  0.2773
  162SOPE   O1218113   3.172   1.998  10.807  0.1294 -0.0030  0.2957
  162SOPE   O1118114   3.317   1.824  10.686  0.2501  0.4826  0.5808
  162SOPE    C118115   3.191   1.774  10.635 -0.0360  0.2844 -0.6204
  162SOPE    HA18116   3.106   1.843  10.653 -0.9899 -1.0996  0.3367
  162SOPE    HB18117   3.172   1.677  10.685 -1.3944 -0.0396 -1.7192
  162SOPE    C218118   3.190   1.758  10.475 -0.7536 -0.8827 -0.1019
  162SOPE    HS18119   3.283   1.704  10.445  0.3468  0.4676  0.8233
  162SOPE   O2118120   3.180   1.893  10.418  0.0807  0.8433  0.4272
  162SOPE   C2118121   3.267   1.920  10.330 -0.1586 -0.0908 -0.3112
  162SOPE   O2218122   3.359   1.848  10.287 -0.4121  0.1225  0.0414
  162SOPE   C2218123   3.251   2.065  10.280 -0.3948 -0.0207 -0.3436
  162SOPE   H2R18124   3.329   2.127  10.329  0.7211 -0.9353 -0.9348
  162SOPE   H2S18125   3.152   2.104  10.310  0.2652  2.3231 -1.0738
  162SOPE    C318126   3.067   1.682  10.426 -0.3202 -0.3450 -0.0689
  162SOPE    HX18127   2.983   1.751  10.449  0.1786  0.1584  0.2515
  162SOPE    HY18128   3.047   1.586  10.479 -3.1461  0.2153 -0.0296
  162SOPE   O3118129   3.063   1.672  10.280  0.1056 -0.2043 -0.0118
  162SOPE   C3118130   3.146   1.580  10.228  0.3137 -0.2985  0.0546
  162SOPE   O3218131   3.220   1.510  10.292 -0.2177  0.1642  0.7089
  162SOPE   C3218132   3.122   1.572  10.079  0.0366  0.4689  0.0779
  162SOPE   H2X18133   3.020   1.531  10.062 -0.5218  1.9054 -0.1136
  162SOPE   H2Y18134   3.183   1.489  10.038 -2.7410 -1.8015  0.4054
  162SOPE   C2318135   3.272   2.091  10.129  0.5235 -0.6657 -0.3734
  162SOPE   H3R18136   3.232   2.190  10.102 -0.0823 -0.4911  1.1117
  162SOPE   H3S18137   3.198   2.027  10.076 -0.1572  0.6930 -1.0956
  162SOPE   C2418138   3.418   2.074  10.073  0.3396  0.5307 -0.2660
  162SOPE   H4R18139   3.491   2.126  10.139  0.7815  2.0130 -1.8977
  162SOPE   H4S18140   3.449   1.967  10.071  0.7211  0.6538 -1.5020
  162SOPE   C2518141   3.434   2.140   9.940 -0.3028 -0.1183  0.1829
  162SOPE   H5R18142   3.416   2.247   9.961  3.3753  0.9448 -1.5739
  162SOPE   H5S18143   3.540   2.126   9.909  0.0489  0.0206  1.3098
  162SOPE   C2618144   3.333   2.089   9.833 -0.6307 -0.5401 -0.1636
  162SOPE   H6R18145   3.359   1.982   9.818  0.3652 -0.3006 -0.1798
  162SOPE   H6S18146   3.223   2.093   9.848 -1.2433 -1.7470 -3.8975
  162SOPE   C2718147   3.362   2.164   9.697  1.2325  0.4115  0.9967
  162SOPE   H7R18148   3.280   2.140   9.626  0.5977 -0.3402  1.9769
  162SOPE   H7S18149   3.349   2.272   9.721 -2.9498  0.9492 -3.0331
  162SOPE   C2818150   3.493   2.120   9.632 -0.0701 -0.5311 -0.3359
  162SOPE   H8R18151   3.532   2.190   9.556 -1.3149 -0.0691 -0.5589
  162SOPE   H8S18152   3.570   2.106   9.711 -0.3024 -4.1141 -0.6715
  162SOPE   C2918153   3.459   1.987   9.569 -0.3825  0.0022  0.1733
  162SOPE   H9118154   3.450   1.904   9.641  1.6327 -0.0470  0.4011
  162SOPE  C21018155   3.458   1.958   9.437  0.3273 -0.4981 -0.7702
  162SOPE  H10118156   3.402   1.870   9.404 -2.3199  1.0463 -0.5634
  162SOPE  C21118157   3.494   2.063   9.332  0.2199  0.2409 -0.0845
  162SOPE  H11R18158   3.460   2.167   9.351  0.8739  0.8171 -1.9743
  162SOPE  H11S18159   3.442   2.051   9.234 -0.7682 -0.7922  0.5497
  162SOPE  C21218160   3.651   2.062   9.298 -0.1499 -0.2690 -0.0223
  162SOPE  H12R18161   3.667   1.961   9.254  1.1305 -0.5069  0.9471
  162SOPE  H12S18162   3.703   2.097   9.390 -1.0644 -0.4971  0.5929
  162SOPE  C21318163   3.701   2.158   9.188  0.1851 -0.2825  0.4661
  162SOPE  H13R18164   3.660   2.129   9.089 -0.1835  2.3393 -0.1970
  162SOPE  H13S18165   3.811   2.146   9.173 -0.2422 -1.9233 -1.5296
  162SOPE  C21418166   3.678   2.314   9.210  0.7290 -0.2800  0.7243
  162SOPE  H14R18167   3.655   2.338   9.316  3.4105  1.7193  0.9159
  162SOPE  H14S18168   3.586   2.339   9.152  1.1197  0.6021  0.4761
  162SOPE  C21518169   3.793   2.412   9.172  0.2581  0.3275  0.0015
  162SOPE  H15R18170   3.818   2.393   9.066 -2.7679 -0.3185 -0.6529
  162SOPE  H15S18171   3.869   2.374   9.243 -0.4344 -1.0693  0.0124
  162SOPE  C21618172   3.765   2.558   9.212 -0.1621  0.7193 -0.1895
  162SOPE  H16R18173   3.794   2.573   9.319 -1.6214  1.7667  0.0870
  162SOPE  H16S18174   3.655   2.569   9.218 -0.0623  0.9765  1.6092
  162SOPE  C21718175   3.834   2.656   9.130 -0.0356 -0.3491  0.1607
  162SOPE  H17R18176   3.815   2.629   9.024  0.3039 -1.2107  0.3111
  162SOPE  H17S18177   3.945   2.658   9.139 -0.2241  0.3491  2.6120
  162SOPE  C21818178   3.775   2.794   9.156 -0.4409 -0.1109  0.8926
  162SOPE  H18R18179   3.767   2.817   9.265 -1.4256 -0.1231  0.8263
  162SOPE  H18S18180   3.679   2.810   9.104  0.5704  0.9852 -0.6927
  162SOPE  H18T18181   3.854   2.858   9.111  0.7936 -2.7320 -0.7996
  162SOPE   C3318182   3.145   1.699   9.991  0.3940  0.3464  0.2322
  162SOPE   H3X18183   3.252   1.728   9.986 -0.1479  2.2039 -0.9578
  162SOPE   H3Y18184   3.075   1.782  10.016  0.0501 -0.5667  2.4092
  162SOPE   C3418185   3.117   1.658   9.836 -0.3652  0.3037 -0.7236
  162SOPE   H4X18186   3.008   1.640   9.825 -0.0908 -1.0772 -1.1628
  162SOPE   H4Y18187   3.167   1.563   9.811  0.9066  0.5743  0.6974
  162SOPE   C3518188   3.176   1.760   9.739  0.0292  0.0247  0.2990
  162SOPE   H5X18189   3.286   1.768   9.749  0.2430 -2.9368  0.6328
  162SOPE   H5Y18190   3.132   1.857   9.772 -1.3318 -1.0786  1.7832
  162SOPE   C3618191   3.131   1.734   9.593  0.7884 -0.6723 -0.0272
  162SOPE   H6X18192   3.164   1.631   9.566 -1.5551 -2.1622  2.5319
  162SOPE   H6Y18193   3.190   1.810   9.537 -2.6096  1.0937 -1.3208
  162SOPE   C3718194   2.985   1.759   9.570  0.0052  0.2449  0.0594
  162SOPE   H7X18195   2.947   1.855   9.611  0.7881  0.3114  0.6590
  162SOPE   H7Y18196   2.921   1.691   9.629 -0.3215  1.4718  1.1464
  162SOPE   C3818197   2.951   1.743   9.420 -0.9463 -0.3795  0.3153
  162SOPE   H8X18198   2.988   1.646   9.380 -1.0342 -0.3042  0.0489
  162SOPE   H8Y18199   2.992   1.828   9.362  0.2646 -0.8760  0.4369
  162SOPE   C3918200   2.794   1.736   9.417  0.1452  0.3421 -0.4050
  162SOPE   H9X18201   2.758   1.832   9.459  0.3414 -0.3922  1.4991
  162SOPE   H9Y18202   2.760   1.647   9.475  2.2280 -0.9444 -1.1053
  162SOPE  C31018203   2.734   1.718   9.275  0.3750  0.0820 -0.1093
  162SOPE  H10X18204   2.778   1.622   9.240  0.2366 -0.3380  0.8643
  162SOPE  H10Y18205   2.752   1.806   9.210 -0.3091  0.0887 -0.2954
  162SOPE  C31118206   2.578   1.699   9.275 -0.4497 -0.1498  0.2076
  162SOPE  H11X18207   2.531   1.778   9.338 -0.0100 -0.4202  0.8736
  162SOPE  H11Y18208   2.550   1.605   9.327 -3.0287  0.3840 -0.1199
  162SOPE  C31218209   2.515   1.711   9.130 -0.3554  0.2819  0.3929
  162SOPE  H12X18210   2.555   1.806   9.088 -0.4077 -0.0828 -0.4884
  162SOPE  H12Y18211   2.405   1.723   9.143 -0.4579 -1.6903  1.4982
  162SOPE  C31318212   2.539   1.593   9.038  0.0218  0.7144  0.2644
  162SOPE  H13X18213   2.477   1.511   9.080  0.0206  1.0153  0.8536
  162SOPE  H13Y18214   2.643   1.553   9.043 -0.2978 -0.1074  0.4495
  162SOPE  C31418215   2.488   1.619   8.894  0.8845 -0.2807  0.3229
  162SOPE  H14X18216   2.509   1.536   8.822  1.6503 -1.4224  1.8442
  162SOPE  H14Y18217   2.532   1.716   8.861  0.4836 -0.0381  0.4974
  162SOPE  C31518218   2.331   1.626   8.882  0.3817  0.1057  0.4144
  162SOPE  H15X18219   2.317   1.691   8.793 -0.7000 -0.0697  0.4467
  162SOPE  H15Y18220   2.289   1.682   8.969  0.1010  2.3842 -1.1592
  162SOPE  C31618221   2.250   1.497   8.861 -0.1433  0.2878  0.2263
  162SOPE  H16X18222   2.298   1.452   8.772  0.3350 -1.6542  1.4441
  162SOPE  H16Y18223   2.145   1.519   8.834 -0.9756 -0.8102  2.4166
  162SOPE  C31718224   2.252   1.399   8.982 -0.3930  0.6252 -0.0673
  162SOPE  H17X18225   2.358   1.366   8.991 -0.0571  1.9634  1.1734
  162SOPE  H17Y18226   2.187   1.312   8.962  1.8677 -1.1035 -0.0601
  162SOPE  C31818227   2.192   1.460   9.110 -0.5883  0.8194  0.3332
  162SOPE  H18X18228   2.217   1.393   9.194  2.7891  0.2082 -1.0856
  162SOPE  H18Y18229   2.084   1.485   9.097 -0.3461  2.1216  0.7144
  162SOPE  H18Z18230   2.249   1.552   9.135 -1.0038  0.7063  1.7011
  163SOPE     N18231   5.071   6.259  11.146  0.1014 -0.0256 -0.1817
  163SOPE   HN118232   5.147   6.239  11.214 -0.3156 -2.3062 -0.3377
  163SOPE   HN218233   5.110   6.286  11.053  0.5099 -1.4340 -0.4288
  163SOPE   HN318234   5.024   6.345  11.182 -0.2895 -0.0854 -0.5521
  163SOPE   C1218235   4.959   6.150  11.141  0.0966 -0.0379 -0.0632
  163SOPE  H12A18236   4.924   6.115  11.240 -1.3372  0.1468 -0.4968
  163SOPE  H12B18237   5.006   6.059  11.097  0.8132  1.5677 -2.7187
  163SOPE   C1118238   4.835   6.196  11.068 -0.5454  0.7693  0.0390
  163SOPE  H11A18239   4.794   6.286  11.120  0.3381  0.5508  1.1320
  163SOPE  H11B18240   4.763   6.112  11.075  0.5119 -0.2214 -0.9369
  163SOPE     P18241   4.722   6.294  10.853  0.2392 -0.0986  0.0932
  163SOPE   O1318242   4.765   6.314  10.717  0.0439 -0.1469 -0.7703
  163SOPE   O1418243   4.682   6.424  10.915 -0.8980 -0.4581  0.9564
  163SOPE   O1218244   4.855   6.236  10.932 -0.0472  0.4632 -0.3676
  163SOPE   O1118245   4.612   6.181  10.868 -0.1118 -0.1685 -0.0036
  163SOPE    C118246   4.624   6.057  10.794 -0.0980  0.3644 -0.1322
  163SOPE    HA18247   4.568   5.974  10.842  1.7020 -0.9909 -0.3601
  163SOPE    HB18248   4.726   6.015  10.803 -0.5398 -0.7071  0.0027
  163SOPE    C218249   4.565   6.071  10.646  0.6106 -0.0380  0.6940
  163SOPE    HS18250   4.640   6.130  10.590 -1.7583  1.4813 -0.9517
  163SOPE   O2118251   4.445   6.141  10.656 -0.1395 -0.2000 -0.2341
  163SOPE   C2118252   4.436   6.248  10.574  0.2528 -0.2194  0.6863
  163SOPE   O2218253   4.525   6.287  10.506 -0.0376 -0.0418 -0.0328
  163SOPE   C2218254   4.303   6.314  10.588  0.1190 -0.1229 -0.3236
  163SOPE   H2R18255   4.307   6.372  10.683  0.4874  1.0841 -1.0563
  163SOPE   H2S18256   4.230   6.231  10.594 -0.4393  0.2862 -1.2223
  163SOPE    C318257   4.544   5.934  10.575 -0.5447  0.9285 -0.1779
  163SOPE    HX18258   4.462   5.884  10.631 -1.0369  2.6366  0.6518
  163SOPE    HY18259   4.640   5.881  10.594 -0.8134  0.1665 -0.9128
  163SOPE   O3118260   4.520   5.950  10.437  0.4772 -0.4341 -0.8311
  163SOPE   C3118261   4.393   5.966  10.403 -0.4652 -0.0728 -0.2822
  163SOPE   O3218262   4.293   5.979  10.475 -0.4286 -0.0213 -0.0179
  163SOPE   C3218263   4.389   5.962  10.247  1.6048  0.1851 -0.6983
  163SOPE   H2X18264   4.492   5.954  10.208  1.5180 -1.5902 -0.6105
  163SOPE   H2Y18265   4.361   6.060  10.204  2.4529  0.9755  0.5362
  163SOPE   C2318266   4.270   6.406  10.467 -0.3316  0.3236 -0.4163
  163SOPE   H3R18267   4.356   6.471  10.441  0.7426 -2.0929 -3.2451
  163SOPE   H3S18268   4.187   6.475  10.492  0.0469  1.0834 -1.2286
  163SOPE   C2418269   4.249   6.316  10.344 -0.2356  0.2382  0.3297
  163SOPE   H4R18270   4.345   6.264  10.323  0.3105  1.6096 -0.5651
  163SOPE   H4S18271   4.176   6.233  10.361  0.4373 -0.8537 -1.9621
  163SOPE   C2518272   4.204   6.398  10.220  0.0378  0.5041  0.2602
  163SOPE   H5R18273   4.134   6.473  10.263  1.3083  1.4208  0.7645
  163SOPE   H5S18274   4.289   6.454  10.175  0.2182 -0.3325 -0.4453
  163SOPE   C2618275   4.152   6.308  10.107  0.3769  0.3080 -0.2611
  163SOPE   H6R18276   4.226   6.226  10.100 -0.7767 -0.6928 -0.9444
  163SOPE   H6S18277   4.051   6.266  10.126  0.2691  0.0728 -1.3589
  163SOPE   C2718278   4.146   6.377   9.966 -0.1256  0.2797 -0.1786
  163SOPE   H7R18279   4.075   6.463   9.967  1.4342  1.6400 -1.4536
  163SOPE   H7S18280   4.245   6.425   9.945  0.6158 -0.0558  2.4519
  163SOPE   C2818281   4.100   6.284   9.851 -1.0341 -0.9889  0.3540
  163SOPE   H8R18282   4.141   6.181   9.852  0.2356 -0.4982  2.4299
  163SOPE   H8S18283   3.989   6.284   9.851 -1.0452  0.1047  0.8188
  163SOPE   C2918284   4.146   6.345   9.722  0.6139  0.5795 -0.1171
  163SOPE   H9118285   4.218   6.428   9.730  0.1115  1.1823 -1.8004
  163SOPE  C21018286   4.102   6.312   9.601 -0.2113  0.1136  0.3309
  163SOPE  H10118287   4.162   6.361   9.523  2.5644 -0.1977  2.1623
  163SOPE  C21118288   4.005   6.197   9.562  0.4213  0.1884  0.5144
  163SOPE  H11R18289   3.952   6.208   9.465  0.9763  2.0971  0.4077
  163SOPE  H11S18290   3.927   6.180   9.639  0.9306 -0.0130  0.9869
  163SOPE  C21218291   4.088   6.076   9.551 -0.2962 -0.1448  0.3905
  163SOPE  H12R18292   4.115   6.041   9.652 -1.0686 -2.2675 -0.1236
  163SOPE  H12S18293   4.181   6.097   9.494  0.2011  0.7098  1.4831
  163SOPE  C21318294   4.014   5.970   9.475 -0.8722 -0.1405  0.5236
  163SOPE  H13R18295   3.918   5.952   9.528 -0.9269  0.7710  0.7535
  163SOPE  H13S18296   4.072   5.876   9.490 -1.3280 -0.3382  1.0517
  163SOPE  C21418297   3.986   5.998   9.323  0.1653  0.5780 -0.7222
  163SOPE  H14R18298   3.924   6.089   9.308 -2.2749 -1.2198 -1.6518
  163SOPE  H14S18299   3.931   5.908   9.290  1.4067 -0.2943 -0.4357
  163SOPE  C21518300   4.108   6.011   9.231  0.3951  0.1808 -0.9264
  163SOPE  H15R18301   4.163   5.914   9.223 -0.0684 -0.5880  3.8977
  163SOPE  H15S18302   4.181   6.089   9.259  0.6319 -0.2756 -0.2402
  163SOPE  C21618303   4.072   6.049   9.085  0.6474  0.7712  0.1132
  163SOPE  H16R18304   4.163   6.096   9.043  0.8357  0.2014 -0.1291
  163SOPE  H16S18305   3.990   6.124   9.082 -0.1897 -0.2002 -3.6410
  163SOPE  C21718306   4.022   5.932   9.001 -0.0072  0.1618  0.0792
  163SOPE  H17R18307   3.934   5.890   9.056  0.0770  0.2187  0.2582
  163SOPE  H17S18308   4.101   5.855   9.007 -1.5357 -1.4580  0.0314
  163SOPE  C21818309   3.986   5.972   8.858  0.1800  0.0302  0.5038
  163SOPE  H18R18310   4.074   6.003   8.798 -0.4970  0.0244 -0.5192
  163SOPE  H18S18311   3.903   6.045   8.863 -0.1898 -0.3869  0.5484
  163SOPE  H18T18312   3.944   5.885   8.803  0.7464  0.5589 -0.7980
  163SOPE   C3318313   4.289   5.854  10.192  0.3161 -0.1477  0.0993
  163SOPE   H3X18314   4.188   5.870  10.235  0.0630 -0.1054 -0.5062
  163SOPE   H3Y18315   4.325   5.755  10.228 -0.5334 -0.4866  0.0225
  163SOPE   C3418316   4.269   5.879  10.037 -0.2063 -0.1492 -0.4877
  163SOPE   H4X18317   4.243   5.986  10.020 -0.1366 -0.2073 -0.9548
  163SOPE   H4Y18318   4.181   5.817  10.012 -1.0460  0.8551 -0.0655
  163SOPE   C3518319   4.393   5.845   9.945  0.0024 -0.3350 -0.2426
  163SOPE   H5X18320   4.421   5.739   9.964 -2.0178 -0.7018  0.7932
  163SOPE   H5Y18321   4.476   5.916   9.963  1.2349 -1.7793 -0.0856
  163SOPE   C3618322   4.360   5.865   9.796  0.0711 -0.3974  0.3970
  163SOPE   H6X18323   4.304   5.961   9.802 -0.9892 -0.9692 -0.3063
  163SOPE   H6Y18324   4.286   5.789   9.766 -0.4108  0.7021 -1.2676
  163SOPE   C3718325   4.481   5.869   9.694 -0.2963  0.3372  1.1619
  163SOPE   H7X18326   4.524   5.767   9.706 -2.0273 -0.2534  2.5265
  163SOPE   H7Y18327   4.557   5.941   9.731  3.8370 -1.9636 -2.4433
  163SOPE   C3818328   4.425   5.895   9.555 -0.3903 -0.1237 -0.6722
  163SOPE   H8X18329   4.366   5.989   9.561 -1.1389 -0.3946 -3.2129
  163SOPE   H8Y18330   4.350   5.816   9.534  0.6051 -1.2141 -0.2094
  163SOPE   C3918331   4.526   5.891   9.440 -1.0291 -0.7555 -0.2681
  163SOPE   H9X18332   4.569   5.789   9.449 -2.7458 -1.5133 -0.4369
  163SOPE   H9Y18333   4.598   5.975   9.451 -2.4841  0.3297  1.2010
  163SOPE  C31018334   4.454   5.905   9.305 -0.7981  0.2938  0.0178
  163SOPE  H10X18335   4.408   6.006   9.305 -1.1404  0.1397 -0.4034
  163SOPE  H10Y18336   4.373   5.829   9.303 -0.8357  0.3280  0.2287
  163SOPE  C31118337   4.545   5.899   9.181 -0.7029 -0.0986 -0.0297
  163SOPE  H11X18338   4.588   5.798   9.164 -1.4675 -0.6501  1.1939
  163SOPE  H11Y18339   4.638   5.960   9.184  0.3815 -1.7694  1.8282
  163SOPE  C31218340   4.459   5.936   9.058  0.3571 -0.4146  0.0107
  163SOPE  H12X18341   4.427   6.042   9.067  1.1013 -0.3114  1.7164
  163SOPE  H12Y18342   4.360   5.886   9.066 -0.4276  1.0748 -0.2171
  163SOPE  C31318343   4.539   5.922   8.929  0.0383  0.0285  0.2606
  163SOPE  H13X18344   4.576   5.819   8.909 -0.5557 -0.4973  1.8115
  163SOPE  H13Y18345   4.629   5.987   8.927  0.7163 -0.8745  1.1190
  163SOPE  C31418346   4.448   5.973   8.808 -0.3796  0.4851 -0.7489
  163SOPE  H14X18347   4.430   6.080   8.828  0.0503  0.7057 -1.5103
  163SOPE  H14Y18348   4.349   5.922   8.811  0.3404 -0.8742  0.0529
  163SOPE  C31518349   4.519   5.959   8.675 -0.1723  0.1284 -0.9779
  163SOPE  H15X18350   4.565   5.858   8.669  3.7653  1.8263 -1.2950
  163SOPE  H15Y18351   4.610   6.023   8.672 -1.8792  2.6406 -0.3814
  163SOPE  C31618352   4.428   5.993   8.560  0.0347  0.3410  0.1947
  163SOPE  H16X18353   4.496   6.026   8.479  0.8195 -0.7445  0.4033
  163SOPE  H16Y18354   4.374   6.087   8.586 -2.5227 -0.2513 -2.7916
  163SOPE  C31718355   4.341   5.874   8.518 -0.1870 -0.0547  0.1812
  163SOPE  H17X18356   4.264   5.870   8.598 -0.0275 -1.0113  0.2905
  163SOPE  H17Y18357   4.404   5.783   8.521  0.0119  0.0693 -0.1747
  163SOPE  C31818358   4.270   5.881   8.382 -0.2323  0.0542 -0.5942
  163SOPE  H18X18359   4.343   5.875   8.299 -2.5166 -2.2008 -2.5039
  163SOPE  H18Y18360   4.227   5.984   8.382  2.2335  1.1199  0.5503
  163SOPE  H18Z18361   4.194   5.801   8.369 -1.1026  0.9342 -1.0452
  164SOPE     N18362   6.456   4.870  10.591  0.2929  0.3476  0.5670
  164SOPE   HN118363   6.354   4.868  10.572  0.2298 -2.0993  0.9746
  164SOPE   HN218364   6.486   4.964  10.623 -0.2668  0.3101  1.2053
  164SOPE   HN318365   6.498   4.846  10.499 -1.5625 -0.9630  0.0327
  164SOPE   C1218366   6.501   4.759  10.686  0.1237 -0.6274  0.1570
  164SOPE  H12A18367   6.409   4.700  10.704  0.8598 -2.9683 -3.3152
  164SOPE  H12B18368   6.546   4.807  10.776 -1.0169  2.0273 -0.6598
  164SOPE   C1118369   6.594   4.662  10.620 -0.0011 -0.0486  0.2269
  164SOPE  H11A18370   6.550   4.628  10.524 -1.0194  1.5152  0.1200
  164SOPE  H11B18371   6.609   4.578  10.691 -0.1390 -1.2279 -1.1250
  164SOPE     P18372   6.852   4.709  10.660 -0.3017 -0.2740 -0.3897
  164SOPE   O1318373   6.858   4.603  10.764 -0.3623  0.0420 -0.8220
  164SOPE   O1418374   6.915   4.839  10.700  0.3833  0.4948 -0.2647
  164SOPE   O1218375   6.714   4.731  10.595 -0.5558 -0.1834 -0.0050
  164SOPE   O1118376   6.926   4.658  10.527 -0.3687 -0.1474 -0.2497
  164SOPE    C118377   6.911   4.521  10.482 -0.0264  0.9393 -0.2703
  164SOPE    HA18378   6.812   4.474  10.495  0.0562  1.2438  1.5274
  164SOPE    HB18379   6.990   4.457  10.527 -1.6331  0.0581  1.3322
  164SOPE    C218380   6.925   4.516  10.334 -0.2290 -0.8032  0.3040
  164SOPE    HS18381   6.913   4.407  10.320  0.4251 -0.9883  1.1582
  164SOPE   O2118382   7.057   4.572  10.304  0.0450  0.6792  0.7491
  164SOPE   C2118383   7.153   4.483  10.280  0.0519 -0.1895 -0.2411
  164SOPE   O2218384   7.134   4.364  10.277 -0.0379  0.2805 -0.2300
  164SOPE   C2218385   7.279   4.558  10.270 -0.1770  0.4982  0.3859
  164SOPE   H2R18386   7.348   4.531  10.353  0.2466 -3.7622 -1.2551
  164SOPE   H2S18387   7.263   4.668  10.282 -1.3733  0.2268  1.3905
  164SOPE    C318388   6.816   4.598  10.253  0.6400  0.7315  0.1552
  164SOPE    HX18389   6.825   4.708  10.267 -2.1440  1.0639 -0.3336
  164SOPE    HY18390   6.721   4.577  10.307  0.1290 -0.6767 -1.2770
  164SOPE   O3118391   6.799   4.565  10.115 -0.2925  0.3670  0.2311
  164SOPE   C3118392   6.743   4.656  10.030  0.0940 -0.4124 -0.5713
  164SOPE   O3218393   6.676   4.753  10.058  0.0135 -0.1757 -0.2098
  164SOPE   C3218394   6.771   4.604   9.887  0.0244  0.2667 -0.1243
  164SOPE   H2X18395   6.698   4.523   9.865 -1.7679  1.3334  1.7680
  164SOPE   H2Y18396   6.876   4.569   9.877  0.2119  0.3516  1.5014
  164SOPE   C2318397   7.341   4.521  10.140  0.3504 -0.0416 -0.4330
  164SOPE   H3R18398   7.273   4.560  10.062 -0.3940 -0.2955  0.0838
  164SOPE   H3S18399   7.340   4.410  10.131 -1.7945 -0.4429  3.5094
  164SOPE   C2418400   7.485   4.582  10.131 -0.1911 -0.6975  0.7303
  164SOPE   H4R18401   7.478   4.690  10.159 -0.5915 -0.3534 -0.6266
  164SOPE   H4S18402   7.548   4.533  10.208  0.0486  1.1478  1.7409
  164SOPE   C2518403   7.561   4.561  10.000  0.2622  0.4297 -0.4637
  164SOPE   H5R18404   7.643   4.635   9.989  0.5246  0.0789 -0.8713
  164SOPE   H5S18405   7.611   4.462   9.994  1.1039  0.8063  0.2109
  164SOPE   C2618406   7.474   4.580   9.874 -0.6480 -1.1353 -0.4126
  164SOPE   H6R18407   7.398   4.499   9.875  0.1644 -1.9134 -0.6632
  164SOPE   H6S18408   7.423   4.679   9.870  1.4211 -0.0398 -0.8294
  164SOPE   C2718409   7.558   4.581   9.749 -0.1177 -0.1177  0.0352
  164SOPE   H7R18410   7.616   4.676   9.751 -1.2511  0.5715  1.3881
  164SOPE   H7S18411   7.630   4.498   9.753  0.3356  0.2546 -0.3746
  164SOPE   C2818412   7.481   4.563   9.623 -0.2893  0.2576  0.2875
  164SOPE   H8R18413   7.436   4.464   9.605  2.0595 -1.0089  1.1877
  164SOPE   H8S18414   7.400   4.639   9.627  0.9908  1.6565  0.0911
  164SOPE   C2918415   7.571   4.602   9.506  0.8877 -0.4045  0.0028
  164SOPE   H9118416   7.620   4.697   9.531 -3.9807  1.4251  3.3662
  164SOPE  C21018417   7.581   4.559   9.384  0.5217  0.2096  1.0274
  164SOPE  H10118418   7.665   4.596   9.322 -0.6371  0.5851 -0.3447
  164SOPE  C21118419   7.511   4.441   9.323  0.1880 -0.2909  0.5805
  164SOPE  H11R18420   7.493   4.361   9.398  1.6764 -0.1085  1.1591
  164SOPE  H11S18421   7.569   4.386   9.246 -2.2821 -0.2826 -1.3369
  164SOPE  C21218422   7.367   4.459   9.263 -0.7511  0.3793 -0.6415
  164SOPE  H12R18423   7.349   4.366   9.205  1.6040  0.8485 -2.1837
  164SOPE  H12S18424   7.365   4.536   9.183  0.6226  2.3227  1.1459
  164SOPE  C21318425   7.256   4.476   9.371 -0.0669 -0.0005 -0.4926
  164SOPE  H13R18426   7.161   4.496   9.317  0.2239  2.8566 -0.0728
  164SOPE  H13S18427   7.280   4.560   9.440 -1.4707 -0.4886  0.6121
  164SOPE  C21418428   7.225   4.361   9.463  0.7656 -0.2618  0.0389
  164SOPE  H14R18429   7.327   4.322   9.484  1.2276 -0.7747 -2.8801
  164SOPE  H14S18430   7.151   4.293   9.415  0.5135 -2.9882  4.0195
  164SOPE  C21518431   7.153   4.396   9.594  0.2533 -0.1758  0.1790
  164SOPE  H15R18432   7.078   4.472   9.566  0.2900 -0.6389 -1.1748
  164SOPE  H15S18433   7.226   4.456   9.653  1.1366  0.2599 -1.3291
  164SOPE  C21618434   7.099   4.266   9.660 -0.6281  0.0426 -0.4080
  164SOPE  H16R18435   7.173   4.183   9.664 -1.0629 -0.3274  0.1084
  164SOPE  H16S18436   7.016   4.229   9.595  0.4547 -0.0771 -1.7430
  164SOPE  C21718437   7.041   4.290   9.796 -0.3110 -0.0305  0.6947
  164SOPE  H17R18438   7.003   4.190   9.824  0.3883 -0.0281  1.6511
  164SOPE  H17S18439   6.954   4.358   9.781 -1.2240 -0.7613  2.5024
  164SOPE  C21818440   7.145   4.349   9.893 -0.0111 -0.3243 -0.7220
  164SOPE  H18R18441   7.244   4.299   9.891  0.1175 -0.0689 -0.7159
  164SOPE  H18S18442   7.104   4.342   9.996 -2.9566 -2.2085 -1.9183
  164SOPE  H18T18443   7.167   4.457   9.879 -1.2871  0.0436  0.0576
  164SOPE   C3318444   6.738   4.711   9.774 -0.1679 -0.2834  0.4674
  164SOPE   H3X18445   6.812   4.790   9.799  0.1835 -0.4286 -0.1106
  164SOPE   H3Y18446   6.632   4.744   9.784 -0.4348 -1.6856  2.7916
  164SOPE   C3418447   6.761   4.642   9.639  0.6391 -0.3767  0.8352
  164SOPE   H4X18448   6.705   4.547   9.626 -0.4583  0.2599  0.8597
  164SOPE   H4Y18449   6.869   4.626   9.617  0.7515  1.4612 -0.0086
  164SOPE   C3518450   6.723   4.745   9.527 -0.7230 -0.5801  0.4368
  164SOPE   H5X18451   6.790   4.834   9.521  0.4885 -1.3404  2.3177
  164SOPE   H5Y18452   6.620   4.782   9.544 -0.0729  0.6953  1.7929
  164SOPE   C3618453   6.728   4.679   9.385  0.6735  0.3199 -0.0950
  164SOPE   H6X18454   6.669   4.586   9.388  1.2043  0.0156  1.8210
  164SOPE   H6Y18455   6.833   4.643   9.378  0.3299 -0.3833 -1.7438
  164SOPE   C3718456   6.683   4.780   9.276  0.7720  0.9264 -0.1164
  164SOPE   H7X18457   6.752   4.868   9.278 -0.0560  1.5628  1.9963
  164SOPE   H7Y18458   6.584   4.824   9.300 -0.5060  0.4228 -4.1095
  164SOPE   C3818459   6.680   4.733   9.131 -0.5339 -0.2266  0.0307
  164SOPE   H8X18460   6.577   4.691   9.123 -0.6308 -0.2232  1.1892
  164SOPE   H8Y18461   6.757   4.656   9.109 -2.1421 -1.6417 -0.8639
  164SOPE   C3918462   6.707   4.838   9.025  0.9571  0.4871  0.9911
  164SOPE   H9X18463   6.807   4.885   9.037 -0.2597  3.1403  1.1043
  164SOPE   H9Y18464   6.638   4.925   9.033 -1.3711 -1.0892 -1.2423
  164SOPE  C31018465   6.699   4.780   8.884  0.1368 -0.1863 -0.0697
  164SOPE  H10X18466   6.596   4.745   8.859 -0.2696 -0.4054  1.8903
  164SOPE  H10Y18467   6.771   4.696   8.876  1.8839  0.9537  2.9704
  164SOPE  C31118468   6.725   4.873   8.770  0.9474  0.2593  0.7848
  164SOPE  H11X18469   6.718   4.813   8.677 -0.7921 -2.3467  2.5439
  164SOPE  H11Y18470   6.829   4.913   8.766  2.5294 -3.7532 -2.4885
  164SOPE  C31218471   6.632   4.997   8.761 -0.2016 -0.3023  0.0971
  164SOPE  H12X18472   6.663   5.075   8.835  0.4165 -0.3041 -0.1566
  164SOPE  H12Y18473   6.530   4.964   8.790 -0.7076  3.8035  3.5185
  164SOPE  C31318474   6.619   5.050   8.615 -0.0290 -0.3089  0.7820
  164SOPE  H13X18475   6.712   5.045   8.555  0.1093  1.7129  0.7864
  164SOPE  H13Y18476   6.588   5.157   8.616  0.7653  0.0056 -2.2192
  164SOPE  C31418477   6.512   4.984   8.526  0.3648 -0.4367 -0.6025
  164SOPE  H14X18478   6.408   5.004   8.560  0.8980 -0.0594  0.8541
  164SOPE  H14Y18479   6.540   4.877   8.532  1.9290  0.0781  1.9918
  164SOPE  C31518480   6.525   5.037   8.383 -0.3980 -0.8289  0.2129
  164SOPE  H15X18481   6.626   5.009   8.347 -0.1523  1.9720 -1.4289
  164SOPE  H15Y18482   6.526   5.148   8.381 -0.9620 -0.8261  0.0640
  164SOPE  C31618483   6.423   4.975   8.291 -0.2615  0.1455 -0.2812
  164SOPE  H16X18484   6.326   5.028   8.305  1.2439  4.0065 -3.7774
  164SOPE  H16Y18485   6.402   4.871   8.325  0.0115 -0.0613 -0.7429
  164SOPE  C31718486   6.456   4.994   8.140  0.1137  0.1797  0.2581
  164SOPE  H17X18487   6.480   5.101   8.124 -2.1055  0.5421 -0.8982
  164SOPE  H17Y18488   6.368   4.968   8.078 -0.4032  2.5433 -0.0630
  164SOPE  C31818489   6.585   4.921   8.095 -0.1265 -0.1825  0.0419
  164SOPE  H18X18490   6.680   4.961   8.135  0.5636 -1.3284 -0.4300
  164SOPE  H18Y18491   6.591   4.925   7.984  0.1161  2.1959  0.1165
  164SOPE  H18Z18492   6.582   4.813   8.121  1.8497 -0.2463  0.0343
  165SOPE     N18493   5.338   4.897  11.128  0.2429 -0.0467  0.1813
  165SOPE   HN118494   5.292   4.807  11.154  1.1952 -0.4090  0.6443
  165SOPE   HN218495   5.393   4.936  11.208  1.5645 -1.4054 -0.0441
  165SOPE   HN318496   5.262   4.962  11.098 -0.9074 -2.0916 -1.4401
  165SOPE   C1218497   5.442   4.882  11.020 -0.0119  0.3546  0.1360
  165SOPE  H12A18498   5.399   4.825  10.935 -0.9154 -1.5479  1.7894
  165SOPE  H12B18499   5.521   4.819  11.066 -1.2363 -1.0843  0.3515
  165SOPE   C1118500   5.498   5.015  10.965 -0.6722  0.1702 -0.3693
  165SOPE  H11A18501   5.418   5.083  10.927  0.6962  1.3487 -1.2053
  165SOPE  H11B18502   5.554   4.982  10.875 -0.0945 -1.8420  0.7228
  165SOPE     P18503   5.737   5.052  11.075 -0.4983  0.1605 -0.0164
  165SOPE   O1318504   5.759   4.911  11.104  0.3134  0.0074  0.0713
  165SOPE   O1418505   5.792   5.153  11.167 -0.1997 -0.2034 -0.0323
  165SOPE   O1218506   5.581   5.074  11.067 -0.1211  0.0675 -0.1714
  165SOPE   O1118507   5.773   5.088  10.921 -0.6095 -0.3111 -0.4466
  165SOPE    C118508   5.789   5.224  10.881  0.3882 -0.0531  0.0493
  165SOPE    HA18509   5.880   5.243  10.821  2.6334 -1.5313  2.8444
  165SOPE    HB18510   5.811   5.291  10.967 -1.3260 -1.2160  1.4285
  165SOPE    C218511   5.662   5.280  10.823  0.8241 -0.3401  0.4443
  165SOPE    HS18512   5.578   5.263  10.894 -0.8069  2.4206 -0.7666
  165SOPE   O2118513   5.631   5.198  10.704  0.9384  0.3985  0.0898
  165SOPE   C2118514   5.519   5.219  10.633 -0.3481  0.3607  0.1266
  165SOPE   O2218515   5.425   5.287  10.672 -0.2094  0.0079 -0.2304
  165SOPE   C2218516   5.522   5.140  10.497  0.4709  0.1206  0.0514
  165SOPE   H2R18517   5.556   5.041  10.532 -0.5682 -0.1508  0.3212
  165SOPE   H2S18518   5.592   5.191  10.427 -0.7341  1.8321  0.0384
  165SOPE    C318519   5.673   5.439  10.780 -0.1366  0.3832  0.4530
  165SOPE    HX18520   5.674   5.495  10.876  0.5118  1.2417 -0.0501
  165SOPE    HY18521   5.578   5.471  10.732  0.5177  0.1618 -1.0181
  165SOPE   O3118522   5.799   5.472  10.717  0.4549 -0.8193  0.2189
  165SOPE   C3118523   5.791   5.458  10.584 -0.5939  0.0515  0.2532
  165SOPE   O3218524   5.689   5.429  10.522 -0.1159  0.3495  0.3263
  165SOPE   C3218525   5.921   5.507  10.524  0.1241 -0.0849  0.4403
  165SOPE   H2X18526   5.981   5.559  10.601  0.3766  0.4627 -0.1219
  165SOPE   H2Y18527   5.895   5.584  10.449  1.6828  1.8562  1.8563
  165SOPE   C2318528   5.380   5.106  10.443  0.4475  0.3602 -0.1848
  165SOPE   H3R18529   5.315   5.195  10.427 -0.5683 -0.2131  0.6029
  165SOPE   H3S18530   5.329   5.040  10.517  2.0542 -2.1872 -1.3027
  165SOPE   C2418531   5.380   5.020  10.310  0.1039  0.1836  0.8071
  165SOPE   H4R18532   5.429   4.922  10.328  0.8088  0.4318  0.2579
  165SOPE   H4S18533   5.274   5.013  10.278  0.7218  0.1468 -1.3254
  165SOPE   C2518534   5.462   5.095  10.199  0.4877 -0.1738  0.3206
  165SOPE   H5R18535   5.412   5.194  10.205  0.1431 -0.4327  2.2653
  165SOPE   H5S18536   5.568   5.105  10.231  0.9987  1.4870 -1.8103
  165SOPE   C2618537   5.442   5.030  10.069 -0.2109 -0.0585 -0.2552
  165SOPE   H6R18538   5.490   4.929  10.068 -3.0947 -1.5063  0.5803
  165SOPE   H6S18539   5.332   5.025  10.055 -0.2781  0.5810  0.0196
  165SOPE   C2718540   5.502   5.114   9.956 -0.0566  0.0631  0.2252
  165SOPE   H7R18541   5.431   5.200   9.950  1.8588  1.7543  1.0225
  165SOPE   H7S18542   5.603   5.146   9.989  0.5065 -1.0017 -0.4727
  165SOPE   C2818543   5.514   5.042   9.824 -0.0672  0.6049  0.1033
  165SOPE   H8R18544   5.579   4.954   9.844  0.3020  0.7548 -0.4248
  165SOPE   H8S18545   5.417   5.002   9.788  0.1994 -1.7665  1.9303
  165SOPE   C2918546   5.589   5.119   9.716  0.4847  0.2002 -0.4734
  165SOPE   H9118547   5.694   5.130   9.746  0.4393 -3.2480  1.2870
  165SOPE  C21018548   5.544   5.183   9.607  0.5727 -0.0334 -1.1564
  165SOPE  H10118549   5.614   5.234   9.540  2.6106 -0.7698  0.3744
  165SOPE  C21118550   5.396   5.182   9.566 -0.1523 -0.2932 -0.9926
  165SOPE  H11R18551   5.370   5.290   9.553 -0.1515  0.0416  1.5231
  165SOPE  H11S18552   5.336   5.153   9.655  0.7082  1.4372  0.2059
  165SOPE  C21218553   5.380   5.088   9.446  0.0436 -0.2918 -0.5095
  165SOPE  H12R18554   5.273   5.086   9.420 -0.2835  0.5638  0.6796
  165SOPE  H12S18555   5.392   4.986   9.488  2.1869  0.8634  1.8703
  165SOPE  C21318556   5.469   5.121   9.323 -1.0270  0.0692 -0.8886
  165SOPE  H13R18557   5.576   5.101   9.344 -1.3507 -1.0184 -0.1887
  165SOPE  H13S18558   5.456   5.227   9.296  0.0253  0.0453 -1.4985
  165SOPE  C21418559   5.435   5.044   9.198  0.7634 -0.2711  0.1152
  165SOPE  H14R18560   5.326   5.054   9.179  1.3610  1.7219 -2.3596
  165SOPE  H14S18561   5.462   4.936   9.204  0.8062 -0.3671 -1.5284
  165SOPE  C21518562   5.515   5.111   9.083  0.3164 -0.6122 -0.3642
  165SOPE  H15R18563   5.621   5.098   9.113 -0.4134 -2.3287  1.5887
  165SOPE  H15S18564   5.498   5.221   9.074 -2.4844 -1.0447 -0.9748
  165SOPE  C21618565   5.471   5.047   8.957 -0.3284 -0.1912 -0.1879
  165SOPE  H16R18566   5.360   5.046   8.950 -0.3612  2.8955 -0.7947
  165SOPE  H16S18567   5.515   4.945   8.947  1.1158  0.2801  1.2868
  165SOPE  C21718568   5.528   5.117   8.828  0.5364 -0.0791 -0.3589
  165SOPE  H17R18569   5.636   5.091   8.836  0.3635 -0.4289  0.8852
  165SOPE  H17S18570   5.528   5.228   8.831 -0.8155 -0.0557 -0.9115
  165SOPE  C21818571   5.453   5.073   8.702 -0.3761  0.2708  0.1525
  165SOPE  H18R18572   5.347   5.101   8.720 -0.4627 -1.1376  1.9753
  165SOPE  H18S18573   5.451   4.962   8.702  0.2164  0.1719  4.0379
  165SOPE  H18T18574   5.489   5.121   8.609 -0.9651  1.1151  0.3545
  165SOPE   C3318575   6.011   5.386  10.474  0.0645  0.1207 -0.1648
  165SOPE   H3X18576   6.015   5.320  10.564  2.2474  1.9302  1.1128
  165SOPE   H3Y18577   6.116   5.419  10.467  1.1804 -3.8002 -3.7828
  165SOPE   C3418578   5.973   5.326  10.342 -0.5046 -0.1042 -0.9832
  165SOPE   H4X18579   5.868   5.291  10.353 -0.4341 -0.4475 -1.4062
  165SOPE   H4Y18580   6.039   5.239  10.321 -1.9089 -1.3177 -0.5155
  165SOPE   C3518581   5.971   5.409  10.216 -0.5809 -0.5930 -0.2071
  165SOPE   H5X18582   6.079   5.417  10.190 -0.5656 -0.8337 -0.2218
  165SOPE   H5Y18583   5.922   5.507  10.236 -1.6773 -1.3516  0.9357
  165SOPE   C3618584   5.906   5.338  10.099 -0.3616 -0.0515  0.7448
  165SOPE   H6X18585   5.795   5.328  10.103 -0.2275 -1.8944  0.2075
  165SOPE   H6Y18586   5.941   5.233  10.099 -0.6809 -0.1882 -1.6037
  165SOPE   C3718587   5.949   5.423   9.977 -0.0097  0.2860  0.3275
  165SOPE   H7X18588   6.039   5.488   9.986  0.1606  0.2244 -0.9341
  165SOPE   H7Y18589   5.877   5.508   9.975  0.7812  0.9744  0.6083
  165SOPE   C3818590   5.936   5.349   9.846 -0.2808 -0.1657  0.5914
  165SOPE   H8X18591   5.839   5.294   9.846  0.6273 -1.7922 -0.8206
  165SOPE   H8Y18592   6.023   5.281   9.837  1.8254  2.4826  0.0769
  165SOPE   C3918593   5.920   5.440   9.723  0.0792 -0.6525  0.9535
  165SOPE   H9X18594   6.013   5.497   9.706 -0.8857  0.7359  0.2422
  165SOPE   H9Y18595   5.838   5.515   9.727  0.5143 -0.2003  1.2679
  165SOPE  C31018596   5.894   5.361   9.594 -0.3482 -0.3901 -0.4626
  165SOPE  H10X18597   5.798   5.306   9.606  0.5695 -1.6834  1.3048
  165SOPE  H10Y18598   5.971   5.281   9.586 -1.8396 -1.7757 -1.3120
  165SOPE  C31118599   5.888   5.445   9.462 -0.8028  0.2383 -0.0079
  165SOPE  H11X18600   5.980   5.506   9.455 -0.1505 -0.9820 -2.5461
  165SOPE  H11Y18601   5.801   5.514   9.469 -1.5017 -0.2185 -3.5475
  165SOPE  C31218602   5.887   5.353   9.345  0.2683  0.4860 -0.2592
  165SOPE  H12X18603   5.781   5.324   9.329  0.6574 -0.7176 -0.6885
  165SOPE  H12Y18604   5.936   5.254   9.352  1.6046  1.1816  0.5354
  165SOPE  C31318605   5.943   5.427   9.222 -0.1664 -0.0739 -0.7522
  165SOPE  H13X18606   6.046   5.443   9.261 -0.8607  2.4943  0.1008
  165SOPE  H13Y18607   5.895   5.526   9.209  0.1559 -0.3146 -4.0241
  165SOPE  C31418608   5.948   5.335   9.105 -0.7027  0.3042  0.1418
  165SOPE  H14X18609   5.916   5.232   9.133  0.1586 -0.3064 -1.0688
  165SOPE  H14Y18610   6.050   5.347   9.064 -1.1136  0.3907 -0.8879
  165SOPE  C31518611   5.843   5.365   8.996  0.1673  0.2372 -0.9100
  165SOPE  H15X18612   5.743   5.352   9.043 -0.1431 -0.6242 -1.7930
  165SOPE  H15Y18613   5.830   5.288   8.916 -1.5408 -1.4530  0.9391
  165SOPE  C31618614   5.857   5.504   8.937  0.2331  0.0415 -0.2155
  165SOPE  H16X18615   5.838   5.568   9.026  0.9300  0.7668 -0.5798
  165SOPE  H16Y18616   5.772   5.527   8.869 -0.6125  0.3822  0.9409
  165SOPE  C31718617   5.988   5.542   8.872 -0.6216 -0.5069 -0.3170
  165SOPE  H17X18618   5.998   5.487   8.776  1.7694  1.2994 -1.1414
  165SOPE  H17Y18619   6.065   5.505   8.942  0.6897  2.2384 -0.2280
  165SOPE  C31818620   6.017   5.696   8.846  0.1346  0.3259  0.4447
  165SOPE  H18X18621   6.092   5.698   8.764 -0.0516  1.6217  0.2999
  165SOPE  H18Y18622   6.056   5.751   8.934  0.7881  1.6189 -0.6366
  165SOPE  H18Z18623   5.935   5.756   8.799  0.8479  0.8630 -0.1243
  166SOPE     N18624   2.425   5.662  10.973  0.2068  0.0718 -0.3288
  166SOPE   HN118625   2.505   5.699  10.917  0.9967  0.8362  1.2700
  166SOPE   HN218626   2.461   5.621  11.062 -0.3746 -2.2828 -1.1269
  166SOPE   HN318627   2.386   5.578  10.925 -0.8349 -1.1372  2.5035
  166SOPE   C1218628   2.339   5.783  10.995  0.7370 -0.6327 -0.1634
  166SOPE  H12A18629   2.397   5.869  10.956 -0.8000  0.7512  0.5330
  166SOPE  H12B18630   2.329   5.812  11.102  0.6233 -1.9349  0.1988
  166SOPE   C1118631   2.192   5.774  10.949 -0.1981 -0.5513 -0.0474
  166SOPE  H11A18632   2.140   5.685  10.991  0.2455 -0.5493  0.5113
  166SOPE  H11B18633   2.192   5.762  10.839  2.4637  1.4977 -0.3192
  166SOPE     P18634   2.129   6.028  10.905 -0.3557 -0.3273 -0.3770
  166SOPE   O1318635   2.258   6.096  10.906  0.5737 -0.0471 -0.3179
  166SOPE   O1418636   2.009   6.111  10.933 -0.2538  0.4421  0.3013
  166SOPE   O1218637   2.136   5.895  10.989 -0.7361  0.0976 -0.2887
  166SOPE   O1118638   2.107   5.968  10.753 -0.0940 -0.0916 -0.1767
  166SOPE    C118639   2.149   6.059  10.646  0.3886  0.4147 -0.1264
  166SOPE    HA18640   2.239   6.118  10.672 -0.2790  1.3292  0.1198
  166SOPE    HB18641   2.081   6.132  10.596  0.7596 -0.3957 -1.8718
  166SOPE    C218642   2.182   5.969  10.522  0.3365 -0.2359 -0.7583
  166SOPE    HS18643   2.214   6.028  10.433 -2.4192  0.4491 -1.3365
  166SOPE   O2118644   2.084   5.878  10.491  0.2375  0.7168 -0.0362
  166SOPE   C2118645   1.980   5.926  10.429 -0.7733  0.1233 -0.4594
  166SOPE   O2218646   1.975   6.041  10.387 -0.3574  0.1059 -0.1127
  166SOPE   C2218647   1.869   5.817  10.425  0.5390 -0.0778  0.7427
  166SOPE   H2R18648   1.771   5.870  10.434 -0.0088 -0.8223 -0.6267
  166SOPE   H2S18649   1.878   5.749  10.512 -2.1473 -1.5961 -0.0925
  166SOPE    C318650   2.309   5.886  10.559 -0.3953 -0.2261 -0.4809
  166SOPE    HX18651   2.309   5.828  10.654 -0.0132  0.7887  0.1462
  166SOPE    HY18652   2.388   5.957  10.591 -1.7867  0.3423  1.7809
  166SOPE   O3118653   2.358   5.822  10.443 -0.1383  0.5508 -0.1189
  166SOPE   C3118654   2.329   5.685  10.422 -0.4158  0.5314 -0.1254
  166SOPE   O3218655   2.267   5.621  10.506 -0.4058 -0.0949 -0.3040
  166SOPE   C3218656   2.378   5.638  10.284  0.2917 -0.2941  0.2926
  166SOPE   H2X18657   2.454   5.709  10.247  0.9539 -0.1093  1.9303
  166SOPE   H2Y18658   2.290   5.657  10.220  0.7330  1.5230  0.1962
  166SOPE   C2318659   1.857   5.737  10.295  0.7699 -0.5662 -0.0298
  166SOPE   H3R18660   1.786   5.655  10.316 -0.2792  0.2553 -0.3326
  166SOPE   H3S18661   1.948   5.683  10.261  0.4423 -0.1292 -1.6379
  166SOPE   C2418662   1.801   5.823  10.179  0.6033 -0.3553  0.5053
  166SOPE   H4R18663   1.713   5.882  10.210  0.8014  0.0069  0.3755
  166SOPE   H4S18664   1.881   5.899  10.167 -0.9838  1.5238  1.6789
  166SOPE   C2518665   1.759   5.749  10.054 -0.4881  0.5275 -0.4005
  166SOPE   H5R18666   1.651   5.722  10.061 -0.1781 -0.3151  1.3212
  166SOPE   H5S18667   1.763   5.812   9.962 -0.0497  2.3220  0.8216
  166SOPE   C2618668   1.837   5.618  10.011  0.6972 -0.4272 -0.3420
  166SOPE   H6R18669   1.941   5.619  10.050 -0.2472  2.4057  2.2924
  166SOPE   H6S18670   1.788   5.540  10.073  0.9377  0.1575  0.5934
  166SOPE   C2718671   1.819   5.576   9.866  0.3563 -0.1831 -0.7966
  166SOPE   H7R18672   1.713   5.548   9.846  0.6273  0.1185 -2.8259
  166SOPE   H7S18673   1.832   5.666   9.801  0.6230  0.9172  0.7628
  166SOPE   C2818674   1.908   5.462   9.808 -0.2901 -0.1201  0.2440
  166SOPE   H8R18675   1.904   5.460   9.697  2.9939 -1.0040  0.0772
  166SOPE   H8S18676   2.009   5.496   9.839  0.8096 -2.0398 -1.1303
  166SOPE   C2918677   1.876   5.342   9.886  0.6195  0.8475  0.1713
  166SOPE   H9118678   1.909   5.335   9.991 -2.7110  0.7995  1.2721
  166SOPE  C21018679   1.808   5.236   9.839  0.3302  0.2077  0.1343
  166SOPE  H10118680   1.770   5.160   9.908  0.4564 -1.2890 -1.4084
  166SOPE  C21118681   1.755   5.216   9.698  0.1607  0.7908 -0.2998
  166SOPE  H11R18682   1.722   5.315   9.661  0.9750  0.0944 -3.0715
  166SOPE  H11S18683   1.654   5.168   9.692  0.2072  0.6128  0.3035
  166SOPE  C21218684   1.857   5.147   9.606 -0.1886  0.1946  0.5531
  166SOPE  H12R18685   1.907   5.057   9.645  0.4379 -0.4801 -1.7485
  166SOPE  H12S18686   1.940   5.221   9.598  1.5615 -1.7640  0.2936
  166SOPE  C21318687   1.796   5.111   9.472 -0.0040 -0.3851  0.7478
  166SOPE  H13R18688   1.745   5.199   9.426 -1.4365 -2.2639 -1.4065
  166SOPE  H13S18689   1.732   5.026   9.506 -0.3784 -1.2456 -1.9401
  166SOPE  C21418690   1.890   5.043   9.377 -0.6400  0.7540  0.5766
  166SOPE  H14R18691   1.919   4.943   9.417 -1.6939  0.7872  1.4343
  166SOPE  H14S18692   1.984   5.100   9.394 -0.4430  0.5332  0.2223
  166SOPE  C21518693   1.844   5.036   9.225 -0.6010 -0.5329 -0.7282
  166SOPE  H15R18694   1.810   5.135   9.188 -1.4378 -1.2430 -1.8993
  166SOPE  H15S18695   1.756   4.968   9.222 -1.0541  0.0635 -1.1635
  166SOPE  C21618696   1.943   4.972   9.130 -0.1081 -0.0388  0.3942
  166SOPE  H16R18697   1.886   4.943   9.040 -1.6878  1.6136  0.8448
  166SOPE  H16S18698   1.992   4.877   9.162 -0.7358 -1.2829 -2.1590
  166SOPE  C21718699   2.052   5.070   9.080  0.1989 -0.0895 -0.1333
  166SOPE  H17R18700   2.127   5.089   9.160  0.9884  2.7869 -1.4667
  166SOPE  H17S18701   1.998   5.162   9.050  0.3973  0.1625  0.2740
  166SOPE  C21818702   2.126   5.001   8.967  0.0236  0.7184 -0.5206
  166SOPE  H18R18703   2.054   4.955   8.896 -0.8782 -1.1638  1.5461
  166SOPE  H18S18704   2.203   4.936   9.015 -0.8857  0.1818  0.2143
  166SOPE  H18T18705   2.189   5.071   8.908  0.7908  0.6082  0.1514
  166SOPE   C3318706   2.416   5.492  10.278 -0.2378 -0.0305  0.3558
  166SOPE   H3X18707   2.348   5.432  10.343 -2.2111  0.4392 -1.2092
  166SOPE   H3Y18708   2.518   5.486  10.321 -0.1359  1.2869  0.3148
  166SOPE   C3418709   2.415   5.421  10.140 -0.4379  0.4847  0.2452
  166SOPE   H4X18710   2.436   5.313  10.154 -2.3653  0.1042  0.3893
  166SOPE   H4Y18711   2.495   5.458  10.072 -1.7455 -2.6609 -3.1309
  166SOPE   C3518712   2.280   5.424  10.069  0.1604 -0.4029 -0.7965
  166SOPE   H5X18713   2.260   5.531  10.044  0.5320  0.1739  1.3142
  166SOPE   H5Y18714   2.207   5.396  10.147  0.5294 -0.0046 -0.3089
  166SOPE   C3618715   2.268   5.336   9.943 -0.0417 -0.7151  0.1798
  166SOPE   H6X18716   2.164   5.316   9.909 -0.6421  1.6316  0.5332
  166SOPE   H6Y18717   2.320   5.238   9.948 -0.4312 -1.0494 -1.8099
  166SOPE   C3718718   2.337   5.411   9.826  1.0296  0.2380 -0.6093
  166SOPE   H7X18719   2.443   5.437   9.848  0.4849  2.0816 -0.1295
  166SOPE   H7Y18720   2.304   5.515   9.811  1.1775  0.7927  2.6311
  166SOPE   C3818721   2.324   5.331   9.698 -0.6257  0.3389  1.0811
  166SOPE   H8X18722   2.227   5.279   9.683 -1.3974  2.1301 -0.4259
  166SOPE   H8Y18723   2.397   5.248   9.703  0.1206  0.9721  0.6522
  166SOPE   C3918724   2.330   5.416   9.568 -0.2279  0.3584  0.5813
  166SOPE   H9X18725   2.410   5.492   9.581  0.4590 -0.0467 -1.1581
  166SOPE   H9Y18726   2.237   5.476   9.578  0.5021  1.3257  1.6592
  166SOPE  C31018727   2.351   5.341   9.436 -0.5085  0.0517  0.8414
  166SOPE  H10X18728   2.263   5.274   9.423  0.3521 -0.5699 -2.1120
  166SOPE  H10Y18729   2.448   5.290   9.449 -0.2628  0.1604 -0.5500
  166SOPE  C31118730   2.358   5.445   9.323 -0.0455 -1.1527  0.0299
  166SOPE  H11X18731   2.432   5.523   9.351 -0.5020 -0.2067 -1.3041
  166SOPE  H11Y18732   2.259   5.495   9.316  0.1691 -0.7603 -0.2412
  166SOPE  C31218733   2.391   5.380   9.188  0.7389 -0.5061 -0.2089
  166SOPE  H12X18734   2.316   5.300   9.175 -1.6379  1.8313 -1.2441
  166SOPE  H12Y18735   2.486   5.323   9.191 -1.4141 -4.3078 -1.6877
  166SOPE  C31318736   2.393   5.470   9.066 -0.1336  0.2877  0.3829
  166SOPE  H13X18737   2.421   5.407   8.979 -1.5371 -0.8254  0.7388
  166SOPE  H13Y18738   2.476   5.543   9.083  2.2882 -1.8942 -1.6183
  166SOPE  C31418739   2.263   5.540   9.034  0.1612 -0.3074  0.3415
  166SOPE  H14X18740   2.294   5.612   8.955 -1.0757  0.0918  0.2039
  166SOPE  H14Y18741   2.236   5.602   9.122  0.3427 -0.4614  0.5051
  166SOPE  C31518742   2.151   5.450   8.989  0.2434  0.3503 -0.2057
  166SOPE  H15X18743   2.050   5.496   9.002 -0.0452 -0.0891 -0.8348
  166SOPE  H15Y18744   2.152   5.357   9.050  0.5683 -1.0183 -2.2258
  166SOPE  C31618745   2.169   5.406   8.841 -0.5421 -0.2136 -0.3857
  166SOPE  H16X18746   2.244   5.324   8.847 -2.0899 -1.6002  0.4961
  166SOPE  H16Y18747   2.197   5.496   8.782  2.5472 -2.6875 -2.8578
  166SOPE  C31718748   2.037   5.356   8.774  0.1313  0.2733 -0.1609
  166SOPE  H17X18749   1.969   5.444   8.764  0.9104  1.0080  0.9129
  166SOPE  H17Y18750   1.989   5.273   8.829  3.4373 -0.8087  1.1609
  166SOPE  C31818751   2.072   5.301   8.634 -0.6233 -0.5495 -0.3585
  166SOPE  H18X18752   2.182   5.287   8.626 -0.6421 -0.2085 -1.2612
  166SOPE  H18Y18753   2.026   5.352   8.547 -2.2973 -1.4553 -0.0168
  166SOPE  H18Z18754   2.025   5.200   8.632 -1.7599 -0.0156 -1.3373
  167SOPE     N18755   3.970   3.810   5.825  0.4280 -0.3829  0.1268
  167SOPE   HN118756   3.933   3.715   5.802  1.8207 -0.5925 -1.3306
  167SOPE   HN218757   3.936   3.871   5.748  2.8136 -0.3443 -0.9289
  167SOPE   HN318758   4.074   3.814   5.823  0.3675  0.8773 -0.5528
  167SOPE   C1218759   3.924   3.850   5.962  0.0800 -0.4193 -0.6116
  167SOPE  H12A18760   3.813   3.859   5.953  0.2745  0.2774 -2.6537
  167SOPE  H12B18761   3.960   3.954   5.976 -2.4670  0.6781 -1.8141
  167SOPE   C1118762   3.987   3.764   6.071 -0.1302  0.0752 -0.4955
  167SOPE  H11A18763   3.933   3.788   6.166  0.2385  0.2905 -0.3416
  167SOPE  H11B18764   4.092   3.797   6.084 -0.7493  1.9209  0.0170
  167SOPE     P18765   4.096   3.525   6.060 -0.0637 -0.0471 -0.1838
  167SOPE   O1318766   4.216   3.603   6.027 -0.2813  0.4100  0.3407
  167SOPE   O1418767   4.081   3.399   5.989 -0.4247  0.0651  0.0782
  167SOPE   O1218768   3.980   3.629   6.038  0.4313  0.1389 -0.0058
  167SOPE   O1118769   4.094   3.503   6.218  0.1020 -0.1248  0.3054
  167SOPE    C118770   3.986   3.494   6.303  0.1254  0.3884 -0.1899
  167SOPE    HA18771   3.901   3.450   6.248 -0.6646 -0.7278  1.8589
  167SOPE    HB18772   3.961   3.600   6.326  1.2807  0.7873 -0.7166
  167SOPE    C218773   4.020   3.407   6.432  0.3818  0.0700 -0.2248
  167SOPE    HS18774   4.012   3.300   6.402 -1.5079 -0.4518  1.9622
  167SOPE   O2118775   3.919   3.423   6.534  0.1676  0.6313  0.8875
  167SOPE   C2118776   3.810   3.348   6.519  0.4832 -0.5177 -0.4738
  167SOPE   O2218777   3.804   3.256   6.438  0.2127  0.4566  0.0167
  167SOPE   C2218778   3.694   3.393   6.609  0.0808  1.1850  0.9952
  167SOPE   H2R18779   3.638   3.303   6.643  1.9681 -0.9837 -1.4550
  167SOPE   H2S18780   3.617   3.433   6.540 -1.3715 -1.4560  1.0275
  167SOPE    C318781   4.159   3.444   6.486 -0.1791 -0.4965 -0.1640
  167SOPE    HX18782   4.166   3.555   6.494  0.4326 -0.2447 -3.6184
  167SOPE    HY18783   4.221   3.407   6.402 -0.0426 -0.2810 -0.1588
  167SOPE   O3118784   4.194   3.374   6.610 -0.5365 -0.2660  0.3597
  167SOPE   C3118785   4.308   3.424   6.655 -0.7382 -0.3374  0.0071
  167SOPE   O3218786   4.386   3.498   6.599  0.1424  0.3549  0.1720
  167SOPE   C3218787   4.329   3.360   6.790  0.2808 -0.3575  0.0910
  167SOPE   H2X18788   4.414   3.417   6.833 -0.8180  1.0541  0.4433
  167SOPE   H2Y18789   4.361   3.255   6.771  2.4466  0.4625 -0.9706
  167SOPE   C2318790   3.727   3.477   6.729  0.6163 -0.2419 -0.6503
  167SOPE   H3R18791   3.778   3.566   6.688  0.2255  0.8131  1.0605
  167SOPE   H3S18792   3.791   3.413   6.794  0.8644  0.4711 -0.1782
  167SOPE   C2418793   3.609   3.518   6.812  0.0016  0.1912  0.2861
  167SOPE   H4R18794   3.530   3.565   6.750 -1.0597 -1.0028  0.7056
  167SOPE   H4S18795   3.564   3.424   6.850  1.2467 -0.6866 -0.3586
  167SOPE   C2518796   3.634   3.601   6.942  0.3077  0.6786 -0.9319
  167SOPE   H5R18797   3.683   3.698   6.916 -1.0365  1.7027  0.2491
  167SOPE   H5S18798   3.537   3.631   6.988  1.2364  2.3214  0.0006
  167SOPE   C2618799   3.695   3.511   7.052  0.0840 -0.3997 -0.0634
  167SOPE   H6R18800   3.622   3.432   7.078  1.0856 -1.1344  0.5394
  167SOPE   H6S18801   3.775   3.452   7.003  0.5954  0.4042 -0.2038
  167SOPE   C2718802   3.742   3.596   7.170  0.1851 -0.6302  0.6307
  167SOPE   H7R18803   3.810   3.674   7.129 -0.3462  0.8377  2.4741
  167SOPE   H7S18804   3.649   3.636   7.215  0.1324 -0.7455  0.6231
  167SOPE   C2818805   3.820   3.522   7.276  0.5102 -0.2342  0.5348
  167SOPE   H8R18806   3.739   3.456   7.315 -0.3955 -0.1038 -1.0736
  167SOPE   H8S18807   3.901   3.456   7.237  1.6831  1.7570 -0.4593
  167SOPE   C2918808   3.865   3.608   7.389 -0.2496 -0.3935 -0.4578
  167SOPE   H9118809   3.932   3.689   7.355 -0.8734  0.9691  1.4786
  167SOPE  C21018810   3.833   3.621   7.516 -0.2858  0.5003 -0.2499
  167SOPE  H10118811   3.879   3.700   7.576  1.4456 -2.1250  2.0223
  167SOPE  C21118812   3.735   3.532   7.596 -0.5423  1.0296  0.2272
  167SOPE  H11R18813   3.696   3.457   7.525 -2.0202  1.1560  0.8774
  167SOPE  H11S18814   3.649   3.586   7.642 -1.8893 -1.6843  1.0099
  167SOPE  C21218815   3.805   3.469   7.721 -0.1692  0.0250  0.4530
  167SOPE  H12R18816   3.900   3.417   7.694 -1.1061 -0.1663 -2.7715
  167SOPE  H12S18817   3.741   3.384   7.754 -1.2937  0.5931 -0.2252
  167SOPE  C21318818   3.809   3.566   7.835  0.0124 -0.0180  0.2829
  167SOPE  H13R18819   3.706   3.595   7.865  0.6141  2.2569  0.2329
  167SOPE  H13S18820   3.858   3.661   7.806  0.6603 -0.5248 -0.3203
  167SOPE  C21418821   3.869   3.507   7.964  0.3715 -0.1178  0.0352
  167SOPE  H14R18822   3.976   3.486   7.944  0.8695  2.6465 -0.4846
  167SOPE  H14S18823   3.809   3.417   7.987  2.6645 -1.2171  1.9354
  167SOPE  C21518824   3.865   3.596   8.090 -0.6719 -0.4566 -0.2092
  167SOPE  H15R18825   3.760   3.587   8.124 -0.6046 -1.7298 -0.2986
  167SOPE  H15S18826   3.878   3.703   8.065 -0.5329 -0.7543 -1.4607
  167SOPE  C21618827   3.954   3.539   8.197 -0.3067  0.0146 -0.5304
  167SOPE  H16R18828   4.061   3.555   8.172 -0.9374  3.0375 -1.4421
  167SOPE  H16S18829   3.937   3.429   8.199  0.1939 -0.0707 -0.8221
  167SOPE  C21718830   3.919   3.592   8.337  0.0419  0.3675  0.0663
  167SOPE  H17R18831   3.926   3.702   8.336  2.1451  0.2574 -0.4984
  167SOPE  H17S18832   3.995   3.556   8.409  0.7820 -0.1375 -0.9386
  167SOPE  C21818833   3.785   3.545   8.390  0.7978 -0.1064  0.2644
  167SOPE  H18R18834   3.698   3.579   8.330  0.3507 -1.6998 -0.0249
  167SOPE  H18S18835   3.764   3.588   8.490  1.7932 -0.1697  0.5099
  167SOPE  H18T18836   3.782   3.434   8.389  3.3458 -0.1838 -1.5880
  167SOPE   C3318837   4.218   3.368   6.893  0.1062  0.9723  0.0604
  167SOPE   H3X18838   4.117   3.337   6.862  1.3984 -1.8159 -1.4775
  167SOPE   H3Y18839   4.218   3.478   6.909 -0.1100  0.7184  1.9254
  167SOPE   C3418840   4.250   3.298   7.028  0.2520  0.5927 -0.3222
  167SOPE   H4X18841   4.359   3.293   7.047 -0.1038 -2.6020  1.1682
  167SOPE   H4Y18842   4.212   3.195   7.041 -0.3540  0.9602  0.9094
  167SOPE   C3518843   4.181   3.370   7.148  0.3334  0.6513 -0.1458
  167SOPE   H5X18844   4.071   3.367   7.131  0.2987 -2.0984  0.3348
  167SOPE   H5Y18845   4.212   3.477   7.142  1.4514  0.3045 -0.6568
  167SOPE   C3618846   4.212   3.308   7.283  0.4338 -0.7451  0.3725
  167SOPE   H6X18847   4.321   3.284   7.281  0.8995  1.3194 -2.0051
  167SOPE   H6Y18848   4.155   3.216   7.305 -1.1296 -0.2765 -1.6568
  167SOPE   C3718849   4.183   3.404   7.399 -0.0217 -0.1163 -0.2391
  167SOPE   H7X18850   4.092   3.459   7.366  0.4641  0.7513 -0.1528
  167SOPE   H7Y18851   4.256   3.488   7.406 -0.9330  0.5908  1.0882
  167SOPE   C3818852   4.169   3.334   7.546  0.2953  0.6202 -0.3235
  167SOPE   H8X18853   4.240   3.249   7.552 -0.1400  0.4477  3.0528
  167SOPE   H8Y18854   4.064   3.299   7.547  0.2660  0.6935 -0.7287
  167SOPE   C3918855   4.184   3.422   7.669  0.5435 -0.1267 -0.1444
  167SOPE   H9X18856   4.108   3.503   7.669 -0.3197 -0.9279 -0.4732
  167SOPE   H9Y18857   4.288   3.460   7.673  1.0440 -1.4583 -0.4061
  167SOPE  C31018858   4.176   3.335   7.796  0.5668  0.0763  0.2391
  167SOPE  H10X18859   4.230   3.240   7.776  0.8303  0.0025  1.2651
  167SOPE  H10Y18860   4.072   3.305   7.820 -0.3014  0.5236 -2.7804
  167SOPE  C31118861   4.246   3.392   7.925 -0.1630 -0.1724  0.0391
  167SOPE  H11X18862   4.189   3.484   7.952 -0.2433  0.6102 -2.6898
  167SOPE  H11Y18863   4.351   3.415   7.899 -0.5267  0.6902 -0.6774
  167SOPE  C31218864   4.245   3.311   8.049  1.0672 -0.2264 -0.7554
  167SOPE  H12X18865   4.260   3.210   8.007  2.1334 -0.0475 -0.8095
  167SOPE  H12Y18866   4.151   3.323   8.108  1.6207 -0.7558  0.2346
  167SOPE  C31318867   4.359   3.335   8.145  0.8566 -1.0764  0.1553
  167SOPE  H13X18868   4.365   3.440   8.181 -1.0421 -1.7068  2.4524
  167SOPE  H13Y18869   4.451   3.306   8.090  1.8550  0.5970  0.9178
  167SOPE  C31418870   4.355   3.257   8.273 -0.2060 -0.1090 -0.0922
  167SOPE  H14X18871   4.451   3.239   8.326 -1.0903  0.7469  1.8367
  167SOPE  H14Y18872   4.313   3.156   8.253 -2.2580  0.4250  1.3868
  167SOPE  C31518873   4.263   3.335   8.366 -0.0375 -0.1973  0.3645
  167SOPE  H15X18874   4.186   3.399   8.318  2.5516  1.8429 -1.1475
  167SOPE  H15Y18875   4.333   3.405   8.416 -1.2510 -1.6294  4.2980
  167SOPE  C31618876   4.194   3.243   8.469  0.4808 -0.6313 -0.0911
  167SOPE  H16X18877   4.129   3.168   8.420  0.0235  0.0663 -0.5649
  167SOPE  H16Y18878   4.133   3.300   8.542  0.4093  0.6307 -1.1214
  167SOPE  C31718879   4.297   3.161   8.554  0.1341 -0.1068 -0.1661
  167SOPE  H17X18880   4.317   3.216   8.648  0.7405  0.6495 -0.7338
  167SOPE  H17Y18881   4.396   3.139   8.509 -1.4465 -1.6006 -3.0344
  167SOPE  C31818882   4.229   3.023   8.575  0.0766 -0.0815  0.1101
  167SOPE  H18X18883   4.236   2.973   8.476 -0.0075 -0.4970  0.3158
  167SOPE  H18Y18884   4.130   3.037   8.622  1.0706 -0.9278  2.5578
  167SOPE  H18Z18885   4.284   2.953   8.641 -0.2397  0.3290  0.8119
  168SOPE     N18886   3.773   0.410   6.088  0.3491 -0.3199 -0.6227
  168SOPE   HN118887   3.675   0.428   6.058  0.4916 -2.6709 -2.6132
  168SOPE   HN218888   3.801   0.334   6.023  1.7473  0.5886 -1.1135
  168SOPE   HN318889   3.766   0.369   6.183 -1.3071  1.9929  0.3044
  168SOPE   C1218890   3.875   0.519   6.085  0.7042 -0.5145 -0.1130
  168SOPE  H12A18891   3.841   0.604   6.148  0.9179 -1.4164  1.2562
  168SOPE  H12B18892   3.884   0.553   5.980  0.2362  1.9122  0.6015
  168SOPE   C1118893   4.006   0.472   6.159 -0.3593 -0.0959  0.6048
  168SOPE  H11A18894   4.031   0.377   6.108  1.7115  0.5876  0.2986
  168SOPE  H11B18895   3.983   0.474   6.268  1.6751 -1.1220  1.0790
  168SOPE     P18896   4.134   0.699   6.210 -0.1207 -0.4269  0.2116
  168SOPE   O1318897   4.008   0.775   6.223 -0.2892 -0.5602 -0.5110
  168SOPE   O1418898   4.249   0.756   6.138  0.4063 -0.4085 -0.2793
  168SOPE   O1218899   4.102   0.571   6.129 -0.1368  0.0697 -0.2465
  168SOPE   O1118900   4.172   0.655   6.355  0.3624  0.3380 -0.4790
  168SOPE    C118901   4.250   0.534   6.376  0.3498 -0.0285  0.4027
  168SOPE    HA18902   4.324   0.521   6.293  1.3532  4.0746  0.5753
  168SOPE    HB18903   4.191   0.441   6.387  1.0512 -0.8470 -2.2851
  168SOPE    C218904   4.359   0.548   6.496  0.2544 -0.0355  0.4354
  168SOPE    HS18905   4.431   0.463   6.492  0.7720  0.3900  0.6154
  168SOPE   O2118906   4.292   0.559   6.621  0.6718  0.6280  0.3735
  168SOPE   C2118907   4.254   0.439   6.660 -0.5148  0.7949 -0.2922
  168SOPE   O2218908   4.276   0.331   6.605 -0.0965  0.4512 -0.4279
  168SOPE   C2218909   4.170   0.464   6.790 -0.2739  0.0605 -0.6663
  168SOPE   H2R18910   4.082   0.524   6.759  0.8113 -0.4296 -5.0457
  168SOPE   H2S18911   4.226   0.529   6.860 -0.0819  0.6040 -1.3152
  168SOPE    C318912   4.448   0.672   6.468 -0.2463 -0.1627 -0.1873
  168SOPE    HX18913   4.385   0.763   6.467 -0.8808 -0.5092  2.6618
  168SOPE    HY18914   4.506   0.659   6.374  2.1619 -0.7519  1.3243
  168SOPE   O3118915   4.553   0.686   6.572 -0.7202 -0.0880 -0.3562
  168SOPE   C3118916   4.518   0.745   6.686  0.3022 -0.7444  0.8821
  168SOPE   O3218917   4.409   0.790   6.716  0.5171 -0.1212 -0.5473
  168SOPE   C3218918   4.641   0.766   6.763 -0.5764  0.1310  0.4824
  168SOPE   H2X18919   4.647   0.869   6.805 -0.0007  0.7857 -1.1952
  168SOPE   H2Y18920   4.731   0.763   6.698  1.2607  4.4490  2.6238
  168SOPE   C2318921   4.113   0.332   6.841  0.0219  0.9683  0.6785
  168SOPE   H3R18922   4.073   0.264   6.763  1.1759 -1.0149  1.7676
  168SOPE   H3S18923   4.020   0.362   6.895 -1.6981 -0.7809 -1.2060
  168SOPE   C2418924   4.195   0.253   6.926 -0.2865 -0.0797  0.4857
  168SOPE   H4R18925   4.297   0.250   6.882  0.2246 -0.5290  1.6664
  168SOPE   H4S18926   4.198   0.300   7.027 -0.0615 -0.2784  0.5728
  168SOPE   C2518927   4.152   0.103   6.936 -0.3284  0.5272 -0.0641
  168SOPE   H5R18928   4.062   0.082   6.874 -0.9653 -0.4257  1.1586
  168SOPE   H5S18929   4.235   0.042   6.894  1.9109  2.4472  1.4321
  168SOPE   C2618930   4.132   0.053   7.081  0.0639 -1.1106 -0.1857
  168SOPE   H6R18931   4.229   0.036   7.131 -0.2118 -0.7686  0.4705
  168SOPE   H6S18932   4.070   0.133   7.126  2.2533  1.2142 -1.1582
  168SOPE   C2718933   4.049  -0.073   7.084 -0.4688 -0.1007  0.0575
  168SOPE   H7R18934   3.955  -0.043   7.033 -1.9543  0.2457  2.9006
  168SOPE   H7S18935   4.106  -0.149   7.027  0.7414  0.6588  0.2251
  168SOPE   C2818936   4.023  -0.119   7.225 -0.4764  0.0386 -0.3243
  168SOPE   H8R18937   4.118  -0.157   7.271 -2.1612 -0.3235  3.0414
  168SOPE   H8S18938   3.981  -0.037   7.286 -1.3896 -0.7645  0.1505
  168SOPE   C2918939   3.912  -0.222   7.222 -0.7388  0.3387 -0.2210
  168SOPE   H9118940   3.874  -0.253   7.123 -1.1466  0.6108 -0.1517
  168SOPE  C21018941   3.861  -0.275   7.333  0.1411 -0.0125 -0.7465
  168SOPE  H10118942   3.775  -0.344   7.335 -1.0425  1.4767  1.0484
  168SOPE  C21118943   3.906  -0.244   7.475 -0.1585 -0.3514 -0.9840
  168SOPE  H11R18944   3.983  -0.164   7.474 -1.7128  1.1938  0.3723
  168SOPE  H11S18945   3.946  -0.341   7.511 -0.3231 -0.3805 -0.8798
  168SOPE  C21218946   3.786  -0.198   7.564 -0.0533 -0.8070 -0.0394
  168SOPE  H12R18947   3.735  -0.126   7.497  2.9418  0.1091 -1.4226
  168SOPE  H12S18948   3.824  -0.132   7.645 -1.8773  0.8013 -0.4490
  168SOPE  C21318949   3.690  -0.313   7.603 -0.1572  0.2568  0.8817
  168SOPE  H13R18950   3.750  -0.384   7.663 -0.0579  0.3269  0.8653
  168SOPE  H13S18951   3.648  -0.370   7.517 -0.0470 -0.8485  1.5470
  168SOPE  C21418952   3.581  -0.266   7.700 -0.1021 -0.2174 -0.1850
  168SOPE  H14R18953   3.523  -0.357   7.731  0.4038 -0.5495 -0.2084
  168SOPE  H14S18954   3.505  -0.212   7.640 -0.2728 -0.1553  0.0850
  168SOPE  C21518955   3.621  -0.187   7.826  0.2709 -0.2736 -0.1121
  168SOPE  H15R18956   3.637  -0.084   7.785 -2.4065  0.8542  1.5477
  168SOPE  H15S18957   3.714  -0.223   7.876  0.4338 -0.1157 -0.3021
  168SOPE  C21618958   3.513  -0.184   7.928  0.6216 -0.5716  0.5945
  168SOPE  H16R18959   3.551  -0.105   7.997 -0.1225  1.7125 -1.5140
  168SOPE  H16S18960   3.507  -0.275   7.991 -2.7131 -2.2085 -1.9614
  168SOPE  C21718961   3.368  -0.148   7.890 -0.6217  0.3563  0.2556
  168SOPE  H17R18962   3.320  -0.223   7.824  1.0140 -0.4458 -0.0404
  168SOPE  H17S18963   3.388  -0.061   7.824  1.6185 -0.8047 -0.6635
  168SOPE  C21818964   3.277  -0.112   8.003  0.1322 -0.3114 -0.4189
  168SOPE  H18R18965   3.321  -0.025   8.056  1.1092 -1.9654  1.5822
  168SOPE  H18S18966   3.272  -0.195   8.078  2.5053  0.5856  0.7997
  168SOPE  H18T18967   3.177  -0.088   7.962  0.0013  2.1795  1.2791
  168SOPE   C3318968   4.657   0.656   6.867 -0.9665 -0.2404 -0.0913
  168SOPE   H3X18969   4.743   0.680   6.933 -1.1326  0.6418 -0.1808
  168SOPE   H3Y18970   4.690   0.568   6.808 -0.2696  0.0929 -0.2077
  168SOPE   C3418971   4.545   0.627   6.959 -0.0751 -0.0809  0.4151
  168SOPE   H4X18972   4.457   0.603   6.895  0.2903 -1.5869  0.4575
  168SOPE   H4Y18973   4.527   0.717   7.022 -1.1803  0.4410 -0.6061
  168SOPE   C3518974   4.568   0.506   7.047  0.0169 -0.4207  0.6841
  168SOPE   H5X18975   4.673   0.517   7.081  0.5022  0.3378 -0.9770
  168SOPE   H5Y18976   4.559   0.413   6.986  0.4361 -0.4133  0.6099
  168SOPE   C3618977   4.467   0.493   7.155  0.6287 -0.0470 -0.0515
  168SOPE   H6X18978   4.368   0.504   7.105  0.7791 -2.4217 -0.9130
  168SOPE   H6Y18979   4.488   0.574   7.229 -1.7048  1.6376 -1.1461
  168SOPE   C3718980   4.483   0.361   7.231  0.0485  0.5770  0.1746
  168SOPE   H7X18981   4.583   0.375   7.277 -0.2604 -2.0434  1.7467
  168SOPE   H7Y18982   4.491   0.276   7.160  2.9436  1.0040 -0.0809
  168SOPE   C3818983   4.374   0.341   7.333 -0.7417  0.2548  0.0484
  168SOPE   H8X18984   4.282   0.375   7.280 -0.2714  2.1768  0.4595
  168SOPE   H8Y18985   4.408   0.405   7.417 -2.3829  0.0991  0.8636
  168SOPE   C3918986   4.351   0.204   7.397 -0.0285  0.0919 -0.3617
  168SOPE   H9X18987   4.437   0.168   7.458  0.0615 -1.2637 -1.2548
  168SOPE   H9Y18988   4.326   0.125   7.324 -1.4885  1.4727 -1.3864
  168SOPE  C31018989   4.225   0.202   7.489 -0.1996 -0.2315 -0.3071
  168SOPE  H10X18990   4.136   0.235   7.432 -1.0178 -0.0852  1.0370
  168SOPE  H10Y18991   4.235   0.286   7.561 -1.8763 -0.4439  0.1782
  168SOPE  C31118992   4.189   0.061   7.542 -0.1713  0.1419 -0.3638
  168SOPE  H11X18993   4.177  -0.010   7.458 -1.5389 -1.9223  1.5131
  168SOPE  H11Y18994   4.085   0.076   7.579  0.4758 -1.6980  2.3448
  168SOPE  C31218995   4.279   0.013   7.652 -0.3707 -0.3254  0.2360
  168SOPE  H12X18996   4.382   0.011   7.611 -0.5915  0.4466 -0.3726
  168SOPE  H12Y18997   4.243  -0.089   7.676 -0.0429 -0.4077  0.3709
  168SOPE  C31318998   4.291   0.091   7.788 -0.0632 -0.6025  0.6896
  168SOPE  H13X18999   4.190   0.085   7.832 -1.1501 -0.3484 -1.6818
  168SOPE  H13Y19000   4.308   0.199   7.767  2.1042 -0.5971  2.3374
  168SOPE  C31419001   4.399   0.027   7.874 -0.3994 -0.0321  0.1451
  168SOPE  H14X19002   4.489   0.006   7.813 -2.5080 -3.1413 -2.0257
  168SOPE  H14Y19003   4.354  -0.070   7.903 -1.3265  0.1704 -0.5927
  168SOPE  C31519004   4.424   0.107   8.001 -0.2465 -0.3282  0.1782
  168SOPE  H15X19005   4.333   0.123   8.063 -1.2832 -0.5946 -1.2496
  168SOPE  H15Y19006   4.439   0.213   7.969 -2.3445 -0.6503 -2.0116
  168SOPE  C31619007   4.536   0.061   8.093 -0.2208 -0.5707 -0.5540
  168SOPE  H16X19008   4.581   0.141   8.155  0.2733 -0.1581 -1.4400
  168SOPE  H16Y19009   4.621   0.037   8.025 -0.3359  1.2327 -1.3476
  168SOPE  C31719010   4.512  -0.063   8.179 -0.4601 -0.2293  0.1748
  168SOPE  H17X19011   4.606  -0.092   8.231  0.2554 -2.7411 -2.4063
  168SOPE  H17Y19012   4.492  -0.152   8.116 -1.4368 -1.7319  2.5260
  168SOPE  C31819013   4.395  -0.042   8.284 -0.4140 -0.0366 -0.7040
  168SOPE  H18X19014   4.387  -0.136   8.343  3.4988  1.2824  2.1035
  168SOPE  H18Y19015   4.313  -0.008   8.217  0.0573 -0.3381 -1.4406
  168SOPE  H18Z19016   4.419   0.033   8.363 -2.2183  0.1089 -0.2627
  169SOPE     N19017   5.798   3.085   6.335  0.0457  0.7474  0.1153
  169SOPE   HN119018   5.744   3.159   6.286 -2.2196 -1.0908 -0.2565
  169SOPE   HN219019   5.890   3.126   6.359 -0.1068  1.1093  0.0802
  169SOPE   HN319020   5.802   3.007   6.266 -1.7306  1.2174 -0.5455
  169SOPE   C1219021   5.723   3.033   6.461 -0.8605 -0.2990  0.0180
  169SOPE  H12A19022   5.616   3.024   6.431 -0.0401 -2.0987 -2.5386
  169SOPE  H12B19023   5.720   3.115   6.536 -1.9463  0.2775 -0.6417
  169SOPE   C1119024   5.775   2.891   6.507  0.0813 -0.4787  0.3000
  169SOPE  H11A19025   5.703   2.855   6.584  0.8837  0.1845  1.3670
  169SOPE  H11B19026   5.873   2.916   6.552 -1.6436  1.2590  3.2757
  169SOPE     P19027   5.904   2.704   6.404 -0.3052 -0.2239 -0.0173
  169SOPE   O1319028   6.022   2.791   6.383  0.1386  0.7256 -0.6979
  169SOPE   O1419029   5.885   2.585   6.314 -0.5097 -0.2095 -0.0400
  169SOPE   O1219030   5.778   2.796   6.406 -0.1802  0.2788 -0.0091
  169SOPE   O1119031   5.909   2.660   6.551  0.4587  0.5354  0.2569
  169SOPE    C119032   6.030   2.634   6.625  0.1400 -0.6356 -0.4098
  169SOPE    HA19033   6.111   2.697   6.581  1.0700 -0.4894  1.4403
  169SOPE    HB19034   6.055   2.526   6.618  0.0095 -0.6210 -1.2166
  169SOPE    C219035   6.024   2.678   6.776  0.3160  0.0600  0.4208
  169SOPE    HS19036   6.128   2.693   6.812  0.6287 -1.5423  0.2417
  169SOPE   O2119037   5.957   2.578   6.852  0.1985 -0.4808  0.0238
  169SOPE   C2119038   6.023   2.460   6.867  0.5791  0.0271  0.2945
  169SOPE   O2219039   6.132   2.435   6.813  0.0190 -0.4452 -0.4644
  169SOPE   C2219040   5.933   2.362   6.930  0.1358 -0.0962 -0.9589
  169SOPE   H2R19041   5.903   2.289   6.852 -2.6159  0.6813 -0.6915
  169SOPE   H2S19042   5.848   2.421   6.971  0.2590 -0.7468  0.2518
  169SOPE    C319043   5.945   2.809   6.804  0.3874 -0.2183 -0.8653
  169SOPE    HX19044   5.849   2.799   6.748 -0.2153  0.7971 -0.0361
  169SOPE    HY19045   6.005   2.893   6.763  3.0034 -2.2568 -1.3067
  169SOPE   O3119046   5.912   2.831   6.947  0.2294  0.2503  0.1874
  169SOPE   C3119047   6.018   2.871   7.018 -0.4314  0.2530 -0.4193
  169SOPE   O3219048   6.128   2.894   6.970 -0.2916  0.1882  0.5938
  169SOPE   C3219049   5.985   2.866   7.166  0.2430  0.2160 -0.5349
  169SOPE   H2X19050   5.885   2.915   7.166  1.0938  1.9947 -0.0347
  169SOPE   H2Y19051   6.065   2.929   7.210  0.2646 -0.4945  0.4628
  169SOPE   C2319052   6.011   2.280   7.034 -0.2289  0.5500  0.0550
  169SOPE   H3R19053   6.109   2.241   6.999 -0.2743 -1.0592  1.6759
  169SOPE   H3S19054   5.950   2.191   7.060  0.2140  0.0293 -0.6693
  169SOPE   C2419055   6.027   2.362   7.163 -0.2778  0.2415 -0.4583
  169SOPE   H4R19056   6.092   2.450   7.147 -0.4577  1.0158  2.7785
  169SOPE   H4S19057   5.931   2.412   7.188 -0.1833 -0.0050  0.4026
  169SOPE   C2519058   6.065   2.272   7.279  0.4176  0.6880  0.4347
  169SOPE   H5R19059   5.983   2.198   7.278  0.4318  0.6529  1.4620
  169SOPE   H5S19060   6.166   2.230   7.259 -0.3384 -0.7609 -0.3658
  169SOPE   C2619061   6.060   2.340   7.411  0.3620  0.4332 -0.2608
  169SOPE   H6R19062   6.139   2.417   7.423 -0.5103  1.1090  1.2481
  169SOPE   H6S19063   5.958   2.383   7.420 -0.6133 -1.8300 -0.1321
  169SOPE   C2719064   6.075   2.232   7.521  0.3822 -0.1994  0.1737
  169SOPE   H7R19065   5.988   2.164   7.513  0.0901  0.2560 -0.6505
  169SOPE   H7S19066   6.160   2.172   7.481  1.4244 -0.3311  2.5029
  169SOPE   C2819067   6.101   2.284   7.664 -0.2074  0.1589  0.4286
  169SOPE   H8R19068   6.139   2.206   7.733 -2.8222 -0.5259  1.1342
  169SOPE   H8S19069   6.184   2.357   7.654  1.3525 -1.7963 -1.2198
  169SOPE   C2919070   5.982   2.348   7.726  0.4074  0.2871  0.3193
  169SOPE   H9119071   5.938   2.416   7.652  1.7259  0.7539 -0.0576
  169SOPE  C21019072   5.929   2.338   7.849 -0.4089 -0.2564  0.0455
  169SOPE  H10119073   5.847   2.410   7.858 -1.6694 -1.7157  0.2648
  169SOPE  C21119074   5.974   2.270   7.978 -0.0787  0.7994  0.5202
  169SOPE  H11R19075   6.052   2.194   7.955 -0.8204  0.6627 -1.6638
  169SOPE  H11S19076   5.888   2.221   8.028 -2.4615  1.8314 -2.4259
  169SOPE  C21219077   6.024   2.366   8.089 -0.2587 -0.1878 -0.2023
  169SOPE  H12R19078   5.941   2.427   8.130 -1.2661 -0.8004 -1.2971
  169SOPE  H12S19079   6.106   2.431   8.049  0.2608 -0.8576 -0.2265
  169SOPE  C21319080   6.076   2.285   8.207  0.1858 -0.3475 -0.3947
  169SOPE  H13R19081   5.992   2.239   8.263 -1.2905  0.6518 -1.7237
  169SOPE  H13S19082   6.110   2.368   8.272 -0.4050 -1.9314  2.0148
  169SOPE  C21419083   6.203   2.201   8.177  0.5594 -0.4673 -0.0562
  169SOPE  H14R19084   6.275   2.256   8.114  1.5170 -0.9646  0.5808
  169SOPE  H14S19085   6.188   2.101   8.130  2.0341 -2.0757  2.7165
  169SOPE  C21519086   6.287   2.170   8.300  0.4447  0.7511 -0.9173
  169SOPE  H15R19087   6.314   2.266   8.349 -1.7624  0.8172  0.1967
  169SOPE  H15S19088   6.379   2.113   8.276  0.4876  0.5080 -0.1846
  169SOPE  C21619089   6.212   2.084   8.412 -0.3414 -0.0730  0.5422
  169SOPE  H16R19090   6.114   2.134   8.426 -0.5347 -0.3192  0.1016
  169SOPE  H16S19091   6.257   2.085   8.513 -0.5360  1.7259  0.6359
  169SOPE  C21719092   6.198   1.929   8.376  0.0967 -0.9819  0.3786
  169SOPE  H17R19093   6.300   1.894   8.349 -0.5850 -0.9845 -2.3239
  169SOPE  H17S19094   6.128   1.922   8.290  2.1568 -1.4789 -1.2966
  169SOPE  C21819095   6.139   1.849   8.491  0.0453 -0.5812  0.3311
  169SOPE  H18R19096   6.053   1.902   8.537 -0.5412 -1.1278 -0.1249
  169SOPE  H18S19097   6.219   1.819   8.563  0.8330  2.9397  1.0237
  169SOPE  H18T19098   6.093   1.755   8.455  0.5569 -1.4132  1.7981
  169SOPE   C3319099   5.982   2.721   7.225 -0.0608 -0.1513  0.1180
  169SOPE   H3X19100   6.087   2.686   7.218  0.2369  0.7445  0.0051
  169SOPE   H3Y19101   5.916   2.658   7.161  2.5421 -0.0847 -2.7541
  169SOPE   C3419102   5.943   2.726   7.374 -0.1458 -0.1719  0.7114
  169SOPE   H4X19103   6.028   2.770   7.431 -0.6045 -0.2511  1.4514
  169SOPE   H4Y19104   5.937   2.618   7.398  0.6957  0.0228  1.8793
  169SOPE   C3519105   5.807   2.796   7.412 -0.0904 -0.2122 -0.3002
  169SOPE   H5X19106   5.730   2.785   7.332  1.3479  1.5849 -1.9966
  169SOPE   H5Y19107   5.833   2.904   7.411 -3.2237  0.6123  1.6118
  169SOPE   C3619108   5.751   2.740   7.542  0.5817  0.3862 -0.0663
  169SOPE   H6X19109   5.725   2.635   7.517 -1.6530  0.5513  1.3864
  169SOPE   H6Y19110   5.657   2.793   7.568  1.0396  1.4497 -0.5462
  169SOPE   C3719111   5.851   2.741   7.653 -0.2331 -0.4591 -0.1086
  169SOPE   H7X19112   5.884   2.844   7.679  2.2626 -0.9400 -1.3191
  169SOPE   H7Y19113   5.947   2.693   7.627 -0.4760  0.8002 -3.5372
  169SOPE   C3819114   5.809   2.672   7.788  0.0757  0.0461  0.4357
  169SOPE   H8X19115   5.762   2.574   7.768 -0.2844 -0.3602  3.0692
  169SOPE   H8Y19116   5.906   2.665   7.842  1.0750  1.9475 -1.0128
  169SOPE   C3919117   5.728   2.768   7.871 -0.0754  0.4878  0.6554
  169SOPE   H9X19118   5.627   2.761   7.826  0.7053  1.3213 -1.2710
  169SOPE   H9Y19119   5.766   2.870   7.851  0.4554 -0.1113 -1.4576
  169SOPE  C31019120   5.729   2.727   8.018  0.3632  0.1749 -0.2893
  169SOPE  H10X19121   5.675   2.809   8.070 -0.6431  0.5327 -1.8804
  169SOPE  H10Y19122   5.832   2.726   8.059 -0.6268  0.2626  2.3312
  169SOPE  C31119123   5.660   2.593   8.050  0.3097 -0.6561  0.0990
  169SOPE  H11X19124   5.713   2.508   8.001  1.2615  0.5276 -0.9389
  169SOPE  H11Y19125   5.556   2.589   8.012 -0.2622 -2.3223  1.7599
  169SOPE  C31219126   5.648   2.576   8.208  0.0747 -0.0554  0.5949
  169SOPE  H12X19127   5.748   2.597   8.252 -0.5156  3.9580  0.2887
  169SOPE  H12Y19128   5.625   2.468   8.215  0.2989 -0.5368 -4.1196
  169SOPE  C31319129   5.547   2.670   8.269 -0.3802  0.4253  0.5602
  169SOPE  H13X19130   5.454   2.673   8.208  0.1055  1.1713 -0.1697
  169SOPE  H13Y19131   5.591   2.772   8.263 -2.8178  1.6689  2.7944
  169SOPE  C31419132   5.508   2.647   8.416  0.1695 -0.3646 -1.0183
  169SOPE  H14X19133   5.491   2.743   8.468  0.5180 -1.7927  1.8214
  169SOPE  H14Y19134   5.592   2.611   8.480  0.6391 -0.0714 -1.4727
  169SOPE  C31519135   5.401   2.534   8.436 -0.6288  0.0839  0.6089
  169SOPE  H15X19136   5.444   2.440   8.392  0.1190  1.1383 -0.9860
  169SOPE  H15Y19137   5.314   2.567   8.375 -0.5268 -1.4866 -0.4153
  169SOPE  C31619138   5.349   2.497   8.576  0.1903 -0.0309 -0.4972
  169SOPE  H16X19139   5.273   2.573   8.602 -0.5568 -0.6015 -0.9685
  169SOPE  H16Y19140   5.439   2.503   8.639  0.6837 -2.8895 -0.8307
  169SOPE  C31719141   5.288   2.357   8.574  0.2408 -0.3358 -0.7897
  169SOPE  H17X19142   5.353   2.280   8.527 -0.1539 -1.2405  0.1266
  169SOPE  H17Y19143   5.202   2.373   8.505  0.5376  4.2415 -0.2583
  169SOPE  C31819144   5.263   2.301   8.715  0.8404  0.4273 -0.1404
  169SOPE  H18X19145   5.362   2.283   8.762 -0.0175 -0.0250  1.5280
  169SOPE  H18Y19146   5.213   2.203   8.700 -0.2923  0.6852  1.8083
  169SOPE  H18Z19147   5.202   2.371   8.776  0.3344  1.2722 -1.5979
  170SOPE     N19148   0.508   0.304   6.591 -0.3708  0.0787 -1.1405
  170SOPE   HN119149   0.518   0.394   6.540  0.0277  0.4276 -0.4453
  170SOPE   HN219150   0.605   0.267   6.599  0.0947  1.4033 -0.5528
  170SOPE   HN319151   0.455   0.233   6.535  1.5770 -0.6172 -2.1685
  170SOPE   C1219152   0.429   0.330   6.720  0.7830  0.6713  0.3787
  170SOPE  H12A19153   0.464   0.415   6.781  1.8283 -1.0682  2.2377
  170SOPE  H12B19154   0.424   0.238   6.783 -0.3548 -1.3587 -2.5302
  170SOPE   C1119155   0.280   0.364   6.679  0.4605  0.3869 -0.1996
  170SOPE  H11A19156   0.226   0.384   6.774 -0.1235 -1.6046 -0.0810
  170SOPE  H11B19157   0.247   0.269   6.630  3.1277 -0.5434 -0.2903
  170SOPE     P19158   0.134   0.527   6.551  0.1082 -0.0175 -0.3276
  170SOPE   O1319159   0.038   0.416   6.537 -0.1548 -0.3447  0.7023
  170SOPE   O1419160   0.136   0.619   6.437 -0.6634 -0.0666  0.3849
  170SOPE   O1219161   0.276   0.461   6.581 -0.2079  0.3139  0.0735
  170SOPE   O1119162   0.097   0.604   6.692  0.5035 -0.1472 -0.2834
  170SOPE    C119163   0.202   0.690   6.748 -0.5921  0.1651 -0.4232
  170SOPE    HA19164   0.223   0.786   6.697  1.3462 -0.1828 -0.3283
  170SOPE    HB19165   0.301   0.640   6.744  1.0794  3.1976  1.2638
  170SOPE    C219166   0.170   0.732   6.899 -0.0629 -0.6701 -0.6655
  170SOPE    HS19167   0.256   0.791   6.936 -1.2636  0.6343  0.1142
  170SOPE   O2119168   0.146   0.615   6.981 -0.1113  0.4433 -0.0378
  170SOPE   C2119169   0.252   0.537   7.012 -0.3919  0.1335  0.0859
  170SOPE   O2219170   0.367   0.568   6.983 -0.5764  0.1521  0.0787
  170SOPE   C2219171   0.205   0.397   7.057 -0.1542 -0.0752  0.0257
  170SOPE   H2R19172   0.253   0.331   6.982 -2.3946  0.3507 -1.8641
  170SOPE   H2S19173   0.095   0.391   7.043  0.2009 -0.7060 -2.7911
  170SOPE    C319174   0.046   0.832   6.901 -0.0576 -0.3953  0.1774
  170SOPE    HX19175  -0.031   0.785   6.836 -0.6292  1.0258 -0.1957
  170SOPE    HY19176   0.079   0.928   6.854  1.3569 -0.0734  1.7707
  170SOPE   O3119177  -0.016   0.844   7.034 -0.0681 -0.3809  0.1406
  170SOPE   C3119178   0.048   0.922   7.118  0.0024 -0.1469 -0.5043
  170SOPE   O3219179   0.138   0.995   7.088 -0.3832 -0.4059 -0.3168
  170SOPE   C3219180  -0.016   0.912   7.252  0.5458  0.3993 -0.4751
  170SOPE   H2X19181   0.060   0.900   7.332 -1.8581 -1.8022  1.5423
  170SOPE   H2Y19182  -0.063   0.812   7.264 -0.7781  1.3998  3.2118
  170SOPE   C2319183   0.255   0.371   7.200 -0.2090 -0.3586  0.5279
  170SOPE   H3R19184   0.366   0.366   7.205 -0.3203 -3.1590  1.4665
  170SOPE   H3S19185   0.215   0.272   7.233 -0.9162 -0.2504 -0.0047
  170SOPE   C2419186   0.203   0.476   7.298  0.0985  0.3362 -0.1618
  170SOPE   H4R19187   0.257   0.464   7.395  1.0027  2.2672 -0.3879
  170SOPE   H4S19188   0.229   0.575   7.254 -0.6786  0.9893  0.8328
  170SOPE   C2519189   0.053   0.465   7.327  0.1937  0.4424  0.0934
  170SOPE   H5R19190   0.005   0.474   7.227 -0.2421 -1.3564  0.1388
  170SOPE   H5S19191   0.035   0.363   7.366  1.5578 -0.8012 -2.4458
  170SOPE   C2619192  -0.000   0.555   7.438 -0.0038 -0.0131 -0.0356
  170SOPE   H6R19193   0.036   0.657   7.415 -0.6080  0.6585  1.8567
  170SOPE   H6S19194  -0.111   0.566   7.434 -0.0207  0.2723  0.8759
  170SOPE   C2719195   0.041   0.528   7.586 -0.1086  0.5366  0.1683
  170SOPE   H7R19196   0.045   0.417   7.587  1.9735  0.5923  1.6733
  170SOPE   H7S19197   0.147   0.554   7.602  0.2687 -0.9483  0.2047
  170SOPE   C2819198  -0.046   0.591   7.684  0.3260  0.2847 -1.2782
  170SOPE   H8R19199  -0.151   0.566   7.658 -0.4787  2.5377 -0.2462
  170SOPE   H8S19200  -0.030   0.536   7.780 -0.7954  0.6089 -0.8993
  170SOPE   C2919201  -0.030   0.743   7.686 -0.3757 -0.7618 -0.2614
  170SOPE   H9119202  -0.066   0.785   7.591  2.7366  1.5532 -0.4744
  170SOPE  C21019203   0.010   0.831   7.780 -0.4253 -0.0858 -0.1524
  170SOPE  H10119204   0.033   0.935   7.751  0.1132  0.4655  2.0801
  170SOPE  C21119205   0.058   0.790   7.920  0.1928  0.0442 -0.1224
  170SOPE  H11R19206  -0.023   0.722   7.954  1.1611 -0.1770  1.7910
  170SOPE  H11S19207   0.050   0.879   7.986  0.9797 -0.5850  0.8359
  170SOPE  C21219208   0.196   0.739   7.938 -0.1166 -0.2206  0.8392
  170SOPE  H12R19209   0.272   0.815   7.910 -0.3408 -0.2126  0.2507
  170SOPE  H12S19210   0.216   0.653   7.871 -1.9900  0.1015 -0.1646
  170SOPE  C21319211   0.225   0.690   8.079 -0.3297 -0.3686 -0.1612
  170SOPE  H13R19212   0.135   0.629   8.103 -0.8724 -0.0221 -1.3227
  170SOPE  H13S19213   0.215   0.767   8.159  1.4944 -0.0645 -0.1994
  170SOPE  C21419214   0.347   0.596   8.088  0.0564 -0.2504 -0.1500
  170SOPE  H14R19215   0.345   0.532   7.997 -0.3156  3.3611 -2.7692
  170SOPE  H14S19216   0.343   0.520   8.169 -0.5004  2.1689  2.1662
  170SOPE  C21519217   0.479   0.678   8.096  0.3606  0.2667 -0.0232
  170SOPE  H15R19218   0.489   0.744   8.007 -0.0434 -0.4243 -0.5918
  170SOPE  H15S19219   0.571   0.618   8.115 -1.1088 -1.0840  3.0691
  170SOPE  C21619220   0.490   0.779   8.213 -0.2502  0.6862 -0.0470
  170SOPE  H16R19221   0.427   0.755   8.301  2.0588  0.4999  1.5991
  170SOPE  H16S19222   0.437   0.868   8.172 -1.5842 -2.3000 -5.2401
  170SOPE  C21719223   0.627   0.811   8.266  0.0721 -0.3240 -0.5661
  170SOPE  H17R19224   0.687   0.834   8.175  1.2540  0.3992  0.3845
  170SOPE  H17S19225   0.664   0.715   8.307  1.7094 -0.6030 -2.6080
  170SOPE  C21819226   0.636   0.916   8.372 -0.0874 -0.1994  0.0899
  170SOPE  H18R19227   0.606   0.860   8.464  1.2739 -0.2340  0.5147
  170SOPE  H18S19228   0.574   1.005   8.349 -2.0319 -1.3468  0.7181
  170SOPE  H18T19229   0.741   0.949   8.381 -0.2665 -0.0104  1.5454
  170SOPE   C3319230  -0.098   1.034   7.285  0.5989 -0.3076  0.2298
  170SOPE   H3X19231  -0.191   1.029   7.225  1.1593 -2.6446 -0.5097
  170SOPE   H3Y19232  -0.051   1.133   7.270 -1.0497  0.2533 -1.3318
  170SOPE   C3419233  -0.130   1.050   7.437  0.1217 -0.4616  0.0127
  170SOPE   H4X19234  -0.033   1.061   7.490 -0.0921 -0.2068  0.3465
  170SOPE   H4Y19235  -0.161   0.948   7.469 -2.5084 -0.3943 -2.1589
  170SOPE   C3519236  -0.234   1.151   7.465 -0.0571  0.4242  0.5988
  170SOPE   H5X19237  -0.324   1.148   7.401  0.9465  1.0732 -0.8643
  170SOPE   H5Y19238  -0.198   1.253   7.442 -3.8786  1.9535  0.9939
  170SOPE   C3619239  -0.286   1.158   7.610  0.8669 -0.3056 -0.6419
  170SOPE   H6X19240  -0.352   1.247   7.614  0.7764 -0.3512 -1.1050
  170SOPE   H6Y19241  -0.194   1.183   7.667 -0.1947  1.3243  0.3880
  170SOPE   C3719242  -0.350   1.032   7.662 -0.6167  0.1501  0.6369
  170SOPE   H7X19243  -0.270   0.958   7.683 -0.9478  0.2713  2.3721
  170SOPE   H7Y19244  -0.410   1.004   7.572  0.1426  0.9898 -0.1459
  170SOPE   C3819245  -0.435   1.059   7.786 -0.4040 -0.2828  0.0264
  170SOPE   H8X19246  -0.495   0.967   7.799  0.4862 -0.8254  0.3941
  170SOPE   H8Y19247  -0.496   1.150   7.774 -2.2733 -1.1816  2.1971
  170SOPE   C3919248  -0.336   1.062   7.904 -0.0357  0.0893 -0.4644
  170SOPE   H9X19249  -0.263   1.146   7.895 -0.0293 -0.0898 -2.2453
  170SOPE   H9Y19250  -0.277   0.968   7.903  2.0549  1.3158  1.6490
  170SOPE  C31019251  -0.403   1.063   8.039 -0.1316  0.0174 -0.2776
  170SOPE  H10X19252  -0.481   1.141   8.050  0.1405  0.4577 -1.3330
  170SOPE  H10Y19253  -0.323   1.083   8.114 -1.1606  1.9597  0.3274
  170SOPE  C31119254  -0.458   0.930   8.087  0.3505  0.3327  0.1793
  170SOPE  H11X19255  -0.379   0.852   8.077 -0.5324 -0.8675  2.2070
  170SOPE  H11Y19256  -0.542   0.904   8.020  1.7345  0.5193 -1.6814
  170SOPE  C31219257  -0.507   0.926   8.228 -0.1394  0.0511 -1.4451
  170SOPE  H12X19258  -0.566   1.018   8.251  0.4925  0.0599  0.1900
  170SOPE  H12Y19259  -0.414   0.942   8.286 -0.5469  0.4135 -0.8863
  170SOPE  C31319260  -0.579   0.792   8.258 -0.3313  0.5561 -0.5200
  170SOPE  H13X19261  -0.507   0.711   8.231 -1.0724  0.2368 -1.6050
  170SOPE  H13Y19262  -0.675   0.785   8.202 -0.7674  0.2672  0.2516
  170SOPE  C31419263  -0.606   0.779   8.413 -0.7715 -0.7963 -0.2668
  170SOPE  H14X19264  -0.657   0.873   8.443  1.8033  0.7416 -0.5439
  170SOPE  H14Y19265  -0.511   0.786   8.470 -1.9104  1.2926  1.4465
  170SOPE  C31519266  -0.684   0.659   8.464 -0.0131 -0.1822 -0.3758
  170SOPE  H15X19267  -0.793   0.660   8.439 -1.0844 -0.2905  3.7722
  170SOPE  H15Y19268  -0.692   0.649   8.575 -0.1995 -3.6288 -0.6343
  170SOPE  C31619269  -0.638   0.530   8.406  0.2215 -0.0112  0.7451
  170SOPE  H16X19270  -0.529   0.512   8.415  0.4884 -0.6263 -3.0529
  170SOPE  H16Y19271  -0.652   0.522   8.296 -0.6024 -1.1412  0.9193
  170SOPE  C31719272  -0.710   0.409   8.462 -0.2446  0.1726 -0.2759
  170SOPE  H17X19273  -0.814   0.405   8.423 -0.3795  2.2067 -0.1956
  170SOPE  H17Y19274  -0.717   0.424   8.572  1.4729  0.9126 -0.2663
  170SOPE  C31819275  -0.641   0.269   8.433 -0.7739 -0.9715 -0.3953
  170SOPE  H18X19276  -0.624   0.236   8.328  1.0064 -2.1723  0.2424
  170SOPE  H18Y19277  -0.691   0.185   8.485  0.8612 -1.9790 -0.4045
  170SOPE  H18Z19278  -0.544   0.281   8.485 -1.3053 -0.2560  0.4531
  171SOPE     N19279   0.071   4.272   6.324  1.2207  0.2377 -0.2479
  171SOPE   HN119280   0.124   4.191   6.287 -1.2130 -0.8792 -1.3657
  171SOPE   HN219281  -0.031   4.263   6.308  1.5420 -0.9395 -1.6952
  171SOPE   HN319282   0.109   4.362   6.287  1.4407 -0.5500 -1.9702
  171SOPE   C1219283   0.089   4.287   6.475 -0.0422  0.2046 -0.0058
  171SOPE  H12A19284   0.010   4.354   6.516 -0.2395 -1.5072  2.5431
  171SOPE  H12B19285   0.190   4.329   6.491  0.4536 -0.9167 -0.1074
  171SOPE   C1119286   0.055   4.149   6.546  0.0949 -0.2780  0.1703
  171SOPE  H11A19287  -0.052   4.123   6.534 -0.2867 -0.5048  3.4704
  171SOPE  H11B19288   0.064   4.163   6.656 -1.4197  1.1613  0.1303
  171SOPE     P19289   0.274   4.008   6.512 -0.0801 -0.0280 -0.1753
  171SOPE   O1319290   0.339   4.035   6.382  0.0053  0.0022  0.1196
  171SOPE   O1419291   0.282   3.870   6.569 -0.2822  0.1726 -0.1235
  171SOPE   O1219292   0.123   4.039   6.488 -0.3274  0.2371 -0.2937
  171SOPE   O1119293   0.322   4.115   6.622 -0.7130  0.1589  0.6836
  171SOPE    C119294   0.300   4.082   6.753  0.1868  0.8046 -0.2930
  171SOPE    HA19295   0.364   3.995   6.780 -0.2090  0.3803 -0.7149
  171SOPE    HB19296   0.196   4.045   6.771  0.3127 -0.0752 -1.3432
  171SOPE    C219297   0.319   4.215   6.842  0.0453  0.1021 -1.1538
  171SOPE    HS19298   0.238   4.287   6.818  1.1255  2.4773  1.9147
  171SOPE   O2119299   0.454   4.280   6.835  0.5479 -0.4567 -0.5324
  171SOPE   C2119300   0.450   4.412   6.854 -1.2244  0.5608  0.1362
  171SOPE   O2219301   0.352   4.483   6.871  0.7891 -0.1053  0.4522
  171SOPE   C2219302   0.588   4.463   6.869  0.0524  0.1109 -0.1666
  171SOPE   H2R19303   0.587   4.571   6.845  1.1595  0.3666  0.8550
  171SOPE   H2S19304   0.653   4.419   6.790  0.3999 -2.6654  1.5846
  171SOPE    C319305   0.302   4.173   6.994 -0.3043  0.1179 -0.0469
  171SOPE    HX19306   0.376   4.100   7.035 -2.0825 -1.2307  0.8247
  171SOPE    HY19307   0.215   4.104   6.988  0.7813 -1.1013 -3.1676
  171SOPE   O3119308   0.292   4.280   7.087 -0.3258  0.5319  0.0319
  171SOPE   C3119309   0.180   4.357   7.084  0.6916  0.6702  0.7747
  171SOPE   O3219310   0.076   4.337   7.022 -0.1822  0.2422 -0.2340
  171SOPE   C3219311   0.202   4.481   7.170  0.6206  0.9731 -0.8024
  171SOPE   H2X19312   0.126   4.555   7.137 -0.1795  0.7236  0.4506
  171SOPE   H2Y19313   0.304   4.520   7.153  0.5349  0.8189 -1.6902
  171SOPE   C2319314   0.658   4.446   7.009  0.2099 -0.1048  1.1629
  171SOPE   H3R19315   0.763   4.479   6.995 -0.0178  1.7959  3.6743
  171SOPE   H3S19316   0.663   4.341   7.043 -3.2010 -0.3700  1.0600
  171SOPE   C2419317   0.602   4.550   7.115  0.6686 -0.0912 -0.3018
  171SOPE   H4R19318   0.614   4.653   7.076  1.0637  0.0282  0.1318
  171SOPE   H4S19319   0.492   4.541   7.133  0.6440  1.4500  0.4831
  171SOPE   C2519320   0.678   4.541   7.246  1.4334  0.6158  0.1050
  171SOPE   H5R19321   0.653   4.444   7.294 -1.9865  0.1492 -2.4860
  171SOPE   H5S19322   0.785   4.559   7.224  1.2003  0.8183 -0.8648
  171SOPE   C2619323   0.630   4.651   7.345 -0.9615 -0.1784 -0.1638
  171SOPE   H6R19324   0.650   4.751   7.300 -1.5939 -1.4142 -3.3069
  171SOPE   H6S19325   0.519   4.650   7.349 -0.9742  1.2086  0.3612
  171SOPE   C2719326   0.677   4.631   7.488 -0.1517 -0.1108 -0.8467
  171SOPE   H7R19327   0.640   4.529   7.511  0.9853 -0.7100 -1.6910
  171SOPE   H7S19328   0.786   4.646   7.497 -0.1767  1.1956 -2.4270
  171SOPE   C2819329   0.609   4.728   7.593  0.3233  0.2051  0.0043
  171SOPE   H8R19330   0.626   4.834   7.563 -4.6090  1.0898 -0.0791
  171SOPE   H8S19331   0.502   4.697   7.587  0.2836  0.4317 -0.4631
  171SOPE   C2919332   0.642   4.721   7.738  0.0434  0.0014  0.1136
  171SOPE   H9119333   0.751   4.734   7.748  0.0879 -0.7779  0.6691
  171SOPE  C21019334   0.555   4.702   7.836 -0.4753  0.7378  0.6613
  171SOPE  H10119335   0.591   4.681   7.938  4.5299  3.9311 -0.2669
  171SOPE  C21119336   0.406   4.679   7.828  0.3276  0.2031 -0.7816
  171SOPE  H11R19337   0.385   4.571   7.815  0.0742  0.3669 -1.7344
  171SOPE  H11S19338   0.352   4.743   7.755 -1.7018 -1.4261 -0.7495
  171SOPE  C21219339   0.353   4.726   7.961 -0.1831 -0.0141  0.2206
  171SOPE  H12R19340   0.335   4.836   7.966  1.0175  0.3328 -2.0592
  171SOPE  H12S19341   0.423   4.704   8.044  0.1660  1.4324  0.3287
  171SOPE  C21319342   0.213   4.672   7.965  0.5178 -0.5542  0.2332
  171SOPE  H13R19343   0.148   4.678   7.876  0.5917 -1.8035  0.0815
  171SOPE  H13S19344   0.162   4.726   8.048 -2.8323 -2.0052 -0.8026
  171SOPE  C21419345   0.207   4.528   8.005  0.0046 -0.8519 -0.2825
  171SOPE  H14R19346   0.286   4.502   8.079  2.1882  1.2446 -1.8177
  171SOPE  H14S19347   0.215   4.465   7.915  0.1099  1.1677 -1.7158
  171SOPE  C21519348   0.074   4.488   8.085 -0.0621 -0.6025  0.3371
  171SOPE  H15R19349   0.084   4.536   8.184 -1.9455 -0.0938  0.2801
  171SOPE  H15S19350   0.085   4.379   8.103  0.9074 -0.5636  0.0592
  171SOPE  C21619351  -0.065   4.511   8.026 -0.2080 -0.8772 -0.0821
  171SOPE  H16R19352  -0.068   4.475   7.921 -2.1455  0.8281 -0.6427
  171SOPE  H16S19353  -0.083   4.620   8.018 -3.2536 -1.3307  0.1395
  171SOPE  C21719354  -0.173   4.439   8.102  0.4070 -0.1943 -0.2036
  171SOPE  H17R19355  -0.171   4.329   8.092 -0.5502 -0.4738  2.2892
  171SOPE  H17S19356  -0.266   4.459   8.046 -0.1445  0.0312  0.7803
  171SOPE  C21819357  -0.189   4.480   8.253 -0.3800  0.2746  0.2628
  171SOPE  H18R19358  -0.235   4.398   8.313  0.5596 -1.4744 -1.3378
  171SOPE  H18S19359  -0.256   4.568   8.253 -0.1325  0.4647  0.9379
  171SOPE  H18T19360  -0.095   4.505   8.307 -0.5869 -1.0280  1.2503
  171SOPE   C3319361   0.182   4.440   7.323  0.2553  0.5059  0.0811
  171SOPE   H3X19362   0.251   4.353   7.337  0.0216  0.5617  1.6263
  171SOPE   H3Y19363   0.077   4.406   7.323  0.3788  0.0433  1.9549
  171SOPE   C3419364   0.224   4.545   7.420 -0.5863  0.0494  0.3557
  171SOPE   H4X19365   0.166   4.639   7.406  0.8900  1.3658  2.5483
  171SOPE   H4Y19366   0.333   4.563   7.407 -0.3988 -1.4020 -0.1642
  171SOPE   C3519367   0.206   4.511   7.572  0.0068  0.0204  0.2760
  171SOPE   H5X19368   0.225   4.608   7.623  1.1102  0.6390 -1.2730
  171SOPE   H5Y19369   0.277   4.439   7.617  1.0685 -0.1428 -1.6238
  171SOPE   C3619370   0.065   4.461   7.609  0.2074 -0.3604 -0.8275
  171SOPE   H6X19371  -0.017   4.483   7.537 -2.0957 -0.0475  1.7690
  171SOPE   H6Y19372   0.034   4.513   7.702  0.0485  0.0240 -1.0912
  171SOPE   C3719373   0.073   4.309   7.641 -0.7717  0.3270 -0.2327
  171SOPE   H7X19374   0.156   4.296   7.713  0.4823  1.1881 -1.4863
  171SOPE   H7Y19375   0.105   4.265   7.544  0.4946  1.5266 -0.3789
  171SOPE   C3819376  -0.062   4.247   7.671  0.2918  0.0385  0.1905
  171SOPE   H8X19377  -0.129   4.256   7.583  0.5673  1.2219  0.0882
  171SOPE   H8Y19378  -0.099   4.304   7.759  0.0552  2.1898 -1.2738
  171SOPE   C3919379  -0.039   4.100   7.716 -0.1502  0.0512  0.7732
  171SOPE   H9X19380   0.053   4.063   7.667 -0.2354 -0.3678  0.9298
  171SOPE   H9Y19381  -0.120   4.031   7.685  0.8268 -0.4284 -0.7609
  171SOPE  C31019382  -0.020   4.077   7.869 -0.1078  0.1253  0.4214
  171SOPE  H10X19383  -0.104   4.126   7.922  0.0550 -1.3706  2.0692
  171SOPE  H10Y19384   0.075   4.126   7.901  1.1257 -2.3465  0.6891
  171SOPE  C31119385  -0.017   3.928   7.906 -0.0465  0.4944 -0.0371
  171SOPE  H11X19386   0.073   3.874   7.868  0.2793 -0.4274  1.9729
  171SOPE  H11Y19387  -0.111   3.886   7.866  0.3964 -0.3909 -0.1606
  171SOPE  C31219388  -0.012   3.909   8.068  0.1137 -0.1173  0.2726
  171SOPE  H12X19389  -0.067   3.993   8.116  1.1138  0.9951 -0.4905
  171SOPE  H12Y19390   0.095   3.919   8.096  0.7040  2.2852 -2.6391
  171SOPE  C31319391  -0.089   3.781   8.104  0.5090 -0.2739 -0.0579
  171SOPE  H13X19392  -0.028   3.703   8.054 -1.4248 -1.5320 -0.4876
  171SOPE  H13Y19393  -0.188   3.785   8.054  1.1899  0.1187 -1.3947
  171SOPE  C31419394  -0.087   3.760   8.255  0.6641  0.0576 -0.0904
  171SOPE  H14X19395  -0.129   3.852   8.301 -0.2467 -1.0028  1.2296
  171SOPE  H14Y19396   0.015   3.732   8.288  0.4822  1.2452  1.5349
  171SOPE  C31519397  -0.176   3.636   8.298  0.1544 -0.9035  0.7666
  171SOPE  H15X19398  -0.156   3.561   8.218 -1.4527 -2.5560  1.8647
  171SOPE  H15Y19399  -0.283   3.662   8.310  0.3544 -0.6129  1.9301
  171SOPE  C31619400  -0.127   3.564   8.425  0.2325  0.5630 -0.4509
  171SOPE  H16X19401  -0.092   3.637   8.501 -0.2717 -0.4997  0.8063
  171SOPE  H16Y19402  -0.057   3.482   8.396  0.5313  0.3803  0.7773
  171SOPE  C31719403  -0.244   3.489   8.493 -0.1488  0.2593 -0.3711
  171SOPE  H17X19404  -0.256   3.391   8.444  1.4233 -0.2515  0.2259
  171SOPE  H17Y19405  -0.339   3.542   8.470  0.4303  1.0863 -0.8887
  171SOPE  C31819406  -0.231   3.468   8.649  0.4985 -0.3960  0.0088
  171SOPE  H18X19407  -0.324   3.418   8.684 -0.9188  1.0635 -1.5634
  171SOPE  H18Y19408  -0.219   3.560   8.711 -0.6762 -1.7565  2.3405
  171SOPE  H18Z19409  -0.147   3.399   8.672 -0.3560 -2.3419 -2.5837
  172SOPE     N19410   0.296   5.447   6.356  0.8698  0.2462  0.0292
  172SOPE   HN119411   0.197   5.427   6.330  0.6423  1.2160  0.1291
  172SOPE   HN219412   0.321   5.544   6.328 -1.2703  0.6055 -0.7292
  172SOPE   HN319413   0.359   5.376   6.314  1.4378 -1.0230  2.8659
  172SOPE   C1219414   0.310   5.435   6.501 -0.7550 -0.6274 -0.1558
  172SOPE  H12A19415   0.284   5.329   6.521 -1.5933 -0.4224 -0.1353
  172SOPE  H12B19416   0.233   5.489   6.560  0.9532 -0.0342  1.5599
  172SOPE   C1119417   0.453   5.463   6.554  0.1469 -1.0661  0.5088
  172SOPE  H11A19418   0.447   5.436   6.662 -1.5058  1.6490  1.1443
  172SOPE  H11B19419   0.466   5.574   6.549 -3.1627 -0.6342  0.4781
  172SOPE     P19420   0.607   5.269   6.532 -0.2008 -0.2776  0.0538
  172SOPE   O1319421   0.725   5.222   6.451 -0.5866 -0.1741  0.4009
  172SOPE   O1419422   0.497   5.174   6.544 -0.1916 -0.1339 -0.8072
  172SOPE   O1219423   0.555   5.402   6.475 -0.0799  0.4759  0.0149
  172SOPE   O1119424   0.652   5.306   6.678  0.2936  0.6387  0.1558
  172SOPE    C119425   0.766   5.375   6.699 -0.3936 -0.4956  0.1244
  172SOPE    HA19426   0.793   5.448   6.620  0.6971  0.2860  1.2037
  172SOPE    HB19427   0.850   5.302   6.697  0.9338  1.0505 -2.0890
  172SOPE    C219428   0.760   5.455   6.832  0.6162  0.7077 -0.0047
  172SOPE    HS19429   0.863   5.486   6.859  0.8416 -1.2527  1.5231
  172SOPE   O2119430   0.714   5.363   6.933  0.3530 -0.0918 -0.5214
  172SOPE   C2119431   0.790   5.265   6.963  0.0472  0.8632  0.0417
  172SOPE   O2219432   0.911   5.261   6.957  0.8109 -0.0757  0.5202
  172SOPE   C2219433   0.707   5.156   7.031  0.2881  0.2245 -0.6169
  172SOPE   H2R19434   0.672   5.084   6.954  1.5825 -0.0472 -0.9665
  172SOPE   H2S19435   0.609   5.194   7.067 -1.1387 -1.8120 -2.2643
  172SOPE    C319436   0.658   5.578   6.833 -0.2876 -0.1668  0.1718
  172SOPE    HX19437   0.581   5.548   6.758  0.2631 -2.1030  0.3637
  172SOPE    HY19438   0.715   5.668   6.800 -2.0268  1.3160  1.1204
  172SOPE   O3119439   0.609   5.617   6.964 -0.0913 -0.3068 -0.3871
  172SOPE   C3119440   0.485   5.575   6.995 -0.5968  0.4155  0.2950
  172SOPE   O3219441   0.411   5.513   6.923 -0.6175 -0.2414  0.2710
  172SOPE   C3219442   0.440   5.635   7.133  0.1246  0.4523  0.7060
  172SOPE   H2X19443   0.346   5.694   7.124 -0.4291 -0.5021  0.2345
  172SOPE   H2Y19444   0.522   5.698   7.174  0.6197 -0.0058  0.4218
  172SOPE   C2319445   0.778   5.067   7.136  0.0171 -0.3921  0.2393
  172SOPE   H3R19446   0.859   5.014   7.082 -1.1702 -2.6796  0.6655
  172SOPE   H3S19447   0.699   4.997   7.170  1.5749 -1.7964  1.0267
  172SOPE   C2419448   0.843   5.140   7.256 -0.4369  0.6424  0.1570
  172SOPE   H4R19449   0.896   5.229   7.216  0.7971 -0.1488 -0.0064
  172SOPE   H4S19450   0.763   5.182   7.320 -0.3854  1.1525 -0.1087
  172SOPE   C2519451   0.933   5.056   7.344 -0.1375 -0.1850  0.8792
  172SOPE   H5R19452   0.881   4.957   7.346 -0.2830 -0.0928  1.6440
  172SOPE   H5S19453   1.027   5.052   7.286 -1.2238  1.6613 -1.0932
  172SOPE   C2619454   0.972   5.116   7.477 -0.2454  0.3265  0.1028
  172SOPE   H6R19455   1.049   5.057   7.531 -1.5255 -1.4352  0.0375
  172SOPE   H6S19456   1.034   5.209   7.474  0.8872 -0.4210 -0.0374
  172SOPE   C2719457   0.851   5.112   7.580  0.3594  0.4309  0.0539
  172SOPE   H7R19458   0.775   5.184   7.541  0.1763 -0.0651 -0.5185
  172SOPE   H7S19459   0.826   5.004   7.577  0.1869  0.4944 -1.1436
  172SOPE   C2819460   0.870   5.162   7.727 -0.2079 -1.0149  0.0210
  172SOPE   H8R19461   0.922   5.080   7.781 -0.7171 -1.2225  0.1995
  172SOPE   H8S19462   0.940   5.247   7.712 -0.1483 -1.1644 -0.5880
  172SOPE   C2919463   0.744   5.216   7.793 -0.4220 -0.3173  0.3656
  172SOPE   H9119464   0.707   5.305   7.740 -1.4815 -0.4935  0.8011
  172SOPE  C21019465   0.677   5.172   7.897 -0.8468 -0.0113 -0.1570
  172SOPE  H10119466   0.581   5.222   7.918 -0.9325  0.0983 -0.7957
  172SOPE  C21119467   0.696   5.055   7.991  0.1854 -0.2507  1.0809
  172SOPE  H11R19468   0.779   4.989   7.958  0.6792  0.3631  1.0869
  172SOPE  H11S19469   0.609   4.989   7.973  1.3807 -1.4551 -0.4312
  172SOPE  C21219470   0.696   5.100   8.141 -0.0101 -0.7800 -0.2136
  172SOPE  H12R19471   0.607   5.160   8.168 -0.1441  0.0020 -2.2557
  172SOPE  H12S19472   0.797   5.142   8.161 -0.5859  0.7682 -0.4813
  172SOPE  C21319473   0.682   4.973   8.232 -0.1169 -0.1879  0.0625
  172SOPE  H13R19474   0.773   4.909   8.235 -1.1864 -1.7127  0.3494
  172SOPE  H13S19475   0.614   4.902   8.180  1.0163  0.1357 -1.9227
  172SOPE  C21419476   0.645   5.020   8.372 -0.0942 -0.3446 -0.3053
  172SOPE  H14R19477   0.655   4.927   8.432  0.3348  0.4318  0.8537
  172SOPE  H14S19478   0.538   5.049   8.371 -0.1186 -0.4352 -0.3267
  172SOPE  C21519479   0.739   5.128   8.438  0.3661 -0.2727 -0.1630
  172SOPE  H15R19480   0.760   5.217   8.376  1.0153 -0.1788  0.1857
  172SOPE  H15S19481   0.838   5.077   8.448 -0.2462 -1.5869 -0.6469
  172SOPE  C21619482   0.698   5.160   8.582  0.5100 -0.2221 -0.0185
  172SOPE  H16R19483   0.722   5.073   8.646  0.2347 -0.8975 -0.8140
  172SOPE  H16S19484   0.587   5.167   8.594  0.6282 -0.1156  1.0422
  172SOPE  C21719485   0.759   5.285   8.627  0.7348  0.6849  0.5481
  172SOPE  H17R19486   0.727   5.310   8.731 -1.0083  2.1152 -0.3078
  172SOPE  H17S19487   0.730   5.373   8.566  4.4216  1.3831 -0.3149
  172SOPE  C21819488   0.912   5.296   8.618  0.3582  0.7998 -0.8958
  172SOPE  H18R19489   0.954   5.265   8.520 -1.8603  3.3323 -2.7318
  172SOPE  H18S19490   0.968   5.228   8.685 -0.4559 -0.8979 -1.9231
  172SOPE  H18T19491   0.954   5.399   8.624  1.7903  0.1636 -0.0891
  172SOPE   C3319492   0.401   5.528   7.241  0.3132 -0.8894  0.2146
  172SOPE   H3X19493   0.331   5.463   7.184 -0.5335  0.0433  0.1686
  172SOPE   H3Y19494   0.341   5.579   7.319 -0.8430  1.0672 -1.8848
  172SOPE   C3419495   0.516   5.436   7.303 -0.1915  0.0670 -0.3622
  172SOPE   H4X19496   0.565   5.381   7.219  0.8368  1.2265 -0.5473
  172SOPE   H4Y19497   0.462   5.366   7.369  2.4930 -0.5069  1.3207
  172SOPE   C3519498   0.612   5.523   7.384  0.3355  0.0757 -0.0716
  172SOPE   H5X19499   0.673   5.587   7.316  2.0728 -0.5582  0.8512
  172SOPE   H5Y19500   0.689   5.460   7.434  0.0571  0.5399  0.9643
  172SOPE   C3619501   0.540   5.604   7.500 -0.3577  0.2330  0.2144
  172SOPE   H6X19502   0.484   5.686   7.450  0.8770  0.0078 -1.5399
  172SOPE   H6Y19503   0.619   5.650   7.564 -0.6330 -0.3622  0.9955
  172SOPE   C3719504   0.450   5.517   7.594  0.3428  0.3719 -0.0419
  172SOPE   H7X19505   0.509   5.424   7.611  0.4016  0.6088  1.1000
  172SOPE   H7Y19506   0.357   5.493   7.538 -0.5067 -1.2201  1.9750
  172SOPE   C3819507   0.424   5.573   7.734 -0.3374 -0.3533 -1.0019
  172SOPE   H8X19508   0.378   5.674   7.724 -0.2172 -0.2054 -0.1213
  172SOPE   H8Y19509   0.524   5.594   7.777 -0.8079  0.9768 -0.5377
  172SOPE   C3919510   0.350   5.467   7.820 -0.7074  0.4802 -0.2243
  172SOPE   H9X19511   0.422   5.405   7.876 -0.9585 -0.0188 -0.4520
  172SOPE   H9Y19512   0.295   5.397   7.754  0.0402  0.6719 -1.0653
  172SOPE  C31019513   0.263   5.533   7.929  0.1725  0.4615 -0.1253
  172SOPE  H10X19514   0.210   5.452   7.983  0.1446 -0.0762 -0.9570
  172SOPE  H10Y19515   0.189   5.596   7.874  1.7652  0.7588 -1.9607
  172SOPE  C31119516   0.330   5.609   8.038  0.5012 -0.3710  0.0189
  172SOPE  H11X19517   0.253   5.616   8.118  1.4998 -1.9686  1.1381
  172SOPE  H11Y19518   0.360   5.712   8.008 -0.4086  0.0758  0.6195
  172SOPE  C31219519   0.450   5.535   8.095 -0.5802 -0.4552 -0.4586
  172SOPE  H12X19520   0.534   5.562   8.028 -1.2188 -0.3822 -1.2391
  172SOPE  H12Y19521   0.416   5.429   8.093 -1.7057 -0.1455  0.9679
  172SOPE  C31319522   0.498   5.579   8.240 -0.6460 -0.0086  0.3833
  172SOPE  H13X19523   0.419   5.561   8.316 -0.0856 -1.2018  0.6957
  172SOPE  H13Y19524   0.518   5.688   8.231  3.8818 -0.8713 -1.6446
  172SOPE  C31419525   0.630   5.509   8.287  0.0961  0.1656  0.0221
  172SOPE  H14X19526   0.603   5.402   8.292 -0.4473  0.3350  0.8287
  172SOPE  H14Y19527   0.660   5.543   8.388  0.9179 -0.9622  0.1707
  172SOPE  C31519528   0.746   5.527   8.191 -0.2479  0.0283  0.2588
  172SOPE  H15X19529   0.758   5.637   8.182  1.1381 -0.0449  1.0359
  172SOPE  H15Y19530   0.724   5.491   8.088  0.5657 -1.0313  0.4488
  172SOPE  C31619531   0.883   5.461   8.247 -0.0057  0.0441 -0.0587
  172SOPE  H16X19532   0.883   5.353   8.273 -0.2251 -0.1111 -0.6803
  172SOPE  H16Y19533   0.900   5.508   8.346 -2.1651  0.4356  0.1507
  172SOPE  C31719534   0.996   5.497   8.150  0.5809  0.1200  0.3505
  172SOPE  H17X19535   1.095   5.469   8.192  1.1676 -0.0540 -1.0989
  172SOPE  H17Y19536   0.995   5.608   8.151  1.6550  0.1826 -2.0532
  172SOPE  C31819537   0.984   5.442   8.005  0.1476 -0.6798  1.0668
  172SOPE  H18X19538   0.952   5.336   8.013  0.2660 -1.0063 -2.1392
  172SOPE  H18Y19539   1.072   5.440   7.938 -0.6495  2.0799 -0.1312
  172SOPE  H18Z19540   0.907   5.495   7.945  2.3831  0.1004 -1.2214
  173SAPI   C1219541   2.079   3.464  11.089  0.2973 -0.0304 -0.0284
  173SAPI    H219542   2.184   3.485  11.119 -0.0888  2.0538 -0.0277
  173SAPI    O219543   2.064   3.323  11.108 -0.2128 -0.3067 -0.0196
  173SAPI   HO219544   2.092   3.277  11.029  0.0214 -1.8697  0.9489
  173SAPI   C1319545   1.986   3.541  11.189  0.5203 -0.3204 -1.1377
  173SAPI    H319546   2.004   3.649  11.170 -1.2687  1.3054  5.0362
  173SAPI    O319547   2.011   3.527  11.331 -0.1081 -0.6932 -0.3135
  173SAPI   HO319548   2.008   3.618  11.363  0.6904  0.2052 -2.6254
  173SAPI   C1419549   1.839   3.508  11.146 -0.3966  0.4644 -0.3130
  173SAPI    H419550   1.825   3.398  11.154  1.0838  0.1182 -1.9386
  173SAPI    O419551   1.751   3.587  11.224 -0.0848 -0.2554 -0.1912
  173SAPI   HO419552   1.666   3.544  11.223 -1.0071  1.5393 -0.9513
  173SAPI   C1519553   1.814   3.538  11.003 -0.1243 -0.4122 -0.0385
  173SAPI    H519554   1.816   3.647  10.984  0.8690 -0.6314 -1.2664
  173SAPI    O519555   1.683   3.506  10.961  0.2479 -0.1663  0.0641
  173SAPI   HO519556   1.684   3.511  10.865  0.4865 -0.8211  0.0302
  173SAPI   C1619557   1.912   3.476  10.905  0.3343  0.2650 -0.4358
  173SAPI    H619558   1.910   3.366  10.894 -1.5520  0.4420 -2.0481
  173SAPI    O619559   1.893   3.523  10.774  0.8733  0.1919 -0.0493
  173SAPI   HO619560   1.978   3.527  10.730  0.4704 -0.2131 -0.8750
  173SAPI   C1119561   2.056   3.507  10.945  0.0845  0.0180 -0.1888
  173SAPI    H119562   2.075   3.616  10.937  0.8837 -0.0460  0.8084
  173SAPI     P19563   2.270   3.492  10.793  0.4364 -0.4240 -0.3149
  173SAPI   O1319564   2.362   3.393  10.738 -0.9984 -0.0299 -0.0593
  173SAPI   O1419565   2.328   3.585  10.895 -0.3640  0.3224 -0.7156
  173SAPI   O1219566   2.142   3.426  10.862 -0.2637  0.0949 -0.5317
  173SAPI   O1119567   2.210   3.580  10.682  0.0066  0.1020  0.0417
  173SAPI    C119568   2.167   3.528  10.558  0.8466  0.7275  0.3055
  173SAPI    HA19569   2.131   3.424  10.567  0.1749  0.8257 -1.0495
  173SAPI    HB19570   2.081   3.585  10.517  1.2717  0.3024 -1.2088
  173SAPI    C219571   2.274   3.528  10.446  0.1255  0.0582  0.5251
  173SAPI    HS19572   2.350   3.460  10.491 -1.0568 -0.3311  1.9701
  173SAPI   O2119573   2.316   3.668  10.412 -0.4455  0.3593 -0.0587
  173SAPI   C2119574   2.448   3.668  10.373 -0.1705  0.2142 -0.4718
  173SAPI   O2219575   2.522   3.572  10.389 -0.0432  0.7753 -0.5827
  173SAPI   C2219576   2.484   3.806  10.307 -0.1741  0.0587 -0.0239
  173SAPI   H2R19577   2.386   3.858  10.315 -0.5555 -0.9033  1.7845
  173SAPI   H2S19578   2.556   3.854  10.376  0.9617 -1.3249 -0.2327
  173SAPI    C319579   2.215   3.454  10.327 -0.4256 -0.3296  0.5076
  173SAPI    HX19580   2.125   3.513  10.301 -1.5569 -1.1135  2.5251
  173SAPI    HY19581   2.187   3.348  10.346  0.4804 -0.6796 -0.0884
  173SAPI   O3119582   2.311   3.465  10.217  0.0052  0.1567 -0.1465
  173SAPI   C3119583   2.396   3.363  10.196 -0.4873 -0.2735 -0.5785
  173SAPI   O3219584   2.398   3.259  10.256  0.1414 -0.3317 -0.1125
  173SAPI   C3219585   2.474   3.393  10.075 -0.1868  0.2424  0.5508
  173SAPI   H2X19586   2.572   3.340  10.074 -0.0084  0.5726  0.2475
  173SAPI   H2Y19587   2.496   3.502  10.078 -0.8990  0.3866  0.5332
  173SAPI   C2319588   2.526   3.795  10.157  0.6382  0.0330  0.0301
  173SAPI   H3R19589   2.448   3.731  10.111 -0.1041 -0.5106  1.9757
  173SAPI   H3S19590   2.618   3.733  10.164  1.5323  1.3237 -0.1631
  173SAPI   C2419591   2.547   3.930  10.080  0.0931 -0.3647 -0.2339
  173SAPI   H4R19592   2.611   3.902   9.993  2.0917  0.7899  0.8123
  173SAPI   H4S19593   2.611   3.992  10.146  2.7032 -2.2080 -0.9502
  173SAPI   C2519594   2.417   3.988  10.040  0.2246  0.0897  0.3169
  173SAPI   H5R19595   2.340   3.983  10.119  1.0109  0.9699  1.1342
  173SAPI   C2619596   2.381   4.041   9.923  0.4205 -0.3079 -0.6137
  173SAPI   H6R19597   2.282   4.089   9.922  0.8472  0.6054  0.1356
  173SAPI   C2719598   2.477   4.059   9.805 -0.1387 -0.1390  0.1754
  173SAPI   H7R19599   2.458   3.984   9.726  0.1575  0.4758 -0.4894
  173SAPI   H7S19600   2.585   4.049   9.828  0.4877  1.2062 -1.9540
  173SAPI   C2819601   2.480   4.197   9.751 -0.2850 -0.2705 -0.1034
  173SAPI   H8R19602   2.484   4.276   9.827  0.0832 -0.6656  0.2943
  173SAPI   C2919603   2.479   4.226   9.622 -0.8483 -0.5649  0.7437
  173SAPI   H9R19604   2.490   4.331   9.593 -1.6590 -0.6127  0.2487
  173SAPI  C21019605   2.479   4.133   9.506 -0.1895 -0.8156  0.5341
  173SAPI  H10R19606   2.380   4.083   9.497 -0.3173 -0.1560 -2.2780
  173SAPI  H10S19607   2.561   4.058   9.513 -0.6458 -1.3100  0.6598
  173SAPI  C21119608   2.504   4.199   9.374 -0.0180 -0.6334  0.5465
  173SAPI  H11R19609   2.550   4.298   9.389  0.7081 -1.1728  2.0490
  173SAPI  C21219610   2.488   4.139   9.256  0.2406 -0.0142  0.0481
  173SAPI  H12R19611   2.509   4.207   9.172  0.2622 -0.4145 -0.2750
  173SAPI  C21319612   2.440   4.008   9.215  0.7135 -0.0455 -0.1819
  173SAPI  H13R19613   2.442   3.944   9.306  1.0380  1.0680  0.5997
  173SAPI  H13S19614   2.522   3.979   9.146  0.7426  1.0471 -0.6270
  173SAPI  C21419615   2.301   4.027   9.146 -0.3164  0.1793  0.2994
  173SAPI  H14R19616   2.215   4.050   9.211  0.6344 -2.1644  2.4759
  173SAPI  C21519617   2.284   4.007   9.014  0.2896  0.0460  0.4309
  173SAPI  H15R19618   2.188   4.037   8.971  0.7548  0.3999 -0.3736
  173SAPI  C21619619   2.390   3.970   8.912 -0.3558  0.0575  0.7483
  173SAPI  H16R19620   2.380   3.864   8.881 -4.5116  0.0542  1.7655
  173SAPI  H16S19621   2.492   3.976   8.954 -0.4819 -0.0653  1.0710
  173SAPI  C21719622   2.389   4.060   8.786 -0.4786 -0.0342 -0.3434
  173SAPI  H17R19623   2.428   4.159   8.819 -2.1414  0.0158  1.5739
  173SAPI  H17S19624   2.286   4.059   8.746 -0.6436  0.6791  0.0648
  173SAPI  C21819625   2.489   4.011   8.672  0.3656 -0.4805  0.6358
  173SAPI  H18R19626   2.458   3.909   8.640  2.1558 -1.6757  2.5842
  173SAPI  H18S19627   2.593   4.003   8.709 -0.6167 -1.5385  3.3278
  173SAPI  C21919628   2.484   4.103   8.556 -0.5863 -0.9527  0.0319
  173SAPI  H19R19629   2.517   4.203   8.592 -2.0207 -1.4131  2.7199
  173SAPI  H19S19630   2.379   4.109   8.521 -0.6870 -0.2875  0.4283
  173SAPI  C22019631   2.585   4.072   8.448  0.8354 -0.0197 -0.3418
  173SAPI  H20R19632   2.549   4.120   8.354 -1.6249 -0.2728  0.4309
  173SAPI  H20S19633   2.597   3.964   8.429 -0.0697 -0.4029  1.1885
  173SAPI  H20T19634   2.683   4.114   8.479  1.7373 -0.2528 -2.7434
  173SAPI   C3319635   2.397   3.364   9.947 -0.0434  0.1197 -0.1206
  173SAPI   H3X19636   2.307   3.428   9.938  1.0093  1.6095 -0.1219
  173SAPI   H3Y19637   2.348   3.264   9.942  0.1667  0.1143 -2.2746
  173SAPI   C3419638   2.488   3.382   9.827  0.4841 -0.5596  0.0625
  173SAPI   H4X19639   2.592   3.347   9.844  0.6359 -0.1167  0.0593
  173SAPI   H4Y19640   2.511   3.489   9.812 -3.7033  0.3368 -0.6429
  173SAPI   C3519641   2.435   3.323   9.691 -0.1226 -0.3879  0.0545
  173SAPI   H5X19642   2.332   3.364   9.689 -0.4977 -1.3561 -1.1949
  173SAPI   H5Y19643   2.425   3.212   9.691 -1.4744 -0.2725  1.1459
  173SAPI   C3619644   2.517   3.381   9.570 -0.6339 -0.4032 -0.2992
  173SAPI   H6X19645   2.625   3.371   9.595 -0.3493  1.3087 -0.8129
  173SAPI   H6Y19646   2.479   3.485   9.562 -3.2836 -1.1004  2.4416
  173SAPI   C3719647   2.487   3.313   9.437 -0.3967  0.1688  0.3071
  173SAPI   H7X19648   2.521   3.379   9.355 -0.2685  2.2361  1.9708
  173SAPI   H7Y19649   2.380   3.282   9.432 -0.2333 -0.3766  0.0793
  173SAPI   C3819650   2.571   3.185   9.419  0.0828  0.2632  0.9872
  173SAPI   H8X19651   2.563   3.119   9.507  1.9769  0.2442  1.1702
  173SAPI   H8Y19652   2.679   3.209   9.422  0.1346  0.2103 -0.1702
  173SAPI   C3919653   2.548   3.107   9.282  0.9384  0.0025  0.3584
  173SAPI   H9X19654   2.571   3.187   9.208 -0.8404 -1.7315 -2.0921
  173SAPI   H9Y19655   2.443   3.080   9.262  0.0786  1.8479  2.1674
  173SAPI  C31019656   2.631   2.981   9.254  0.4468 -0.0778  0.1918
  173SAPI  H10X19657   2.600   2.892   9.311  1.6880 -0.4335  0.3281
  173SAPI  H10Y19658   2.732   2.999   9.297  1.2453 -1.0418 -1.2106
  173SAPI  C31119659   2.633   2.954   9.102 -0.1304 -0.5392 -0.0003
  173SAPI  H11X19660   2.701   3.029   9.057  0.6202  0.0455  2.0597
  173SAPI  H11Y19661   2.531   2.961   9.060  0.8261  3.3881 -1.8589
  173SAPI  C31219662   2.703   2.815   9.067  0.1837 -0.9205 -0.5738
  173SAPI  H12X19663   2.648   2.740   9.127 -3.4761  0.9124 -1.4520
  173SAPI  H12Y19664   2.808   2.827   9.101 -0.1106 -1.5711  0.5819
  173SAPI  C31319665   2.687   2.779   8.921 -1.1288  0.3403  0.1585
  173SAPI  H13X19666   2.716   2.860   8.851 -2.8879 -0.9882 -2.1669
  173SAPI  H13Y19667   2.581   2.753   8.901 -0.5796 -1.0711 -0.9601
  173SAPI  C31419668   2.780   2.661   8.880  0.5232  0.7176 -0.6707
  173SAPI  H14X19669   2.813   2.601   8.967 -0.3570  0.6380 -0.3890
  173SAPI  H14Y19670   2.867   2.720   8.843  1.9513  0.4568  2.2110
  173SAPI  C31519671   2.719   2.554   8.790 -0.7515 -0.5815 -0.8332
  173SAPI  H15X19672   2.615   2.561   8.828  0.3984 -0.3530  2.3517
  173SAPI  H15Y19673   2.766   2.457   8.818  0.2161  0.5037  1.3377
  173SAPI  C31619674   2.735   2.590   8.645  0.5108  0.7287  0.7298
  173SAPI  H16X19675   2.842   2.614   8.629  0.2778 -0.3399 -2.8000
  173SAPI  H16Y19676   2.685   2.687   8.625  0.8567  0.6463 -0.6083
  173SAPI  C31719677   2.679   2.485   8.548  0.1642 -0.1246 -0.1153
  173SAPI  H17X19678   2.596   2.440   8.607 -0.2485 -1.3769 -1.6017
  173SAPI  H17Y19679   2.755   2.406   8.533 -1.5408 -2.1862  1.7205
  173SAPI  C31819680   2.632   2.541   8.416  0.3286  0.3748 -0.0382
  173SAPI  H18X19681   2.540   2.600   8.439 -0.8668 -2.1368  1.9464
  173SAPI  H18Y19682   2.609   2.466   8.337 -1.0486  0.3583  0.3567
  173SAPI  H18Z19683   2.708   2.604   8.366  0.4497 -1.3984 -2.1632
  174SAPI   C1219684   6.271   4.930  11.214 -0.8059 -0.4502  0.3613
  174SAPI    H219685   6.326   4.835  11.196 -1.6304 -0.5094 -2.1146
  174SAPI    O219686   6.162   4.903  11.301  0.0376 -0.1791 -0.1554
  174SAPI   HO219687   6.096   4.862  11.245  0.5970 -0.3870 -0.6770
  174SAPI   C1319688   6.363   5.021  11.290  0.1865 -0.0122  0.4677
  174SAPI    H319689   6.455   5.043  11.231 -0.6860 -0.1774 -0.9839
  174SAPI    O319690   6.405   4.963  11.420 -1.0036 -0.2911 -0.2402
  174SAPI   HO319691   6.325   4.947  11.470 -0.2453  0.2339  1.1508
  174SAPI   C1419692   6.287   5.150  11.304 -0.3780  0.0392  0.4195
  174SAPI    H419693   6.191   5.147  11.359 -0.6243  2.7608  0.1903
  174SAPI    O419694   6.372   5.244  11.376 -0.1096  0.3136  0.2983
  174SAPI   HO419695   6.331   5.328  11.353  0.5646  1.1497  2.0969
  174SAPI   C1519696   6.249   5.213  11.165 -0.1329 -0.5309  0.2951
  174SAPI    H519697   6.349   5.222  11.117  0.1231 -0.9436  0.7437
  174SAPI    O519698   6.194   5.343  11.170 -0.0851 -0.0244 -0.2251
  174SAPI   HO519699   6.210   5.399  11.094  1.2212  0.2720  0.2638
  174SAPI   C1619700   6.161   5.115  11.088  0.0383 -0.5530 -0.1561
  174SAPI    H619701   6.064   5.106  11.141 -0.6209  2.6606 -0.7464
  174SAPI    O619702   6.138   5.170  10.958  0.3073  0.4278  0.1055
  174SAPI   HO619703   6.042   5.162  10.950  0.2534 -1.3684  2.2685
  174SAPI   C1119704   6.220   4.977  11.079 -0.6468 -0.3677 -0.5772
  174SAPI    H119705   6.301   4.986  11.003 -1.3640 -1.2627 -1.4667
  174SAPI     P19706   6.141   4.778  10.929 -0.3842  0.2291  0.1323
  174SAPI   O1319707   6.041   4.670  10.948 -0.1215  0.1341 -0.3243
  174SAPI   O1419708   6.283   4.735  10.942 -0.0291 -0.1379  0.0432
  174SAPI   O1219709   6.109   4.894  11.044 -0.5183 -0.4175  0.4072
  174SAPI   O1119710   6.130   4.842  10.782 -0.1095 -0.2946  0.2589
  174SAPI    C119711   6.025   4.924  10.742 -0.6355  0.6726  0.0751
  174SAPI    HA19712   5.977   4.989  10.818 -1.2866  0.9317 -0.5509
  174SAPI    HB19713   6.055   4.999  10.666  0.8214  2.1767  2.0936
  174SAPI    C219714   5.901   4.836  10.684 -0.5621 -0.4759 -0.4890
  174SAPI    HS19715   5.870   4.787  10.779  3.6643 -1.7679  0.3003
  174SAPI   O2119716   5.949   4.728  10.596  0.3896 -0.1606  0.1990
  174SAPI   C2119717   5.867   4.624  10.581 -0.4805 -0.4019 -0.3270
  174SAPI   O2219718   5.764   4.608  10.640 -0.0893  0.4067 -0.3837
  174SAPI   C2219719   5.932   4.530  10.473 -0.0633 -0.0640  0.3784
  174SAPI   H2R19720   5.940   4.590  10.380  1.8643  1.3976  1.4481
  174SAPI   H2S19721   6.038   4.514  10.502  0.2001  0.8149 -0.0652
  174SAPI    C319722   5.799   4.928  10.621 -0.0048 -0.3226  0.7200
  174SAPI    HX19723   5.793   5.012  10.694 -0.9078 -0.3324  0.6585
  174SAPI    HY19724   5.699   4.881  10.611 -0.4194  0.5809  0.5197
  174SAPI   O3119725   5.848   4.975  10.492 -0.5004 -0.1142  0.3796
  174SAPI   C3119726   5.824   4.903  10.388  0.1530  0.1769 -0.1304
  174SAPI   O3219727   5.758   4.799  10.382 -0.3759  0.6919  0.2213
  174SAPI   C3219728   5.901   4.966  10.265 -0.0444 -0.0968 -0.0925
  174SAPI   H2X19729   6.010   4.962  10.284  0.3838 -2.9497 -2.8197
  174SAPI   H2Y19730   5.883   5.076  10.258  1.3736  0.0452 -1.8962
  174SAPI   C2319731   5.861   4.393  10.455  0.0480 -1.2774  0.2203
  174SAPI   H3R19732   5.844   4.347  10.554  0.9564 -0.0450  0.9653
  174SAPI   H3S19733   5.935   4.322  10.412  0.0975  0.1581 -2.2055
  174SAPI   C2419734   5.728   4.393  10.378 -0.2329 -0.5090  0.1161
  174SAPI   H4R19735   5.653   4.454  10.434  2.3047 -0.0051  3.1229
  174SAPI   H4S19736   5.694   4.288  10.395 -1.2975 -0.3234 -0.8028
  174SAPI   C2519737   5.739   4.424  10.226 -0.0066 -0.1782 -0.4237
  174SAPI   H5R19738   5.779   4.525  10.209 -1.6092  0.5691  0.1043
  174SAPI   C2619739   5.697   4.344  10.124 -0.7501 -0.1942  0.5927
  174SAPI   H6R19740   5.730   4.370  10.022  0.6742 -1.2190  0.7705
  174SAPI   C2719741   5.635   4.213  10.139 -0.4996  0.2176 -0.4889
  174SAPI   H7R19742   5.598   4.171  10.043 -1.9918  0.9073 -0.2182
  174SAPI   H7S19743   5.544   4.218  10.202  0.3519 -1.2682  0.8818
  174SAPI   C2819744   5.730   4.113  10.209  0.7626  0.6595 -0.1764
  174SAPI   H8R19745   5.716   4.095  10.317 -2.7778 -0.6076 -0.7888
  174SAPI   C2919746   5.819   4.031  10.149  0.0669  0.8817  0.7093
  174SAPI   H9R19747   5.887   3.982  10.220  1.1408  1.9939  0.4644
  174SAPI  C21019748   5.847   4.021  10.004  0.0574  0.2911  0.1583
  174SAPI  H10R19749   5.945   3.969   9.996 -0.0905 -0.1782  1.2191
  174SAPI  H10S19750   5.883   4.117   9.961  0.9452  0.0737  0.3933
  174SAPI  C21119751   5.738   3.929   9.934  0.6157 -0.2768  0.1805
  174SAPI  H11R19752   5.672   3.883  10.009 -0.7503  2.3222  0.6226
  174SAPI  C21219753   5.719   3.907   9.803 -0.2110 -0.6226 -0.1413
  174SAPI  H12R19754   5.640   3.840   9.767 -0.7716 -0.0222 -0.0488
  174SAPI  C21319755   5.797   3.977   9.696  0.4258 -0.1321 -0.1317
  174SAPI  H13R19756   5.805   3.901   9.615 -1.3930 -0.3802 -0.0989
  174SAPI  H13S19757   5.901   3.991   9.732  0.0560  1.0193  0.4766
  174SAPI  C21419758   5.733   4.112   9.662  0.0308  0.0200  0.0347
  174SAPI  H14R19759   5.734   4.186   9.743  1.9305  0.3603 -0.2863
  174SAPI  C21519760   5.678   4.145   9.546 -0.3132 -0.0861  0.9085
  174SAPI  H15R19761   5.639   4.248   9.540 -0.7136 -0.3160 -0.7585
  174SAPI  C21619762   5.664   4.063   9.426  0.0918  0.2893 -0.3299
  174SAPI  H16R19763   5.564   4.081   9.382 -1.1850 -0.8880  1.9785
  174SAPI  H16S19764   5.665   3.954   9.448  3.8989  0.3530  0.1530
  174SAPI  C21719765   5.776   4.073   9.328 -0.6180  0.2191  0.4334
  174SAPI  H17R19766   5.847   3.996   9.367 -0.4250 -0.9001 -2.0113
  174SAPI  H17S19767   5.832   4.169   9.322  2.4907 -1.5404 -0.2905
  174SAPI  C21819768   5.737   4.025   9.188 -0.2973 -0.0453  0.0254
  174SAPI  H18R19769   5.677   4.107   9.142  0.6760 -0.4152 -1.9554
  174SAPI  H18S19770   5.678   3.933   9.207 -1.1019  0.3766 -0.4337
  174SAPI  C21919771   5.856   3.988   9.103  0.0957  0.3713 -0.1876
  174SAPI  H19R19772   5.943   3.957   9.164  0.3138 -0.3686 -0.8839
  174SAPI  H19S19773   5.875   4.075   9.037 -3.9662  1.6156  0.1309
  174SAPI  C22019774   5.820   3.873   9.014 -0.1082  0.3435 -0.6189
  174SAPI  H20R19775   5.913   3.829   8.973  1.3865  1.7250  1.2314
  174SAPI  H20S19776   5.750   3.893   8.930  1.4138  0.5144 -1.8531
  174SAPI  H20T19777   5.774   3.785   9.065  1.6282  0.9461  2.0822
  174SAPI   C3319778   5.871   4.883  10.135  0.4355  0.3043 -0.9226
  174SAPI   H3X19779   5.767   4.911  10.106  1.4232  2.2491 -2.7270
  174SAPI   H3Y19780   5.879   4.777  10.169  1.7808  1.0178  1.0901
  174SAPI   C3419781   5.958   4.928  10.021  0.3826 -0.0012 -0.1745
  174SAPI   H4X19782   6.064   4.897  10.031  0.4064 -0.1997 -1.0338
  174SAPI   H4Y19783   5.980   5.037  10.020  1.0448 -0.1327 -0.0676
  174SAPI   C3519784   5.920   4.877   9.882 -0.5605 -0.6078 -0.2855
  174SAPI   H5X19785   5.813   4.895   9.857  0.4468  1.6617 -3.1866
  174SAPI   H5Y19786   5.931   4.768   9.905 -1.0937 -0.8023 -0.9517
  174SAPI   C3619787   6.008   4.933   9.769  0.5039  0.9456 -0.6401
  174SAPI   H6X19788   6.098   4.868   9.757 -2.0357 -3.3316  2.0244
  174SAPI   H6Y19789   6.045   5.034   9.797  2.5918 -0.3134  1.3786
  174SAPI   C3719790   5.920   4.944   9.641 -0.1962 -0.1885  0.5451
  174SAPI   H7X19791   5.851   5.029   9.655 -0.1226  0.4556 -2.6848
  174SAPI   H7Y19792   5.851   4.857   9.639  0.1748 -0.4577 -0.9253
  174SAPI   C3819793   6.002   4.936   9.508  0.1476 -0.0808  0.2221
  174SAPI   H8X19794   6.091   4.870   9.517 -0.9645 -1.3450  2.4436
  174SAPI   H8Y19795   6.028   5.043   9.491 -0.9439  0.0255 -0.8447
  174SAPI   C3919796   5.913   4.898   9.393  0.5707  0.1135 -0.3318
  174SAPI   H9X19797   5.814   4.949   9.395  0.4990 -0.0811  1.8468
  174SAPI   H9Y19798   5.898   4.789   9.399  1.0104  0.1753  3.0980
  174SAPI  C31019799   5.982   4.928   9.263  0.1197 -0.3696 -0.7414
  174SAPI  H10X19800   6.075   4.869   9.254  0.2398 -1.0022  3.5554
  174SAPI  H10Y19801   6.012   5.033   9.243  1.1367 -0.8333 -1.6553
  174SAPI  C31119802   5.888   4.882   9.148  0.3881 -0.3734 -0.2019
  174SAPI  H11X19803   5.783   4.905   9.177  0.0322  2.0178 -3.1943
  174SAPI  H11Y19804   5.889   4.771   9.146 -1.0770 -0.3865 -0.6570
  174SAPI  C31219805   5.930   4.932   9.006 -0.4540 -0.1743  0.5513
  174SAPI  H12X19806   6.030   4.888   8.988 -0.0477  0.4038  1.4170
  174SAPI  H12Y19807   5.945   5.042   9.003 -0.8400 -0.1507 -1.0423
  174SAPI  C31319808   5.833   4.885   8.901  0.1787  0.6249  0.2454
  174SAPI  H13X19809   5.730   4.923   8.919  0.0873  0.3630  0.2623
  174SAPI  H13Y19810   5.835   4.775   8.909 -1.0679  0.6551  1.0740
  174SAPI  C31419811   5.885   4.930   8.760  0.0049  0.4081  0.2585
  174SAPI  H14X19812   5.979   4.878   8.734 -0.8346 -1.0296  0.0609
  174SAPI  H14Y19813   5.893   5.041   8.758  1.2516  0.3314  0.6890
  174SAPI  C31519814   5.767   4.886   8.672  0.1494  0.6564  0.4304
  174SAPI  H15X19815   5.690   4.966   8.667  0.1545  0.5828 -0.9322
  174SAPI  H15Y19816   5.727   4.795   8.721  0.8812  0.3671  0.5059
  174SAPI  C31619817   5.814   4.862   8.532  0.3307  0.9920  0.4571
  174SAPI  H16X19818   5.889   4.780   8.534 -2.8394 -1.9826  1.3326
  174SAPI  H16Y19819   5.857   4.952   8.483 -0.4320  2.3473  2.1874
  174SAPI  C31719820   5.700   4.822   8.435  0.8861  0.1300  0.5180
  174SAPI  H17X19821   5.747   4.807   8.335  0.9586  0.4603  0.4997
  174SAPI  H17Y19822   5.625   4.901   8.410  0.9915 -0.3781 -1.5312
  174SAPI  C31819823   5.614   4.696   8.470 -0.5054  0.1632 -0.8218
  174SAPI  H18X19824   5.547   4.727   8.553 -1.0481  0.5081 -1.3877
  174SAPI  H18Y19825   5.666   4.602   8.497 -0.4187  0.8855  1.6465
  174SAPI  H18Z19826   5.542   4.676   8.388  1.4552  0.9182 -2.8004
  175SAPI   C1219827   1.979   2.330   5.893  0.5422 -0.1084  0.4250
  175SAPI    H219828   2.056   2.408   5.915  0.0439  0.6535 -0.4925
  175SAPI    O219829   1.877   2.392   5.812  0.8581  0.1580 -0.7203
  175SAPI   HO219830   1.917   2.461   5.759  1.7307 -0.7106 -1.2122
  175SAPI   C1319831   2.028   2.205   5.830 -0.1627  0.1991 -0.0667
  175SAPI    H319832   2.100   2.160   5.902  2.2629  0.6004 -2.1988
  175SAPI    O319833   2.104   2.240   5.714 -0.1235 -0.0536 -0.0107
  175SAPI   HO319834   2.061   2.287   5.642 -1.2685  0.0456  0.7343
  175SAPI   C1419835   1.918   2.101   5.805 -0.5016 -0.7258 -0.1529
  175SAPI    H419836   1.829   2.139   5.751 -0.8563  0.1492  1.0355
  175SAPI    O419837   1.963   1.995   5.716 -0.0587 -0.2586  0.0171
  175SAPI   HO419838   2.058   2.004   5.714  0.1920 -2.4137  0.3595
  175SAPI   C1519839   1.861   2.060   5.942  0.3388  0.1709  0.0727
  175SAPI    H519840   1.932   2.011   6.012 -0.3420 -0.3741  0.3892
  175SAPI    O519841   1.754   1.969   5.917 -0.2738 -0.8770  0.5250
  175SAPI   HO519842   1.781   1.882   5.888  0.6298 -0.0180 -1.2486
  175SAPI   C1619843   1.811   2.179   6.024  0.2508  0.0165  0.0418
  175SAPI    H619844   1.729   2.233   5.971  2.9353  2.3187 -1.8945
  175SAPI    O619845   1.779   2.138   6.154 -0.7701 -0.3977 -0.5215
  175SAPI   HO619846   1.700   2.188   6.174 -1.5509 -1.8757  0.1635
  175SAPI   C1119847   1.922   2.284   6.032 -0.0645 -0.1609  0.4616
  175SAPI    H119848   2.008   2.235   6.084 -0.5882  0.2804  1.7540
  175SAPI     P19849   1.986   2.474   6.219  0.3326 -0.0018 -0.1624
  175SAPI   O1319850   2.030   2.593   6.143  0.1299  0.0756 -0.0030
  175SAPI   O1419851   2.085   2.372   6.264 -0.6538  0.2074  0.4124
  175SAPI   O1219852   1.878   2.397   6.111  0.0064  0.3642 -0.0580
  175SAPI   O1119853   1.897   2.505   6.342  0.6284 -0.0767 -0.1015
  175SAPI    C119854   1.795   2.597   6.329  0.7493 -0.9937 -0.9323
  175SAPI    HA19855   1.828   2.694   6.372  0.4077 -0.9008 -0.8859
  175SAPI    HB19856   1.749   2.608   6.228 -0.9749 -1.6967 -0.2392
  175SAPI    C219857   1.679   2.564   6.421  0.2836  0.1254  0.3440
  175SAPI    HS19858   1.607   2.648   6.424  2.0775  1.7582 -0.9800
  175SAPI   O2119859   1.736   2.533   6.549  0.3093 -0.1587 -0.8766
  175SAPI   C2119860   1.722   2.625   6.639  0.2329 -0.1052  0.0925
  175SAPI   O2219861   1.646   2.721   6.635 -0.6144 -0.2102  0.0932
  175SAPI   C2219862   1.811   2.590   6.758 -0.0544 -0.5371 -0.0671
  175SAPI   H2R19863   1.815   2.480   6.766 -0.3785 -0.4375  1.6450
  175SAPI   H2S19864   1.911   2.632   6.733 -2.4151  5.1752 -0.8809
  175SAPI    C319865   1.611   2.434   6.368 -0.5937  0.0165 -0.1471
  175SAPI    HX19866   1.675   2.351   6.331 -2.3445 -2.1420  1.5408
  175SAPI    HY19867   1.553   2.461   6.277  0.7557 -1.1488 -1.3909
  175SAPI   O3119868   1.517   2.378   6.463  0.5383 -0.6159 -0.3374
  175SAPI   C3119869   1.563   2.271   6.532 -0.2554 -0.3809  0.4828
  175SAPI   O3219870   1.680   2.236   6.534  0.6215 -0.4363  0.1378
  175SAPI   C3219871   1.444   2.201   6.603 -0.0088 -0.5747 -0.1944
  175SAPI   H2X19872   1.368   2.175   6.527  0.7136  0.0469 -1.1339
  175SAPI   H2Y19873   1.411   2.259   6.692  4.2201  1.2452  0.3203
  175SAPI   C2319874   1.754   2.637   6.893 -0.3189 -0.5915 -0.5454
  175SAPI   H3R19875   1.726   2.744   6.901 -0.3109 -0.6857  0.8328
  175SAPI   H3S19876   1.839   2.613   6.962 -1.0305 -1.3479  0.0773
  175SAPI   C2419877   1.646   2.552   6.957  0.7782  0.4038  0.4211
  175SAPI   H4R19878   1.645   2.573   7.066 -0.8157  0.7233  0.3622
  175SAPI   H4S19879   1.660   2.442   6.954 -2.0662  0.0087 -0.6842
  175SAPI   C2519880   1.514   2.590   6.894 -0.2551 -0.1055  0.1804
  175SAPI   H5R19881   1.497   2.533   6.801  0.5965  1.3124 -0.8561
  175SAPI   C2619882   1.422   2.677   6.943  0.7455 -0.0389 -0.1616
  175SAPI   H6R19883   1.323   2.686   6.897  2.2303  2.7586 -3.0264
  175SAPI   C2719884   1.449   2.764   7.062  0.0328  0.3852  0.1437
  175SAPI   H7R19885   1.425   2.869   7.035 -0.8402 -0.2997 -1.8378
  175SAPI   H7S19886   1.558   2.758   7.082  0.2262 -0.2317 -1.0316
  175SAPI   C2819887   1.360   2.734   7.174 -0.3123 -0.1742 -0.5134
  175SAPI   H8R19888   1.266   2.688   7.138  0.1631 -1.1672 -0.4869
  175SAPI   C2919889   1.369   2.759   7.306  0.2154 -0.9770  0.2432
  175SAPI   H9R19890   1.286   2.738   7.375 -0.8129 -0.9413 -0.9628
  175SAPI  C21019891   1.481   2.827   7.381  0.3690  0.2756  0.1482
  175SAPI  H10R19892   1.446   2.917   7.436  0.7107  0.8137 -0.4922
  175SAPI  H10S19893   1.556   2.877   7.315  0.2500  0.1260 -0.1015
  175SAPI  C21119894   1.558   2.731   7.472 -0.6025  0.1985 -0.4229
  175SAPI  H11R19895   1.606   2.649   7.417  3.8880  1.1969  1.7634
  175SAPI  C21219896   1.580   2.738   7.605 -0.4377  0.0127 -0.0740
  175SAPI  H12R19897   1.644   2.663   7.653  2.5785  2.8737  0.5665
  175SAPI  C21319898   1.526   2.853   7.698 -0.1913  0.5613 -0.1879
  175SAPI  H13R19899   1.476   2.933   7.639  0.5338  0.3391 -1.0983
  175SAPI  H13S19900   1.610   2.906   7.748  1.4825 -1.8214 -0.3873
  175SAPI  C21419901   1.425   2.807   7.805 -0.4642  0.2020  0.4108
  175SAPI  H14R19902   1.379   2.710   7.784 -0.3817 -0.4587  3.1229
  175SAPI  C21519903   1.399   2.862   7.927 -0.2461 -0.0000 -0.1063
  175SAPI  H15R19904   1.320   2.814   7.986 -1.1675  0.4053 -0.9861
  175SAPI  C21619905   1.465   2.983   7.989  0.0778  0.4293  0.2991
  175SAPI  H16R19906   1.424   3.079   7.951 -0.0283  0.9599  1.7115
  175SAPI  H16S19907   1.576   2.987   7.978  0.3974 -2.1254  2.0507
  175SAPI  C21719908   1.447   2.974   8.144  0.2578  1.0364 -0.3061
  175SAPI  H17R19909   1.517   2.894   8.176  0.3905  1.0610 -0.5272
  175SAPI  H17S19910   1.344   2.944   8.172  1.5095 -4.2322 -0.8466
  175SAPI  C21819911   1.480   3.112   8.213 -0.4664 -0.5049  0.2681
  175SAPI  H18R19912   1.403   3.184   8.178 -0.9778  0.1273  2.6616
  175SAPI  H18S19913   1.578   3.141   8.171  0.1018  0.1749  2.0241
  175SAPI  C21919914   1.476   3.105   8.372 -0.8664 -0.2040 -0.3889
  175SAPI  H19R19915   1.506   3.206   8.408  0.5515 -0.1629 -1.6360
  175SAPI  H19S19916   1.551   3.029   8.401  0.9846  1.6163 -0.3205
  175SAPI  C22019917   1.344   3.058   8.432 -1.0664 -0.3264 -0.1249
  175SAPI  H20R19918   1.270   3.131   8.393  0.4740  1.1164 -0.3903
  175SAPI  H20S19919   1.350   3.067   8.542 -1.4544  1.2169 -0.2242
  175SAPI  H20T19920   1.314   2.952   8.417  1.3839 -1.3769  2.1840
  175SAPI   C3319921   1.487   2.060   6.657  0.3868 -0.1791 -0.2650
  175SAPI   H3X19922   1.545   2.005   6.579 -0.1870  0.7483 -1.3715
  175SAPI   H3Y19923   1.391   2.011   6.683  0.3700  0.3395  0.6505
  175SAPI   C3419924   1.574   2.058   6.775 -0.8379  0.7367  0.2049
  175SAPI   H4X19925   1.674   2.095   6.742 -0.3197  1.8560  2.8858
  175SAPI   H4Y19926   1.597   1.960   6.822 -0.2413  0.7727 -0.0080
  175SAPI   C3519927   1.513   2.133   6.892 -0.2777 -0.1704 -0.2255
  175SAPI   H5X19928   1.411   2.090   6.898 -0.2008 -0.3019  0.1376
  175SAPI   H5Y19929   1.508   2.236   6.851 -2.3940 -0.1922 -0.0880
  175SAPI   C3619930   1.586   2.133   7.029  0.1946 -0.0212  0.2856
  175SAPI   H6X19931   1.679   2.193   7.025  1.2515 -1.5720  0.9576
  175SAPI   H6Y19932   1.623   2.033   7.059 -1.6458 -0.3721  1.4696
  175SAPI   C3719933   1.505   2.187   7.147  0.2369  0.1704 -0.0654
  175SAPI   H7X19934   1.431   2.117   7.192 -1.2575  0.6145 -1.7890
  175SAPI   H7Y19935   1.460   2.284   7.118 -0.1759  0.8421  2.6271
  175SAPI   C3819936   1.604   2.235   7.264 -0.0291  0.5834  0.6377
  175SAPI   H8X19937   1.683   2.303   7.224  0.2482 -0.9979 -1.6264
  175SAPI   H8Y19938   1.649   2.143   7.306  1.0155  0.8359  0.0918
  175SAPI   C3919939   1.523   2.296   7.383  0.3940 -0.2520 -0.5706
  175SAPI   H9X19940   1.433   2.235   7.406 -1.5526  2.6919 -0.1402
  175SAPI   H9Y19941   1.476   2.393   7.354 -2.1736  0.1917  4.5273
  175SAPI  C31019942   1.603   2.317   7.514  0.0601 -0.1204  0.0515
  175SAPI  H10X19943   1.691   2.383   7.498 -1.2716  1.6445 -0.2373
  175SAPI  H10Y19944   1.654   2.219   7.525 -0.6289 -0.4737  0.1149
  175SAPI  C31119945   1.513   2.357   7.632  0.7264  0.1606  0.2833
  175SAPI  H11X19946   1.404   2.337   7.623  0.4805  0.6101  2.0378
  175SAPI  H11Y19947   1.518   2.468   7.623 -1.6360  0.3121  0.5292
  175SAPI  C31219948   1.570   2.314   7.766 -0.5181  0.2049 -0.2603
  175SAPI  H12X19949   1.619   2.214   7.769 -1.3569 -0.1924  0.3413
  175SAPI  H12Y19950   1.485   2.310   7.838 -0.9126 -3.8640 -0.8181
  175SAPI  C31319951   1.668   2.419   7.819  0.4495  0.1022  0.1175
  175SAPI  H13X19952   1.620   2.516   7.845 -2.4763 -0.4672 -2.7522
  175SAPI  H13Y19953   1.747   2.442   7.744 -0.8113  0.0195 -1.2808
  175SAPI  C31419954   1.740   2.369   7.946  0.3816 -0.0595  0.4910
  175SAPI  H14X19955   1.815   2.450   7.960  0.1798  0.2475 -0.2044
  175SAPI  H14Y19956   1.806   2.283   7.920 -2.8973 -2.1885 -1.0482
  175SAPI  C31519957   1.643   2.350   8.066 -0.2965  0.4769  0.5467
  175SAPI  H15X19958   1.573   2.268   8.038  2.8848 -1.6787 -1.4797
  175SAPI  H15Y19959   1.583   2.442   8.080 -0.7086 -0.1306  3.0417
  175SAPI  C31619960   1.737   2.331   8.191 -0.1511  0.3231 -0.5355
  175SAPI  H16X19961   1.806   2.416   8.206 -0.9513  1.1610 -1.5248
  175SAPI  H16Y19962   1.801   2.243   8.166  1.0732  1.6198 -2.1189
  175SAPI  C31719963   1.672   2.289   8.328  0.3939 -0.3293 -0.0838
  175SAPI  H17X19964   1.757   2.261   8.394 -0.4573 -1.7700  0.4146
  175SAPI  H17Y19965   1.610   2.197   8.324  1.6868 -1.2727  1.1368
  175SAPI  C31819966   1.612   2.409   8.405  0.2254 -1.0736  0.7080
  175SAPI  H18X19967   1.661   2.507   8.390  0.2185 -1.3921 -1.4986
  175SAPI  H18Y19968   1.605   2.396   8.516  0.0587  2.7300  1.2024
  175SAPI  H18Z19969   1.509   2.433   8.372  0.3481 -0.6412  0.6387
  176SAPI   C1219970   1.086   1.467   6.402  0.3554  0.4344 -0.3069
  176SAPI    H219971   1.018   1.384   6.374 -0.0133  0.3323  0.8438
  176SAPI    O219972   1.167   1.493   6.287  0.0042 -0.1225 -0.2595
  176SAPI   HO219973   1.128   1.438   6.219 -2.4923 -0.1919  1.1824
  176SAPI   C1319974   1.008   1.597   6.441 -0.2983 -1.0204  0.9959
  176SAPI    H319975   0.942   1.564   6.524 -0.0915  0.3551  1.7182
  176SAPI    O319976   0.935   1.647   6.327 -0.0698  0.1590  0.0429
  176SAPI   HO319977   0.844   1.620   6.343  0.2367  0.0708  1.6553
  176SAPI   C1419978   1.105   1.702   6.491 -0.2092  0.4460  0.0907
  176SAPI    H419979   1.175   1.745   6.416 -0.6010  1.7223  0.4491
  176SAPI    O419980   1.038   1.817   6.535 -0.2752 -0.0442 -0.2237
  176SAPI   HO419981   0.962   1.831   6.478 -0.9038 -1.9718  0.1129
  176SAPI   C1519982   1.196   1.647   6.601  0.0708  0.0546  0.4334
  176SAPI    H519983   1.132   1.634   6.691  1.1607  0.9652  1.3559
  176SAPI    O519984   1.290   1.746   6.639  0.3586 -0.0231 -0.2041
  176SAPI   HO519985   1.317   1.735   6.731  0.3204  2.0799  0.0776
  176SAPI   C1619986   1.263   1.516   6.570  0.1289  0.6274  0.3850
  176SAPI    H619987   1.338   1.527   6.489  0.4736  2.3163  0.9118
  176SAPI    O619988   1.323   1.476   6.688 -0.2024  0.1266  0.1661
  176SAPI   HO619989   1.256   1.433   6.741 -2.4559  2.6757 -0.4758
  176SAPI   C1119990   1.164   1.413   6.522  0.0520 -0.6316  0.1609
  176SAPI    H119991   1.095   1.404   6.609 -2.2951  0.0061 -1.5700
  176SAPI     P19992   1.212   1.156   6.595  0.3409 -0.0260  0.1863
  176SAPI   O1319993   1.217   1.024   6.519  0.3731 -0.9507  0.4846
  176SAPI   O1419994   1.101   1.171   6.689 -1.0977 -0.1348 -0.1609
  176SAPI   O1219995   1.230   1.286   6.495 -0.7591 -0.0264  0.0626
  176SAPI   O1119996   1.342   1.157   6.696 -0.2210 -0.3064  0.1342
  176SAPI    C119997   1.374   1.048   6.785 -0.1625  0.5964  0.1049
  176SAPI    HA19998   1.331   0.957   6.739  0.8821 -0.8077  1.8154
  176SAPI    HB19999   1.483   1.027   6.770  0.4023  4.4559 -1.6094
  176SAPI    C220000   1.341   1.074   6.928 -0.3547  0.2931 -0.6454
  176SAPI    HS20001   1.378   0.990   6.990 -1.1140  0.5349  0.1556
  176SAPI   O2120002   1.202   1.093   6.957  0.2663  0.3269 -0.2595
  176SAPI   C2120003   1.125   0.990   6.944 -0.0680 -0.8572 -0.3722
  176SAPI   O2220004   1.157   0.875   6.909 -0.4338  0.1614 -0.0367
  176SAPI   C2220005   0.982   1.027   6.984  0.1907 -0.0189 -0.1200
  176SAPI   H2R20006   0.971   1.133   7.013 -3.1314  0.7369 -3.8120
  176SAPI   H2S20007   0.923   1.010   6.892  1.5024 -0.0481 -0.9791
  176SAPI    C320008   1.411   1.207   6.970  0.1709  0.2654  0.2204
  176SAPI    HX20009   1.362   1.299   6.932 -0.9339 -0.3090  0.2309
  176SAPI    HY20010   1.518   1.210   6.942  0.1525 -2.4328 -0.2999
  176SAPI   O3120011   1.417   1.207   7.112  0.0614  0.0871  0.1440
  176SAPI   C3120012   1.332   1.281   7.180  0.3170 -0.3206 -0.2179
  176SAPI   O3220013   1.234   1.331   7.131 -0.7613 -0.3066 -0.0892
  176SAPI   C3220014   1.368   1.284   7.328  0.1791 -0.1704  0.4005
  176SAPI   H2X20015   1.453   1.356   7.332 -2.0378  2.5479 -0.2674
  176SAPI   H2Y20016   1.388   1.177   7.351 -0.2007 -0.1645  0.7514
  176SAPI   C2320017   0.924   0.936   7.092  0.1921 -0.2471 -0.2097
  176SAPI   H3R20018   0.931   0.833   7.051  0.6663 -0.2583 -0.1006
  176SAPI   H3S20019   0.816   0.955   7.112  0.2793 -0.9222  0.9683
  176SAPI   C2420020   1.003   0.956   7.217 -0.2281 -0.6637 -0.2313
  176SAPI   H4R20021   1.113   0.951   7.203 -0.4085  0.5190 -2.1829
  176SAPI   H4S20022   0.987   0.873   7.290  0.8164  0.8085  1.7243
  176SAPI   C2520023   0.960   1.078   7.293  0.0294 -0.1925  0.6732
  176SAPI   H5R20024   0.997   1.171   7.250  0.9527  0.4300  2.7558
  176SAPI   C2620025   0.883   1.091   7.408  0.4145 -0.9096  0.4061
  176SAPI   H6R20026   0.841   1.192   7.419  0.0184 -1.1170  0.8025
  176SAPI   C2720027   0.820   0.982   7.488  0.1171 -0.5022  0.5261
  176SAPI   H7R20028   0.846   0.886   7.438  2.1497 -0.0768  0.7495
  176SAPI   H7S20029   0.710   0.997   7.485  0.5772  2.8471 -1.7372
  176SAPI   C2820030   0.872   0.960   7.628  0.2188 -0.1268 -1.1033
  176SAPI   H8R20031   0.953   0.887   7.645 -1.7317 -1.8247  1.5530
  176SAPI   C2920032   0.833   1.029   7.739 -0.4002 -0.0662  0.2251
  176SAPI   H9R20033   0.872   1.008   7.840  0.2148 -0.5027 -0.0978
  176SAPI  C21020034   0.721   1.134   7.737 -0.6423  0.0228 -0.6634
  176SAPI  H10R20035   0.672   1.150   7.638  1.2847  0.2824 -1.5941
  176SAPI  H10S20036   0.766   1.229   7.771 -4.5952  1.5825  0.4923
  176SAPI  C21120037   0.611   1.113   7.838 -1.3718 -0.0602 -0.2205
  176SAPI  H11R20038   0.515   1.087   7.790 -1.7217  0.0301  0.4130
  176SAPI  C21220039   0.620   1.122   7.976  0.0497  0.1839 -0.3246
  176SAPI  H12R20040   0.530   1.102   8.036 -0.1006  0.0946 -0.5793
  176SAPI  C21320041   0.741   1.157   8.056 -0.5547 -0.5387  0.0343
  176SAPI  H13R20042   0.831   1.112   8.009  0.5328 -1.3332  2.7678
  176SAPI  H13S20043   0.747   1.092   8.146  0.7943 -2.6103 -1.5052
  176SAPI  C21420044   0.758   1.305   8.084  0.0598  0.2601  0.1121
  176SAPI  H14R20045   0.732   1.371   8.000 -1.5967 -0.7435 -0.1845
  176SAPI  C21520046   0.811   1.346   8.200  0.6627  0.3921  0.7019
  176SAPI  H15R20047   0.816   1.455   8.216  0.6487  0.1801  2.3034
  176SAPI  C21620048   0.848   1.273   8.322  0.5436 -0.1048  0.0014
  176SAPI  H16R20049   0.851   1.164   8.300  1.2774  0.2614 -1.8050
  176SAPI  H16S20050   0.782   1.295   8.408 -0.0036 -1.2401 -0.1151
  176SAPI  C21720051   0.989   1.304   8.370  0.1760 -0.4565  0.1862
  176SAPI  H17R20052   1.001   1.279   8.478  0.9109 -1.4533 -0.1230
  176SAPI  H17S20053   1.005   1.414   8.360  2.0394 -0.7060  0.2572
  176SAPI  C21820054   1.086   1.222   8.282  0.1408  0.6319  0.4955
  176SAPI  H18R20055   1.088   1.255   8.176 -0.3323  2.5416  1.0557
  176SAPI  H18S20056   1.048   1.118   8.287  1.6357 -0.0855 -2.2075
  176SAPI  C21920057   1.233   1.235   8.333  1.0950 -1.1373 -0.4053
  176SAPI  H19R20058   1.244   1.345   8.339 -1.4500 -0.8595 -0.3744
  176SAPI  H19S20059   1.293   1.201   8.245  0.4041  0.4801 -1.5351
  176SAPI  C22020060   1.264   1.148   8.459  1.0814 -0.4044  0.5780
  176SAPI  H20R20061   1.374   1.134   8.464  1.2257  1.1160  2.2019
  176SAPI  H20S20062   1.220   1.047   8.450  1.3915 -0.3985 -1.1100
  176SAPI  H20T20063   1.223   1.200   8.549  1.0140  0.5014  0.0370
  176SAPI   C3320064   1.270   1.346   7.430  0.4600  0.0318 -0.1739
  176SAPI   H3X20065   1.171   1.297   7.420 -0.9704  2.5896  1.1049
  176SAPI   H3Y20066   1.253   1.453   7.409  0.5358  0.2556  0.8624
  176SAPI   C3420067   1.325   1.334   7.572 -0.8873  0.4691  0.5202
  176SAPI   H4X20068   1.368   1.234   7.590 -0.2062  0.3210 -1.7397
  176SAPI   H4Y20069   1.236   1.349   7.637 -0.3658  0.7346  1.1856
  176SAPI   C3520070   1.441   1.429   7.616 -0.3543 -0.9259  0.8394
  176SAPI   H5X20071   1.427   1.526   7.564 -1.4347 -1.8699 -0.6630
  176SAPI   H5Y20072   1.546   1.397   7.598  0.2261  1.1714  0.3468
  176SAPI   C3620073   1.431   1.459   7.769 -0.6601  0.0745  0.2188
  176SAPI   H6X20074   1.426   1.356   7.812 -2.1069  0.5901  1.3139
  176SAPI   H6Y20075   1.330   1.497   7.794 -0.4110  0.4724  0.6333
  176SAPI   C3720076   1.541   1.552   7.820  0.0260  0.7847  0.4488
  176SAPI   H7X20077   1.508   1.650   7.779 -0.0197  0.9825  0.9617
  176SAPI   H7Y20078   1.640   1.516   7.785 -0.7838  0.5921 -1.7282
  176SAPI   C3820079   1.540   1.572   7.968 -0.1082 -1.4622  0.3341
  176SAPI   H8X20080   1.441   1.613   7.998  1.2519  1.0529  1.4741
  176SAPI   H8Y20081   1.608   1.657   7.987  0.3966 -1.1040 -2.7403
  176SAPI   C3920082   1.592   1.446   8.042  0.3333 -0.2761 -0.0964
  176SAPI   H9X20083   1.700   1.434   8.019  0.2377 -0.8713 -0.2447
  176SAPI   H9Y20084   1.535   1.360   7.999  1.6273 -0.1852 -2.0377
  176SAPI  C31020085   1.567   1.464   8.192  0.0252  0.5264  0.0629
  176SAPI  H10X20086   1.457   1.467   8.204 -0.0464  0.4608 -0.5555
  176SAPI  H10Y20087   1.614   1.553   8.238  0.4355  0.3295  0.0293
  176SAPI  C31120088   1.595   1.340   8.268  0.2612  0.5582  0.1304
  176SAPI  H11X20089   1.571   1.245   8.217 -0.4543 -0.0757  1.6149
  176SAPI  H11Y20090   1.522   1.343   8.352  0.8876  1.3161  0.6717
  176SAPI  C31220091   1.734   1.333   8.325 -0.1846  0.3875 -0.1738
  176SAPI  H12X20092   1.779   1.434   8.337 -1.7824  0.8615  1.9005
  176SAPI  H12Y20093   1.798   1.285   8.247  2.1765  1.4508  1.0338
  176SAPI  C31320094   1.738   1.271   8.470  0.1027  0.1795  0.5177
  176SAPI  H13X20095   1.657   1.196   8.473 -0.6677  0.9117 -1.2000
  176SAPI  H13Y20096   1.721   1.350   8.546 -0.4355 -0.3367  0.9362
  176SAPI  C31420097   1.863   1.193   8.503  0.2694  0.7835  0.7866
  176SAPI  H14X20098   1.949   1.258   8.532  0.5519  1.4173 -1.3687
  176SAPI  H14Y20099   1.883   1.127   8.416 -0.6491 -0.4649  1.5157
  176SAPI  C31520100   1.831   1.112   8.624 -0.5480  0.1750 -0.6291
  176SAPI  H15X20101   1.771   1.022   8.599 -0.5390 -0.9548  3.0570
  176SAPI  H15Y20102   1.774   1.174   8.697  0.4815  0.9873 -0.5061
  176SAPI  C31620103   1.957   1.048   8.687  0.4397 -0.2803 -0.0325
  176SAPI  H16X20104   2.035   1.127   8.694 -0.9461  1.2517 -1.3156
  176SAPI  H16Y20105   1.981   0.979   8.603 -2.0061 -0.2580 -0.7731
  176SAPI  C31720106   1.932   0.991   8.823 -0.1718  0.3619 -0.3659
  176SAPI  H17X20107   1.840   0.929   8.816 -0.0303  0.2655 -1.5713
  176SAPI  H17Y20108   1.923   1.078   8.892  1.4349 -1.5880  2.3734
  176SAPI  C31820109   2.039   0.894   8.877 -0.2075 -0.0029 -0.4371
  176SAPI  H18X20110   2.029   0.874   8.985 -1.7825 -2.1964 -0.9704
  176SAPI  H18Y20111   2.140   0.936   8.857  1.5801 -3.2824  1.3170
  176SAPI  H18Z20112   2.034   0.798   8.822  2.1708 -0.1913 -0.3788
  177SLPC     N20113   0.652   5.083  10.978  0.1136  0.2382  0.3235
  177SLPC   C1320114   0.758   5.179  11.009 -0.9627  0.0931  0.0933
  177SLPC  H13A20115   0.855   5.133  10.999 -1.6720 -1.1055 -1.4935
  177SLPC  H13B20116   0.755   5.259  10.937 -0.9287 -0.8186 -0.9474
  177SLPC  H13C20117   0.731   5.242  11.092  0.0862 -2.2523  2.2516
  177SLPC   C1420118   0.632   5.002  11.103  0.4154 -0.6985  0.4729
  177SLPC  H14A20119   0.561   4.926  11.075  0.5426  0.1045 -2.1707
  177SLPC  H14B20120   0.728   4.959  11.129  1.6017  1.9202  0.6453
  177SLPC  H14C20121   0.610   5.075  11.180  2.0616  0.5343 -0.1712
  177SLPC   C1520122   0.715   4.982  10.885 -0.3131  0.1508  0.5386
  177SLPC  H15A20123   0.793   4.929  10.937 -1.3173 -2.0484 -0.1308
  177SLPC  H15B20124   0.649   4.901  10.857 -0.6143  1.1768 -1.8964
  177SLPC  H15C20125   0.766   5.027  10.802 -0.8905  2.0295  1.1806
  177SLPC   C1220126   0.525   5.136  10.926  0.1680  0.4547 -0.3640
  177SLPC  H12A20127   0.469   5.191  11.000 -0.3845  0.9208 -1.1132
  177SLPC  H12B20128   0.464   5.054  10.892  1.7926 -0.7216 -0.4615
  177SLPC   C1120129   0.532   5.233  10.798  0.0240  0.1067  0.2068
  177SLPC  H11A20130   0.429   5.238  10.757  1.0852  1.6829 -2.3852
  177SLPC  H11B20131   0.596   5.196  10.716 -0.1677 -1.0816  0.5812
  177SLPC     P20132   0.501   5.470  10.911 -0.0410  0.1937 -0.6196
  177SLPC   O1320133   0.362   5.437  10.890 -0.1155  0.4713 -0.1732
  177SLPC   O1420134   0.554   5.483  11.048 -0.0232 -0.3399 -0.0288
  177SLPC   O1220135   0.580   5.365  10.840  0.2199  0.1591  0.0204
  177SLPC   O1120136   0.535   5.606  10.842 -0.3684 -0.6316  0.6959
  177SLPC    C120137   0.665   5.626  10.776 -0.3270  0.5440 -0.2096
  177SLPC    HA20138   0.692   5.732  10.797  1.1714 -0.0733  1.0289
  177SLPC    HB20139   0.745   5.564  10.822  1.8749  2.7401 -0.9605
  177SLPC    C220140   0.669   5.597  10.617  0.2192  0.6424 -0.3834
  177SLPC    HS20141   0.779   5.597  10.598  0.2945  1.2865  0.0262
  177SLPC   O2120142   0.607   5.717  10.561  0.4942  0.0994 -0.6500
  177SLPC   C2120143   0.664   5.743  10.448 -0.1675 -0.0763 -0.6524
  177SLPC   O2220144   0.763   5.689  10.401 -0.1522  0.6748  1.1547
  177SLPC   C2220145   0.593   5.849  10.364 -0.7335 -0.6913  0.0772
  177SLPC   H2R20146   0.489   5.854  10.404  0.0126 -0.6750  2.0346
  177SLPC   H2S20147   0.629   5.947  10.400 -0.9516 -0.3125 -0.7257
  177SLPC    C320148   0.622   5.457  10.562  0.2568 -0.6052 -0.0825
  177SLPC    HX20149   0.529   5.432  10.617  0.3548 -0.8843 -0.0455
  177SLPC    HY20150   0.702   5.387  10.593 -0.8760 -1.5722  0.6800
  177SLPC   O3120151   0.583   5.457  10.421  0.2006  0.0225 -0.5760
  177SLPC   C3120152   0.658   5.371  10.346 -0.3186 -0.0616 -0.1608
  177SLPC   O3220153   0.742   5.294  10.387 -0.1870  0.3210  0.0413
  177SLPC   C3220154   0.609   5.375  10.202 -0.6535  0.2632 -0.0806
  177SLPC   H2X20155   0.502   5.402  10.187 -0.8003  0.2991  1.0045
  177SLPC   H2Y20156   0.616   5.271  10.161 -2.2339 -0.4129  1.3109
  177SLPC   C2320157   0.604   5.822  10.210  0.0088  0.8955  0.4057
  177SLPC   H3R20158   0.559   5.721  10.201  1.7564  0.2136 -0.9466
  177SLPC   H3S20159   0.710   5.816  10.178 -0.4776 -2.3432 -0.7524
  177SLPC   C2420160   0.528   5.937  10.138  0.7413 -0.3750  0.8171
  177SLPC   H4R20161   0.601   6.020  10.126 -1.2325  1.1217 -0.9363
  177SLPC   H4S20162   0.447   5.971  10.206 -0.0929 -0.0585 -0.3210
  177SLPC   C2520163   0.473   5.907  10.000 -0.0249  0.3541  0.5314
  177SLPC   H5R20164   0.430   5.997   9.952  0.5284  1.6120  2.3628
  177SLPC   H5S20165   0.395   5.827  10.003  0.8861 -0.5515  0.3109
  177SLPC   C2620166   0.584   5.868   9.901  0.5803  0.6444  0.3182
  177SLPC   H6R20167   0.618   5.765   9.924  0.3077  0.5408  0.2717
  177SLPC   H6S20168   0.680   5.922   9.908  1.0738 -0.3951  1.7719
  177SLPC   C2720169   0.543   5.878   9.753  0.6494  0.1356  0.2354
  177SLPC   H7R20170   0.538   5.986   9.724  0.9150 -0.3438 -1.6478
  177SLPC   H7S20171   0.445   5.826   9.750 -0.0283  1.3683  0.4893
  177SLPC   C2820172   0.635   5.789   9.658 -0.3896 -0.0866  0.6834
  177SLPC   H8R20173   0.663   5.694   9.708 -2.1146 -0.9686 -0.0197
  177SLPC   H8S20174   0.734   5.841   9.659 -0.9794  1.0606  0.4409
  177SLPC   C2920175   0.564   5.788   9.527 -0.3692  0.4489 -0.4209
  177SLPC   H9R20176   0.463   5.745   9.531  0.1531 -0.9632 -1.7233
  177SLPC  C21020177   0.612   5.820   9.409 -0.2764  0.2946 -0.2291
  177SLPC  H10R20178   0.546   5.798   9.324 -2.0753 -1.3902  1.5219
  177SLPC  C21120179   0.753   5.877   9.378 -0.2461 -0.0332 -0.6564
  177SLPC  H11R20180   0.739   5.983   9.347  0.7802  0.0568 -0.8175
  177SLPC  H11S20181   0.817   5.889   9.468 -0.3137  0.4902 -0.6761
  177SLPC  C21220182   0.824   5.782   9.285  1.0022 -0.3063  0.8732
  177SLPC  H12R20183   0.889   5.706   9.331  2.1224  1.1487  1.7401
  177SLPC  C21320184   0.820   5.796   9.151  0.3711 -0.3171 -0.0155
  177SLPC  H13R20185   0.873   5.718   9.094 -0.6734 -0.4830 -0.7662
  177SLPC  C21420186   0.749   5.899   9.071  0.0713  0.1381 -0.1607
  177SLPC  H14R20187   0.681   5.971   9.122  0.1645  0.0234  0.1244
  177SLPC  H14S20188   0.682   5.850   8.997 -1.8219  3.2357 -0.5825
  177SLPC  C21520189   0.857   5.974   8.985 -0.3774 -0.2962  0.0109
  177SLPC  H15R20190   0.924   5.908   8.925 -0.3833  0.0887 -0.4152
  177SLPC  H15S20191   0.924   6.031   9.052  0.3731 -0.1414 -0.8562
  177SLPC  C21620192   0.793   6.075   8.880 -1.0978  1.0608 -0.2692
  177SLPC  H16R20193   0.866   6.150   8.843  1.1189 -0.5095  0.8674
  177SLPC  H16S20194   0.721   6.137   8.938 -1.7053  1.4029 -1.3777
  177SLPC  C21720195   0.730   6.009   8.759 -0.2559  0.1858  1.0203
  177SLPC  H17R20196   0.658   5.926   8.775 -1.0750  0.6553 -0.1950
  177SLPC  H17S20197   0.820   5.961   8.714 -0.0988 -1.1388  2.6849
  177SLPC  C21820198   0.673   6.117   8.659 -0.2537  0.1931  0.1579
  177SLPC  H18R20199   0.569   6.135   8.694 -0.1645 -1.0123  1.0944
  177SLPC  H18S20200   0.668   6.079   8.555 -0.6976  0.8565 -0.0679
  177SLPC  H18T20201   0.737   6.208   8.663  0.6653 -0.3450 -1.6366
  177SLPC   C3320202   0.706   5.454  10.115 -0.1846  0.6074 -0.0263
  177SLPC   H3X20203   0.808   5.436  10.157 -1.0706 -1.7934  1.1895
  177SLPC   H3Y20204   0.692   5.565  10.119 -1.3771  0.4533  0.1873
  177SLPC   C3420205   0.685   5.415   9.968 -0.7884  0.0596  0.1931
  177SLPC   H4X20206   0.598   5.475   9.936  0.4699  2.2675  0.8255
  177SLPC   H4Y20207   0.657   5.307   9.959  2.2929 -0.6510 -1.5048
  177SLPC   C3520208   0.801   5.461   9.872 -0.2430  0.2328 -0.7037
  177SLPC   H5X20209   0.902   5.427   9.903 -0.7858 -0.7345  0.0213
  177SLPC   H5Y20210   0.800   5.572   9.877 -0.6746  0.1774  0.5293
  177SLPC   C3620211   0.787   5.429   9.724 -0.0601  0.2045 -0.3932
  177SLPC   H6X20212   0.696   5.481   9.686  0.2493  0.1235 -1.2491
  177SLPC   H6Y20213   0.759   5.321   9.722  1.0007 -0.1220  1.1694
  177SLPC   C3720214   0.908   5.457   9.640 -0.0748  0.6493 -0.3610
  177SLPC   H7X20215   0.988   5.388   9.675 -3.0266 -1.9347  1.5882
  177SLPC   H7Y20216   0.941   5.563   9.646 -1.0587  0.8813  1.2776
  177SLPC   C3820217   0.883   5.424   9.494  0.0127  0.4106 -0.0883
  177SLPC   H8X20218   0.814   5.492   9.438  0.4240  0.7626 -0.1657
  177SLPC   H8Y20219   0.835   5.324   9.486 -2.0533  1.4658 -1.3771
  177SLPC   C3920220   1.005   5.405   9.409  0.6186  0.3878  0.2018
  177SLPC   H9X20221   1.071   5.322   9.443 -0.8632 -0.1443  1.8184
  177SLPC   H9Y20222   1.078   5.488   9.401  2.1864 -0.7027  2.5939
  177SLPC  C31020223   0.968   5.356   9.269  0.2877  0.3950  0.1789
  177SLPC  H10X20224   0.905   5.426   9.210  0.5633  0.4537 -0.0450
  177SLPC  H10Y20225   0.905   5.265   9.275 -1.1533  1.3122 -0.7616
  177SLPC  C31120226   1.098   5.317   9.192  1.1114  0.4023 -0.4928
  177SLPC  H11X20227   1.133   5.220   9.233 -0.9658  0.2156  0.8842
  177SLPC  H11Y20228   1.171   5.401   9.199 -0.5193  1.7449  0.8597
  177SLPC  C31220229   1.062   5.283   9.046  0.2606 -0.3077 -0.2627
  177SLPC  H12X20230   0.961   5.237   9.048 -0.2287  0.7509 -0.0331
  177SLPC  H12Y20231   1.137   5.208   9.013 -0.4478 -1.7078  1.2549
  177SLPC  C31320232   1.077   5.403   8.946 -0.5916  0.5870  0.2286
  177SLPC  H13X20233   1.024   5.492   8.987  0.0533 -0.0029  2.4399
  177SLPC  H13Y20234   1.031   5.384   8.847  1.1208 -0.4426 -0.3848
  177SLPC  C31420235   1.225   5.442   8.916 -0.1613  0.1321 -1.0677
  177SLPC  H14X20236   1.284   5.374   8.981 -1.1245  0.9237  0.6621
  177SLPC  H14Y20237   1.245   5.551   8.924  0.2058  0.2600 -3.4090
  177SLPC  C31520238   1.265   5.419   8.771  1.1109  0.2950  0.5556
  177SLPC  H15X20239   1.205   5.472   8.695  1.2985 -1.6398 -0.9750
  177SLPC  H15Y20240   1.258   5.309   8.760 -0.0980  0.7127 -3.7039
  177SLPC  C31620241   1.411   5.463   8.747  0.3389 -0.5948 -0.5830
  177SLPC  H16X20242   1.420   5.570   8.774 -1.9304 -0.3366 -0.8073
  177SLPC  H16Y20243   1.436   5.459   8.639  0.0477  1.3133 -0.7293
  177SLPC  C31720244   1.522   5.394   8.833 -0.1774  0.1657  0.5096
  177SLPC  H17X20245   1.517   5.283   8.834 -2.3085  0.2623  1.6885
  177SLPC  H17Y20246   1.492   5.429   8.934 -1.1920  1.8944 -0.3816
  177SLPC  C31820247   1.673   5.437   8.814  1.4499  0.8747  0.2431
  177SLPC  H18X20248   1.690   5.547   8.809 -1.4793  1.6286  4.6831
  177SLPC  H18Y20249   1.697   5.406   8.710 -0.0162  0.8189 -0.0991
  177SLPC  H18Z20250   1.734   5.387   8.892  1.1900  0.9674  0.5072
  178SLPC     N20251   2.800   6.642  10.924  0.4681 -0.6241 -0.1883
  178SLPC   C1320252   2.918   6.591  11.002 -0.2057 -0.5724 -0.4756
  178SLPC  H13A20253   2.966   6.663  11.067  2.4189 -1.5185 -1.3306
  178SLPC  H13B20254   2.879   6.511  11.064  0.9279 -0.0416  0.9683
  178SLPC  H13C20255   3.001   6.556  10.942 -2.4535 -2.6055 -2.5082
  178SLPC   C1420256   2.681   6.664  11.014  0.5457 -0.4802  0.2045
  178SLPC  H14A20257   2.611   6.727  10.963 -0.5237 -0.2582  1.9202
  178SLPC  H14B20258   2.638   6.575  11.057 -0.9687  0.5270  0.8177
  178SLPC  H14C20259   2.722   6.720  11.096  1.5008  0.7554 -1.0831
  178SLPC   C1520260   2.765   6.535  10.829 -0.3500  0.5123 -0.4860
  178SLPC  H15A20261   2.678   6.565  10.773 -0.0674  0.9151 -0.7129
  178SLPC  H15B20262   2.848   6.508  10.765 -1.2999 -2.2503 -0.6452
  178SLPC  H15C20263   2.734   6.447  10.884 -1.1596  0.4691 -1.0072
  178SLPC   C1220264   2.847   6.768  10.863  0.6259  0.5660 -0.9939
  178SLPC  H12A20265   2.921   6.744  10.788 -1.2470 -1.1201 -2.3647
  178SLPC  H12B20266   2.890   6.834  10.937 -1.9517  0.4057  0.7306
  178SLPC   C1120267   2.730   6.837  10.777  0.1765 -0.3641  0.2163
  178SLPC  H11A20268   2.695   6.763  10.702  0.8934 -0.6408  0.1442
  178SLPC  H11B20269   2.782   6.913  10.714 -0.2468  0.4372  0.8255
  178SLPC     P20270   2.631   7.030  10.923 -0.2455 -0.3061 -0.2474
  178SLPC   O1320271   2.495   7.061  10.966 -0.3849 -0.5260 -0.4085
  178SLPC   O1420272   2.746   7.047  11.020 -0.1393 -0.1140  0.8077
  178SLPC   O1220273   2.623   6.887  10.858 -0.0837 -0.3295  0.0054
  178SLPC   O1120274   2.666   7.122  10.805 -0.5791  0.6305 -0.0488
  178SLPC    C120275   2.574   7.192  10.717 -0.0479 -0.1795  0.2948
  178SLPC    HA20276   2.479   7.208  10.772 -1.0019  0.5829 -1.5499
  178SLPC    HB20277   2.613   7.292  10.686 -1.4445 -0.3022 -2.0030
  178SLPC    C220278   2.527   7.111  10.588 -0.1780  0.0276 -1.0746
  178SLPC    HS20279   2.495   7.013  10.629  2.5022 -0.5087 -0.1683
  178SLPC   O2120280   2.640   7.093  10.504 -0.5715 -0.3938  0.0391
  178SLPC   C2120281   2.639   6.981  10.430  0.1062  0.4416  0.2519
  178SLPC   O2220282   2.554   6.894  10.443 -0.1376  0.1911  0.4628
  178SLPC   C2220283   2.775   6.978  10.353  0.6756  0.1624 -0.0329
  178SLPC   H2R20284   2.819   7.076  10.324  0.7989 -0.2285 -1.1856
  178SLPC   H2S20285   2.845   6.925  10.421 -0.3516  1.7867  2.3881
  178SLPC    C320286   2.408   7.171  10.511 -0.0469  0.0395 -0.3684
  178SLPC    HX20287   2.432   7.275  10.480 -0.3903 -0.7660 -3.5283
  178SLPC    HY20288   2.317   7.186  10.573  0.6823  1.2542  0.4334
  178SLPC   O3120289   2.368   7.094  10.388 -0.5576 -0.3245  0.2906
  178SLPC   C3120290   2.295   6.978  10.408 -0.5615  0.6913  0.6646
  178SLPC   O3220291   2.278   6.929  10.520  0.0295 -0.6682 -0.0657
  178SLPC   C3220292   2.238   6.926  10.274  0.5738  0.0162  0.0996
  178SLPC   H2X20293   2.244   7.010  10.202 -0.8801  0.6314  0.6789
  178SLPC   H2Y20294   2.135   6.889  10.295  0.6122  0.1691  0.5635
  178SLPC   C2320295   2.769   6.889  10.228 -0.3194  0.0564 -0.3235
  178SLPC   H3R20296   2.726   6.791  10.258 -1.1483  0.8468  1.1410
  178SLPC   H3S20297   2.875   6.867  10.206 -0.1415 -0.0298  0.6012
  178SLPC   C2420298   2.687   6.943  10.110 -0.0079 -0.7450 -0.3197
  178SLPC   H4R20299   2.687   7.054  10.110 -0.5185 -0.7466 -0.1341
  178SLPC   H4S20300   2.583   6.913  10.136 -0.6687 -0.6303 -2.6383
  178SLPC   C2520301   2.738   6.886   9.972  0.0441  0.4825 -0.3613
  178SLPC   H5R20302   2.729   6.776   9.979 -0.0329  0.6397  2.1972
  178SLPC   H5S20303   2.849   6.900   9.972  0.1511 -0.2648 -1.4733
  178SLPC   C2620304   2.660   6.935   9.849 -0.4095 -0.2238  0.5143
  178SLPC   H6R20305   2.600   7.026   9.869 -0.3562 -0.3092  1.0639
  178SLPC   H6S20306   2.591   6.850   9.828  0.0471 -0.3797 -0.3616
  178SLPC   C2720307   2.740   6.959   9.726 -0.4171  0.1042  0.1747
  178SLPC   H7R20308   2.811   6.875   9.708 -0.6850 -0.0780 -0.0358
  178SLPC   H7S20309   2.794   7.055   9.737 -1.9232  0.8597  1.0672
  178SLPC   C2820310   2.652   6.966   9.593 -0.2098 -0.8470  0.6253
  178SLPC   H8R20311   2.706   7.024   9.515 -0.8265 -0.0983  0.7473
  178SLPC   H8S20312   2.559   7.020   9.621 -1.3054 -1.3746 -1.7964
  178SLPC   C2920313   2.622   6.828   9.540  0.4192 -0.2666 -0.1360
  178SLPC   H9R20314   2.567   6.756   9.604  0.3747  0.1520  0.2965
  178SLPC  C21020315   2.632   6.797   9.407  0.4337  0.2195 -0.2955
  178SLPC  H10R20316   2.593   6.698   9.379  0.1980  0.2742 -0.1598
  178SLPC  C21120317   2.674   6.882   9.297  0.6015  0.0929 -0.1557
  178SLPC  H11R20318   2.777   6.921   9.308  0.8915 -0.5334 -0.6895
  178SLPC  H11S20319   2.610   6.973   9.289  2.1410  1.3355  1.1947
  178SLPC  C21220320   2.670   6.792   9.171 -0.4735  0.0479  0.1862
  178SLPC  H12R20321   2.744   6.711   9.180 -0.4423 -0.0430 -0.8793
  178SLPC  C21320322   2.609   6.806   9.054 -0.4821  0.1479  0.1253
  178SLPC  H13R20323   2.632   6.723   8.985 -1.0663 -1.9668  2.4168
  178SLPC  C21420324   2.517   6.913   9.012 -0.3405  0.2113  0.3119
  178SLPC  H14R20325   2.562   7.010   9.042  1.3694  0.0875 -1.6874
  178SLPC  H14S20326   2.412   6.905   9.047 -0.5978 -1.6668 -0.7871
  178SLPC  C21520327   2.516   6.914   8.860 -0.1877 -0.3886  0.0769
  178SLPC  H15R20328   2.427   6.977   8.843 -0.5995 -0.4663  1.8926
  178SLPC  H15S20329   2.490   6.815   8.818 -0.2718 -0.8060  1.0951
  178SLPC  C21620330   2.638   6.972   8.790  0.2996 -0.8353  0.6108
  178SLPC  H16R20331   2.729   6.913   8.814  0.1736 -2.2608 -2.2553
  178SLPC  H16S20332   2.667   7.073   8.827  0.8050 -0.4969 -0.6836
  178SLPC  C21720333   2.632   6.984   8.633  0.6258 -0.4820  0.5178
  178SLPC  H17R20334   2.704   7.062   8.602  0.2048  0.1130  1.0289
  178SLPC  H17S20335   2.530   7.017   8.602  0.7073  0.5442  1.3255
  178SLPC  C21820336   2.693   6.858   8.564  0.0606 -0.2158 -0.0425
  178SLPC  H18R20337   2.709   6.882   8.456 -1.4833 -1.1953 -0.5032
  178SLPC  H18S20338   2.631   6.768   8.582  0.3129  0.0307  2.1680
  178SLPC  H18T20339   2.794   6.845   8.607 -0.0901 -1.7261 -0.1321
  178SLPC   C3320340   2.321   6.807  10.226 -0.6124 -0.2310 -0.8432
  178SLPC   H3X20341   2.302   6.722  10.295  1.4432  1.0332  1.3323
  178SLPC   H3Y20342   2.429   6.832  10.221 -0.8473  0.8438 -0.7136
  178SLPC   C3420343   2.257   6.752  10.103 -0.9863 -0.5178  0.6812
  178SLPC   H4X20344   2.192   6.835  10.067 -0.3912  0.1630  1.1817
  178SLPC   H4Y20345   2.175   6.682  10.130 -2.1554  1.0737  1.3153
  178SLPC   C3520346   2.350   6.709   9.991  1.0186 -0.3061  0.7755
  178SLPC   H5X20347   2.416   6.792   9.959  0.1333 -0.5569 -1.8943
  178SLPC   H5Y20348   2.294   6.684   9.898  2.1591  0.6498 -0.1897
  178SLPC   C3620349   2.451   6.590  10.022  0.4809  0.5984  0.3988
  178SLPC   H6X20350   2.398   6.495  10.043  0.5033  0.4484 -0.1917
  178SLPC   H6Y20351   2.517   6.619  10.106  0.6618 -0.2950  0.5734
  178SLPC   C3720352   2.544   6.550   9.901  0.9905 -0.4130  0.2225
  178SLPC   H7X20353   2.626   6.485   9.937 -0.0831 -1.7761  0.2367
  178SLPC   H7Y20354   2.595   6.643   9.867  5.9751 -2.8125  0.7149
  178SLPC   C3820355   2.473   6.488   9.785  1.6923 -0.3762  0.2325
  178SLPC   H8X20356   2.392   6.551   9.741  0.4637 -1.0821  1.4268
  178SLPC   H8Y20357   2.409   6.402   9.811  2.0231 -0.7019 -0.0317
  178SLPC   C3920358   2.564   6.450   9.666  0.3502  0.1042  0.6637
  178SLPC   H9X20359   2.639   6.377   9.705 -0.4800 -1.2380 -0.2168
  178SLPC   H9Y20360   2.630   6.535   9.641  0.8140  0.0672  1.7130
  178SLPC  C31020361   2.496   6.408   9.533  0.6804  0.0262 -0.0756
  178SLPC  H10X20362   2.441   6.498   9.499 -1.8267 -2.5382 -3.0854
  178SLPC  H10Y20363   2.435   6.316   9.540 -1.8371  1.6937  0.5319
  178SLPC  C31120364   2.610   6.389   9.428  0.5409 -0.6185 -0.6555
  178SLPC  H11X20365   2.686   6.311   9.449  0.6354 -0.9271 -2.1548
  178SLPC  H11Y20366   2.664   6.486   9.430  1.2440 -1.0134 -0.2007
  178SLPC  C31220367   2.554   6.377   9.292  0.0915  0.2058 -0.0997
  178SLPC  H12X20368   2.466   6.444   9.277  0.7874  0.9593 -0.8308
  178SLPC  H12Y20369   2.512   6.274   9.296 -2.8258  1.3475  0.2438
  178SLPC  C31320370   2.657   6.387   9.179 -0.2997 -0.4236  0.3862
  178SLPC  H13X20371   2.738   6.322   9.219 -1.7439 -2.1797  0.5040
  178SLPC  H13Y20372   2.695   6.488   9.154 -1.9441 -0.4463 -2.3915
  178SLPC  C31420373   2.617   6.321   9.042 -0.1959  0.2991 -0.3548
  178SLPC  H14X20374   2.594   6.213   9.054  0.6734  0.5132  4.3883
  178SLPC  H14Y20375   2.699   6.331   8.968  1.5769  0.0276  1.5010
  178SLPC  C31520376   2.489   6.391   8.993  0.5745  0.0379 -0.4480
  178SLPC  H15X20377   2.406   6.374   9.064  0.7340  0.8703 -0.0559
  178SLPC  H15Y20378   2.512   6.499   9.005  0.2636  0.0208  0.3565
  178SLPC  C31620379   2.430   6.355   8.853  0.2989  0.2706  0.0391
  178SLPC  H16X20380   2.349   6.430   8.840  1.0383  1.1081  0.2923
  178SLPC  H16Y20381   2.388   6.252   8.862 -1.4368  0.6451 -3.0699
  178SLPC  C31720382   2.517   6.365   8.729 -0.0261 -0.6903  0.8396
  178SLPC  H17X20383   2.460   6.331   8.640  0.7953  0.0090  0.0283
  178SLPC  H17Y20384   2.603   6.295   8.739  2.2894  1.6280 -1.9160
  178SLPC  C31820385   2.567   6.506   8.691 -0.5960  0.0262  0.6474
  178SLPC  H18X20386   2.613   6.554   8.780 -0.0001 -1.9030  1.4152
  178SLPC  H18Y20387   2.485   6.559   8.638  1.7184 -0.5375 -3.7384
  178SLPC  H18Z20388   2.642   6.501   8.609 -2.3697  0.0444 -1.0081
  179SLPC     N20389   4.471   3.078  10.729  0.3204 -0.2038 -0.2434
  179SLPC   C1320390   4.353   2.998  10.761 -0.3035  0.4976 -0.1952
  179SLPC  H13A20391   4.261   3.027  10.713 -1.1108 -1.3092  0.2057
  179SLPC  H13B20392   4.364   2.892  10.743 -1.9096  0.4185 -0.7611
  179SLPC  H13C20393   4.333   3.000  10.868  1.8597 -0.8176  0.2684
  179SLPC   C1420394   4.577   3.030  10.813 -0.2513 -0.3955 -0.4047
  179SLPC  H14A20395   4.541   2.998  10.910  2.4052 -0.2181  0.6901
  179SLPC  H14B20396   4.648   2.956  10.777  1.0795 -0.6048  2.4627
  179SLPC  H14C20397   4.645   3.113  10.822  0.7692 -1.2318 -0.1414
  179SLPC   C1520398   4.444   3.222  10.762 -0.1477  0.1077  0.7004
  179SLPC  H15A20399   4.393   3.227  10.857  2.3742 -3.2708  2.3548
  179SLPC  H15B20400   4.536   3.279  10.756  1.2419 -1.9038  1.9442
  179SLPC  H15C20401   4.373   3.255  10.688 -1.8525  0.7039  2.5473
  179SLPC   C1220402   4.505   3.080  10.580 -0.0132 -0.4558 -1.1787
  179SLPC  H12A20403   4.566   2.994  10.559  1.3747  0.2144 -0.0184
  179SLPC  H12B20404   4.570   3.164  10.562  0.6967 -0.8063 -0.3049
  179SLPC   C1120405   4.395   3.078  10.476 -0.1101  0.1650  0.1162
  179SLPC  H11A20406   4.335   2.986  10.484 -2.5843  1.6830 -0.5565
  179SLPC  H11B20407   4.451   3.078  10.380  0.8890  2.4929  0.6465
  179SLPC     P20408   4.194   3.225  10.399  0.0083  0.0500  0.4573
  179SLPC   O1320409   4.075   3.218  10.489 -0.4417  0.4818 -0.0480
  179SLPC   O1420410   4.213   3.353  10.327  0.5661  0.0435  0.3507
  179SLPC   O1220411   4.324   3.201  10.483  0.3333 -0.5416  0.0173
  179SLPC   O1120412   4.196   3.105  10.296 -0.0836  0.0770  0.1056
  179SLPC    C120413   4.261   3.115  10.170 -0.2737 -0.2240 -0.5066
  179SLPC    HA20414   4.348   3.184  10.178  0.2864 -1.0760  1.0164
  179SLPC    HB20415   4.310   3.020  10.138  1.0111  0.5832 -0.9539
  179SLPC    C220416   4.156   3.164  10.073  0.0339 -0.4922  1.1691
  179SLPC    HS20417   4.102   3.248  10.122  0.1187  0.2244  0.0342
  179SLPC   O2120418   4.068   3.054  10.040 -0.2610 -0.4888  0.3199
  179SLPC   C2120419   3.942   3.090  10.005 -0.1359  0.3496  0.1274
  179SLPC   O2220420   3.885   3.198  10.014 -0.2093 -0.4632 -0.7828
  179SLPC   C2220421   3.866   2.965   9.952 -0.1639  0.6149 -0.5193
  179SLPC   H2R20422   3.940   2.884   9.974  1.1205  1.7028 -0.7960
  179SLPC   H2S20423   3.775   2.951  10.014  1.3922  0.2527  1.7815
  179SLPC    C320424   4.221   3.214   9.938  0.0608  0.6875 -0.3614
  179SLPC    HX20425   4.275   3.128   9.892 -1.9613  0.0555 -1.5949
  179SLPC    HY20426   4.296   3.291   9.965  0.7399 -0.0485 -0.1059
  179SLPC   O3120427   4.124   3.256   9.847 -0.1226  0.0893  0.5021
  179SLPC   C3120428   4.084   3.387   9.854  0.3576 -0.6498 -0.0102
  179SLPC   O3220429   4.121   3.465   9.934 -0.5767  0.5697  0.1053
  179SLPC   C3220430   3.977   3.416   9.752 -0.0588 -0.4943  0.5421
  179SLPC   H2X20431   3.907   3.330   9.762  2.6539 -3.0561 -1.5317
  179SLPC   H2Y20432   4.025   3.412   9.652  0.5366  0.6501  0.7747
  179SLPC   C2320433   3.832   2.970   9.803  0.1094 -0.0285 -0.1590
  179SLPC   H3R20434   3.776   3.061   9.772  0.8306  0.4209 -0.1574
  179SLPC   H3S20435   3.770   2.881   9.778 -2.1578  1.0305  1.4637
  179SLPC   C2420436   3.960   2.965   9.721  0.1602  0.3108 -0.2188
  179SLPC   H4R20437   4.023   2.880   9.754  1.5093  0.4273 -2.3697
  179SLPC   H4S20438   4.028   3.050   9.740  0.1512  0.1594  0.5045
  179SLPC   C2520439   3.938   2.948   9.568 -0.0443 -0.7875 -0.4615
  179SLPC   H5R20440   3.864   3.022   9.531 -1.9832 -2.1057  0.6620
  179SLPC   H5S20441   3.888   2.851   9.546 -0.8729 -0.7415  1.0981
  179SLPC   C2620442   4.069   2.968   9.491 -0.0983 -0.5390  0.3351
  179SLPC   H6R20443   4.148   2.900   9.530 -0.0005  1.4369  3.7924
  179SLPC   H6S20444   4.107   3.068   9.522 -1.9713 -0.1203  1.3428
  179SLPC   C2720445   4.047   2.955   9.337 -0.8647 -0.0752 -0.4697
  179SLPC   H7R20446   3.983   3.035   9.296  0.5072  1.0787 -0.4178
  179SLPC   H7S20447   3.995   2.864   9.302 -0.3630  0.1340 -1.8123
  179SLPC   C2820448   4.182   2.972   9.260  0.5093  0.2843 -1.1427
  179SLPC   H8R20449   4.246   2.890   9.299  0.8748  1.4025  0.6464
  179SLPC   H8S20450   4.229   3.064   9.300 -1.2152  1.6331 -2.1805
  179SLPC   C2920451   4.172   2.964   9.110 -0.3108 -0.0952 -0.3961
  179SLPC   H9R20452   4.121   3.050   9.063 -0.9089 -0.5253 -0.5421
  179SLPC  C21020453   4.196   2.849   9.040  0.2862 -0.2695  0.2286
  179SLPC  H10R20454   4.181   2.849   8.931 -1.5640 -0.3933  0.4701
  179SLPC  C21120455   4.241   2.716   9.091 -0.3744  0.3001  1.0641
  179SLPC  H11R20456   4.143   2.668   9.111  0.3900 -1.9841 -0.4369
  179SLPC  H11S20457   4.292   2.718   9.190  4.2345 -2.3181 -1.0624
  179SLPC  C21220458   4.320   2.632   8.993  0.1072 -0.1033  0.1441
  179SLPC  H12R20459   4.429   2.646   8.992  0.3550 -1.8974  0.2399
  179SLPC  C21320460   4.272   2.534   8.910  0.4286 -0.3682 -0.1377
  179SLPC  H13R20461   4.357   2.493   8.854  0.2455  1.1477 -1.5476
  179SLPC  C21420462   4.128   2.483   8.885 -0.0777  0.4350 -0.4173
  179SLPC  H14R20463   4.054   2.553   8.930  1.6576  2.2653 -0.3658
  179SLPC  H14S20464   4.123   2.383   8.934 -2.3938  0.6939 -0.0481
  179SLPC  C21520465   4.109   2.465   8.736 -0.6053 -0.1543 -0.1882
  179SLPC  H15R20466   4.066   2.363   8.718  0.9871 -0.8011 -0.4102
  179SLPC  H15S20467   4.204   2.462   8.680  0.0527 -0.6126  0.9391
  179SLPC  C21620468   4.005   2.572   8.677 -0.8430  0.6091  0.1509
  179SLPC  H16R20469   4.045   2.670   8.711  0.3966  0.1823 -0.0541
  179SLPC  H16S20470   3.907   2.560   8.728 -2.2780  0.4605 -2.5673
  179SLPC  C21720471   3.986   2.579   8.522  0.2158  0.3555  0.1020
  179SLPC  H17R20472   3.959   2.479   8.483  0.2242 -0.1616  1.3900
  179SLPC  H17S20473   4.083   2.614   8.481 -0.3700 -1.1668 -2.6654
  179SLPC  C21820474   3.881   2.678   8.486 -0.9823 -0.2386  0.4465
  179SLPC  H18R20475   3.883   2.721   8.383 -0.4836  0.4146  0.7294
  179SLPC  H18S20476   3.892   2.771   8.546  0.5663  1.7909 -2.8349
  179SLPC  H18T20477   3.780   2.636   8.506 -1.3099 -0.3140 -1.2774
  179SLPC   C3320478   3.896   3.547   9.776  0.0125 -0.7568  0.5034
  179SLPC   H3X20479   3.967   3.632   9.764 -3.6458  2.1872 -1.5392
  179SLPC   H3Y20480   3.850   3.544   9.877 -0.0438  1.3549  0.5791
  179SLPC   C3420481   3.769   3.551   9.681  0.6469 -0.5910 -0.3623
  179SLPC   H4X20482   3.693   3.620   9.722  0.7933 -1.7137  1.8886
  179SLPC   H4Y20483   3.719   3.452   9.688 -0.5515  0.0313  0.0388
  179SLPC   C3520484   3.802   3.601   9.539  0.1088 -0.1739 -0.3552
  179SLPC   H5X20485   3.712   3.591   9.474  0.2463  1.5945 -0.8406
  179SLPC   H5Y20486   3.872   3.530   9.490 -1.1566 -0.7046 -1.4317
  179SLPC   C3620487   3.862   3.744   9.533 -0.3634 -0.6226  0.1014
  179SLPC   H6X20488   3.957   3.762   9.588 -0.2822 -1.8719  0.3946
  179SLPC   H6Y20489   3.789   3.816   9.576 -1.0562 -0.2542 -1.6790
  179SLPC   C3720490   3.887   3.782   9.390  0.0000 -0.1922  0.1877
  179SLPC   H7X20491   3.793   3.766   9.333  0.3684 -0.8930 -0.2159
  179SLPC   H7Y20492   3.964   3.711   9.354  0.1909  0.6598 -1.0849
  179SLPC   C3820493   3.932   3.930   9.378 -0.6281  0.0555  0.0974
  179SLPC   H8X20494   4.034   3.944   9.421 -0.7231  1.8137 -0.2414
  179SLPC   H8Y20495   3.874   3.994   9.448  1.4224 -0.2015  2.1350
  179SLPC   C3920496   3.932   3.998   9.239 -0.2001 -0.4217 -0.6304
  179SLPC   H9X20497   3.844   3.971   9.176 -1.0044 -1.1498  0.7914
  179SLPC   H9Y20498   4.020   3.965   9.179  1.3665  2.5223 -0.0511
  179SLPC  C31020499   3.944   4.151   9.256  0.5296 -0.3244 -1.0946
  179SLPC  H10X20500   4.028   4.173   9.327 -1.9870  1.7502  1.3575
  179SLPC  H10Y20501   3.842   4.179   9.289  1.1492 -0.2363  0.8580
  179SLPC  C31120502   3.971   4.232   9.124  0.4470  0.2242  0.4963
  179SLPC  H11X20503   3.948   4.159   9.043 -0.8455 -1.3431  2.2176
  179SLPC  H11Y20504   4.076   4.267   9.121 -0.2169  2.2126 -0.9365
  179SLPC  C31220505   3.885   4.355   9.106  0.2232  0.0608  0.2361
  179SLPC  H12X20506   3.907   4.427   9.188 -0.0805  1.0767 -0.5538
  179SLPC  H12Y20507   3.779   4.324   9.095 -0.2599  2.2449 -1.7462
  179SLPC  C31320508   3.907   4.428   8.969  0.0311  0.4024  0.1365
  179SLPC  H13X20509   3.911   4.345   8.895 -0.8528  0.0267  0.5091
  179SLPC  H13Y20510   4.010   4.470   8.967 -0.0231  0.5885  1.2402
  179SLPC  C31420511   3.806   4.528   8.928  0.0665 -0.1985  0.1300
  179SLPC  H14X20512   3.791   4.599   9.013  0.1885 -0.4919  0.3972
  179SLPC  H14Y20513   3.711   4.482   8.896 -0.3303  1.8840 -1.8486
  179SLPC  C31520514   3.862   4.615   8.809 -0.0515 -0.1436 -0.2776
  179SLPC  H15X20515   3.881   4.553   8.719 -1.0476  2.3695 -2.2667
  179SLPC  H15Y20516   3.952   4.671   8.842 -0.8013  1.1244 -0.3368
  179SLPC  C31620517   3.760   4.722   8.770 -0.0892  0.1408 -0.2245
  179SLPC  H16X20518   3.742   4.790   8.856 -0.4159 -1.0469  0.6534
  179SLPC  H16Y20519   3.661   4.676   8.752 -0.7333 -0.0947  3.4976
  179SLPC  C31720520   3.799   4.808   8.648 -0.9429  0.9479 -0.3211
  179SLPC  H17X20521   3.825   4.741   8.563  0.2982  0.7013  0.2418
  179SLPC  H17Y20522   3.883   4.877   8.669 -1.7151  1.8764 -0.2417
  179SLPC  C31820523   3.679   4.894   8.596 -0.4923 -0.8585 -0.3472
  179SLPC  H18X20524   3.703   4.960   8.511 -0.5654  1.6919  1.5364
  179SLPC  H18Y20525   3.626   4.956   8.672  1.4802 -1.8995  1.9572
  179SLPC  H18Z20526   3.609   4.819   8.552  1.5899 -3.1078  0.0467
  180SLPC     N20527   5.145   1.218  10.971 -0.1570  0.0662 -0.4314
  180SLPC   C1320528   5.223   1.094  11.002 -0.6338 -0.5396 -1.0121
  180SLPC  H13A20529   5.189   1.024  10.927  0.8169 -0.9030 -1.3493
  180SLPC  H13B20530   5.329   1.112  10.990 -0.8728  1.0549 -0.8241
  180SLPC  H13C20531   5.201   1.058  11.102 -2.6859 -0.6850 -1.4964
  180SLPC   C1420532   5.199   1.331  11.051  0.0087  0.3352  0.4556
  180SLPC  H14A20533   5.193   1.422  10.992  0.1283  0.1522  0.1614
  180SLPC  H14B20534   5.145   1.334  11.144 -0.9000  0.0975 -0.0605
  180SLPC  H14C20535   5.307   1.325  11.059 -0.1526 -2.0374  1.0226
  180SLPC   C1520536   5.005   1.189  11.008  0.6529 -0.5304 -0.6072
  180SLPC  H15A20537   4.964   1.101  10.959 -1.0737  0.3725 -0.8329
  180SLPC  H15B20538   4.990   1.178  11.114 -1.2096  0.6709 -0.7352
  180SLPC  H15C20539   4.943   1.274  10.986  0.0195  0.2125  3.6575
  180SLPC   C1220540   5.170   1.254  10.828 -0.5172 -0.3249 -0.0529
  180SLPC  H12A20541   5.135   1.177  10.762  1.1782 -1.8802  0.8115
  180SLPC  H12B20542   5.277   1.261  10.810 -0.5238 -0.5881 -0.1850
  180SLPC   C1120543   5.096   1.378  10.777 -0.0013 -0.4263 -0.0401
  180SLPC  H11A20544   4.987   1.377  10.802 -0.4002 -1.6589 -1.6886
  180SLPC  H11B20545   5.090   1.369  10.666  0.9610 -0.6321 -0.0811
  180SLPC     P20546   5.281   1.563  10.774 -0.3852  0.1236 -0.4061
  180SLPC   O1320547   5.308   1.685  10.859 -0.5093 -0.2517  0.1358
  180SLPC   O1420548   5.393   1.463  10.770 -0.3786  0.2946  0.3980
  180SLPC   O1220549   5.142   1.505  10.825 -0.7542 -0.0907 -0.5698
  180SLPC   O1120550   5.250   1.619  10.631 -0.4318 -0.1554  0.1038
  180SLPC    C120551   5.249   1.533  10.511 -0.0296 -0.6963 -0.2085
  180SLPC    HA20552   5.250   1.426  10.538  0.4064 -0.0934  2.3441
  180SLPC    HB20553   5.151   1.547  10.462  0.1752 -1.6074 -0.8892
  180SLPC    C220554   5.359   1.563  10.413  0.0309 -0.1565 -0.2512
  180SLPC    HS20555   5.454   1.559  10.470  0.5545 -0.4330 -1.1277
  180SLPC   O2120556   5.334   1.701  10.367 -0.1099  0.6657  0.5308
  180SLPC   C2120557   5.433   1.754  10.299  0.2868  0.1018 -1.4784
  180SLPC   O2220558   5.549   1.716  10.290  0.5205 -0.1379  0.7370
  180SLPC   C2220559   5.377   1.880  10.229  0.4795 -0.2148  0.0273
  180SLPC   H2R20560   5.266   1.880  10.231  0.4393  2.3876 -0.0325
  180SLPC   H2S20561   5.407   1.960  10.299 -3.2600  1.1554  0.1780
  180SLPC    C320562   5.357   1.454  10.304 -0.1617 -0.3237  0.5928
  180SLPC    HX20563   5.431   1.378  10.336  1.8780  1.6523  0.6466
  180SLPC    HY20564   5.389   1.496  10.206  0.0155  0.8377  1.1386
  180SLPC   O3120565   5.227   1.404  10.286 -0.0676  0.1573  0.2514
  180SLPC   C3120566   5.225   1.264  10.260 -0.4527 -0.1322  0.4386
  180SLPC   O3220567   5.323   1.200  10.229 -0.5703 -0.2577  0.5067
  180SLPC   C3220568   5.086   1.204  10.265  0.3005  0.2807  0.8792
  180SLPC   H2X20569   5.033   1.253  10.349  2.0956  1.2936  1.4522
  180SLPC   H2Y20570   5.112   1.100  10.295 -1.7613  0.0688  1.9970
  180SLPC   C2320571   5.453   1.907  10.097  0.1541 -0.2236 -1.0515
  180SLPC   H3R20572   5.561   1.928  10.113 -0.1541 -0.4633  1.5468
  180SLPC   H3S20573   5.407   1.996  10.050  0.3221  0.4263  0.0017
  180SLPC   C2420574   5.434   1.796   9.990 -1.1121 -0.7639  0.1859
  180SLPC   H4R20575   5.479   1.709  10.041 -0.2835  0.3002  1.3067
  180SLPC   H4S20576   5.493   1.827   9.901 -3.3253  0.8499 -0.7789
  180SLPC   C2520577   5.290   1.779   9.943  0.0274 -0.6445  0.3500
  180SLPC   H5R20578   5.276   1.844   9.854  0.5592 -2.2758 -0.9525
  180SLPC   H5S20579   5.225   1.821  10.022 -0.9234 -2.6241  0.6515
  180SLPC   C2620580   5.248   1.631   9.916  0.2513  0.6684 -0.1920
  180SLPC   H6R20581   5.147   1.631   9.870 -0.0732  0.8826  0.5097
  180SLPC   H6S20582   5.246   1.580  10.015 -0.7720  1.9905  0.4781
  180SLPC   C2720583   5.334   1.549   9.818 -0.4939  0.5785 -0.2636
  180SLPC   H7R20584   5.438   1.567   9.850 -0.6318 -1.9825  1.7954
  180SLPC   H7S20585   5.319   1.581   9.713 -0.9635 -0.3968 -0.5043
  180SLPC   C2820586   5.304   1.400   9.846 -0.5898  0.2183  1.2072
  180SLPC   H8R20587   5.310   1.389   9.956  1.3428  0.1695  1.1014
  180SLPC   H8S20588   5.388   1.341   9.804 -0.8629  0.9726 -0.4444
  180SLPC   C2920589   5.171   1.355   9.785  0.2167  0.8653  0.3193
  180SLPC   H9R20590   5.083   1.361   9.851 -1.2712 -2.8047 -1.1732
  180SLPC  C21020591   5.157   1.313   9.659 -0.0534 -0.5004 -0.6716
  180SLPC  H10R20592   5.053   1.297   9.625 -0.8919  0.4793  1.3138
  180SLPC  C21120593   5.265   1.298   9.546  0.3762  0.6723 -0.7395
  180SLPC  H11R20594   5.306   1.197   9.566  2.2560  1.5057 -0.3802
  180SLPC  H11S20595   5.341   1.378   9.551  1.4005 -0.1902 -1.9922
  180SLPC  C21220596   5.207   1.309   9.407 -0.2067 -0.0785 -0.8670
  180SLPC  H12R20597   5.177   1.216   9.356 -2.0241  0.9102 -1.6204
  180SLPC  C21320598   5.191   1.431   9.347 -0.0680  0.3910  0.3492
  180SLPC  H13R20599   5.159   1.435   9.242  0.0869 -2.1432  0.1694
  180SLPC  C21420600   5.219   1.572   9.399 -0.6596 -0.0925 -0.1794
  180SLPC  H14R20601   5.293   1.613   9.326  0.8303  0.6063  1.6714
  180SLPC  H14S20602   5.277   1.567   9.493  1.1052  1.6244 -1.1259
  180SLPC  C21520603   5.107   1.671   9.424 -0.2823 -0.3438  0.9496
  180SLPC  H15R20604   5.075   1.710   9.325  0.0209 -0.1566  0.9261
  180SLPC  H15S20605   5.153   1.755   9.479  0.9122 -1.1547  1.2076
  180SLPC  C21620606   4.989   1.626   9.515  0.7084  0.2623  0.0226
  180SLPC  H16R20607   5.012   1.564   9.604 -2.1133  0.8991  1.2459
  180SLPC  H16S20608   4.910   1.581   9.450  1.9862  0.4002 -1.6688
  180SLPC  C21720609   4.922   1.748   9.589 -0.0542  0.1057 -0.6114
  180SLPC  H17R20610   4.853   1.796   9.516  0.7760  0.6752 -1.0257
  180SLPC  H17S20611   4.991   1.831   9.616 -1.1285  0.9322 -0.3230
  180SLPC  C21820612   4.859   1.703   9.720 -0.4277 -0.5137  0.4955
  180SLPC  H18R20613   4.817   1.782   9.786  1.6435  0.6746  0.4406
  180SLPC  H18S20614   4.930   1.650   9.786  1.8021  1.0066 -0.6079
  180SLPC  H18T20615   4.775   1.631   9.707  1.1029 -1.8585 -2.5453
  180SLPC   C3320616   5.006   1.211  10.140 -0.0803  0.1934  0.2324
  180SLPC   H3X20617   5.065   1.177  10.052 -2.1482  1.6109 -1.7913
  180SLPC   H3Y20618   4.974   1.317  10.128  0.5909  0.2483 -1.1517
  180SLPC   C3420619   4.885   1.126  10.143 -0.2118  0.9563  0.2251
  180SLPC   H4X20620   4.818   1.165  10.223 -2.6921 -1.6090 -0.5168
  180SLPC   H4Y20621   4.920   1.025  10.173  2.1211  1.1881 -1.5698
  180SLPC   C3520622   4.820   1.114   9.999 -0.1997  0.2694  0.7699
  180SLPC   H5X20623   4.901   1.056   9.950 -1.3933 -0.8643  0.0940
  180SLPC   H5Y20624   4.803   1.203   9.935  0.2245  0.9900  1.6539
  180SLPC   C3620625   4.699   1.019  10.010  0.1971 -0.0289  0.2848
  180SLPC   H6X20626   4.618   1.085  10.049 -0.7293 -0.9575 -0.0609
  180SLPC   H6Y20627   4.706   0.935  10.082  0.6696  0.2102  0.5257
  180SLPC   C3720628   4.655   0.958   9.875  0.2918 -0.0246 -0.0198
  180SLPC   H7X20629   4.738   0.889   9.847  1.0442 -0.4605  3.0758
  180SLPC   H7Y20630   4.677   1.035   9.798 -0.6605 -0.4716 -0.7364
  180SLPC   C3820631   4.519   0.897   9.861 -0.5552 -1.0951 -0.3682
  180SLPC   H8X20632   4.441   0.974   9.882  2.0625  1.0947  1.6819
  180SLPC   H8Y20633   4.504   0.810   9.927 -2.3234 -0.1966  0.4661
  180SLPC   C3920634   4.498   0.833   9.728 -0.0566  0.7072 -0.4547
  180SLPC   H9X20635   4.393   0.798   9.719  0.0532  0.1544  0.3368
  180SLPC   H9Y20636   4.562   0.742   9.735  1.6697  1.9350  0.1586
  180SLPC  C31020637   4.534   0.904   9.601 -0.0929 -0.1041 -0.8900
  180SLPC  H10X20638   4.624   0.967   9.616 -1.0603  0.9098  0.8381
  180SLPC  H10Y20639   4.459   0.981   9.572 -4.2656 -2.9124  1.9109
  180SLPC  C31120640   4.553   0.804   9.476  0.1350 -1.3904 -0.1254
  180SLPC  H11X20641   4.462   0.739   9.473  0.8468 -2.5471  2.0347
  180SLPC  H11Y20642   4.641   0.741   9.500  0.3707 -0.9180  0.2764
  180SLPC  C31220643   4.583   0.879   9.350  0.5738 -0.3294 -0.8611
  180SLPC  H12X20644   4.664   0.948   9.380 -0.4757  0.7960 -0.5407
  180SLPC  H12Y20645   4.507   0.958   9.331 -1.1020 -1.9497 -1.0778
  180SLPC  C31320646   4.610   0.799   9.221  0.2056  0.1697  0.0643
  180SLPC  H13X20647   4.675   0.713   9.247  0.2214 -0.5252 -2.1809
  180SLPC  H13Y20648   4.671   0.856   9.148 -0.9526 -0.1184 -1.1409
  180SLPC  C31420649   4.485   0.751   9.151 -0.6801 -0.5725 -0.3667
  180SLPC  H14X20650   4.418   0.837   9.133 -0.3727 -0.2704 -0.0730
  180SLPC  H14Y20651   4.430   0.687   9.223 -2.2147  2.4994  1.2891
  180SLPC  C31520652   4.520   0.689   9.017  0.2332 -0.4368  0.6431
  180SLPC  H15X20653   4.583   0.597   9.024 -3.0935 -2.9272 -1.0770
  180SLPC  H15Y20654   4.565   0.759   8.944 -1.0713  0.8791  1.0739
  180SLPC  C31620655   4.394   0.646   8.950  0.3201  0.1361  0.4945
  180SLPC  H16X20656   4.328   0.588   9.018 -0.5354  0.7514  0.2063
  180SLPC  H16Y20657   4.411   0.570   8.871 -0.2488 -0.3388  0.8192
  180SLPC  C31720658   4.311   0.758   8.888 -0.2184 -0.1647  0.0324
  180SLPC  H17X20659   4.373   0.838   8.842  2.3225  0.7097  4.6777
  180SLPC  H17Y20660   4.248   0.796   8.971  0.4550  2.2314 -0.5082
  180SLPC  C31820661   4.209   0.716   8.781 -0.6048  0.8157  0.5233
  180SLPC  H18X20662   4.138   0.800   8.765 -1.5577  0.0023  0.4145
  180SLPC  H18Y20663   4.149   0.630   8.818  1.7241 -1.0891 -0.0545
  180SLPC  H18Z20664   4.249   0.685   8.683 -1.2727  0.4087  0.3704
  181SLPC     N20665   1.123   5.705  11.272 -0.4880 -0.9151 -0.2346
  181SLPC   C1320666   1.079   5.579  11.204  0.1576  0.3627  0.1050
  181SLPC  H13A20667   0.972   5.573  11.213  0.3018 -1.4260  0.7564
  181SLPC  H13B20668   1.107   5.590  11.100 -0.4894 -0.2120 -0.1308
  181SLPC  H13C20669   1.123   5.488  11.242 -0.0299 -0.2934 -1.2017
  181SLPC   C1420670   1.174   5.680  11.413 -1.0741 -0.3255 -0.0444
  181SLPC  H14A20671   1.208   5.578  11.427 -3.1373 -1.0861 -0.3709
  181SLPC  H14B20672   1.255   5.748  11.433 -0.7242 -1.3211  2.0780
  181SLPC  H14C20673   1.097   5.697  11.486 -1.1966  0.3336 -0.3275
  181SLPC   C1520674   1.005   5.802  11.278 -0.0327 -0.0310 -0.5471
  181SLPC  H15A20675   0.923   5.761  11.335  1.3083  0.4123  1.7960
  181SLPC  H15B20676   1.027   5.896  11.326  1.4007  0.1780 -1.5670
  181SLPC  H15C20677   0.957   5.813  11.182  1.4248  0.7053 -1.2070
  181SLPC   C1220678   1.230   5.771  11.193  0.0528 -0.1663 -0.2855
  181SLPC  H12A20679   1.328   5.724  11.191  1.2406  2.2123  0.1737
  181SLPC  H12B20680   1.248   5.870  11.230  2.6036 -1.0758  1.0690
  181SLPC   C1120681   1.206   5.781  11.045 -0.3070 -0.0796 -0.3358
  181SLPC  H11A20682   1.264   5.864  11.000  0.2460  0.4399  1.3036
  181SLPC  H11B20683   1.098   5.801  11.024 -1.1173 -0.6140  2.9966
  181SLPC     P20684   1.371   5.600  10.951 -0.0515  0.3201  0.3013
  181SLPC   O1320685   1.466   5.683  11.028  0.0019 -0.1112  0.0967
  181SLPC   O1420686   1.369   5.455  10.980  0.3955 -0.3515  1.1063
  181SLPC   O1220687   1.234   5.654  10.982 -0.3801 -0.4817  0.0902
  181SLPC   O1120688   1.386   5.616  10.793 -0.3599 -0.1466 -0.3791
  181SLPC    C120689   1.410   5.744  10.734 -0.3838 -0.1108  0.0792
  181SLPC    HA20690   1.336   5.819  10.769 -0.7716 -0.7555  0.6621
  181SLPC    HB20691   1.511   5.781  10.759 -0.5796  0.7436 -0.3795
  181SLPC    C220692   1.401   5.738  10.582  0.3897  0.6595  0.4383
  181SLPC    HS20693   1.418   5.839  10.538  0.2276  0.5672  0.1575
  181SLPC   O2120694   1.266   5.695  10.551 -0.0516 -0.0422 -0.0296
  181SLPC   C2120695   1.163   5.782  10.551  0.2713  0.6221 -0.3231
  181SLPC   O2220696   1.161   5.892  10.600  0.0017  0.2148 -0.1274
  181SLPC   C2220697   1.039   5.714  10.482  0.4984 -0.2692  0.5910
  181SLPC   H2R20698   1.021   5.624  10.544 -0.5699 -0.8690 -0.5586
  181SLPC   H2S20699   0.951   5.778  10.500 -0.1937 -0.9401 -0.3614
  181SLPC    C320700   1.492   5.627  10.528  0.2210 -0.2224 -0.4375
  181SLPC    HX20701   1.467   5.531  10.578  0.7377  0.5008  1.2471
  181SLPC    HY20702   1.597   5.647  10.560  0.0889 -1.8475  1.0242
  181SLPC   O3120703   1.499   5.621  10.381  0.2876 -0.1025  0.5904
  181SLPC   C3120704   1.434   5.524  10.325 -0.2839 -0.2478 -0.3379
  181SLPC   O3220705   1.357   5.452  10.381 -0.4111  0.0896 -0.2741
  181SLPC   C3220706   1.476   5.506  10.184  0.3005 -0.4475 -0.3530
  181SLPC   H2X20707   1.587   5.505  10.179  0.3181  1.0118 -0.6180
  181SLPC   H2Y20708   1.435   5.585  10.118 -0.3596  0.4976  1.1544
  181SLPC   C2320709   1.064   5.685  10.337 -0.1527  0.4221  0.8603
  181SLPC   H3R20710   0.998   5.598  10.315 -1.9849  1.7171  1.0666
  181SLPC   H3S20711   1.169   5.653  10.319 -0.1729  0.2339  1.0904
  181SLPC   C2420712   1.033   5.793  10.232 -0.0191  0.2808 -0.1387
  181SLPC   H4R20713   1.087   5.888  10.257  0.4840 -0.3847  1.3700
  181SLPC   H4S20714   0.924   5.813  10.239 -0.7469 -3.1278 -1.2022
  181SLPC   C2520715   1.067   5.730  10.103 -0.0603  0.3359  0.5797
  181SLPC   H5R20716   1.027   5.627  10.096 -0.4196  0.5154 -0.0652
  181SLPC   H5S20717   1.178   5.723  10.100 -0.0917  0.3327 -1.1933
  181SLPC   C2620718   1.028   5.809   9.982  0.1183  0.7395 -0.1815
  181SLPC   H6R20719   1.082   5.905   9.994  0.5142  0.3982  0.8437
  181SLPC   H6S20720   0.919   5.832   9.980 -0.6574 -2.6494 -0.8911
  181SLPC   C2720721   1.070   5.738   9.857  0.5682  0.1627 -0.9096
  181SLPC   H7R20722   1.013   5.645   9.837  0.9001  0.2370 -2.2700
  181SLPC   H7S20723   1.177   5.713   9.874  0.9443  2.6698  0.6847
  181SLPC   C2820724   1.067   5.818   9.721  0.6861 -0.7936  0.4598
  181SLPC   H8R20725   0.962   5.827   9.687  0.6378 -1.0210  0.5470
  181SLPC   H8S20726   1.124   5.758   9.648 -0.9742  1.1766 -2.5468
  181SLPC   C2920727   1.123   5.960   9.711 -0.0216 -0.2223  0.2288
  181SLPC   H9R20728   1.122   6.014   9.806  0.1968  1.6800 -0.8323
  181SLPC  C21020729   1.171   6.012   9.598 -0.1134 -0.0491  0.1637
  181SLPC  H10R20730   1.208   6.115   9.601  0.2594 -0.1422 -1.1786
  181SLPC  C21120731   1.178   5.940   9.466  0.0595  0.2065  1.0998
  181SLPC  H11R20732   1.173   6.009   9.379  1.3357  0.4375  1.1939
  181SLPC  H11S20733   1.090   5.874   9.451  0.6341 -0.3545  0.1341
  181SLPC  C21220734   1.306   5.858   9.442  0.3949 -0.2561 -0.2161
  181SLPC  H12R20735   1.335   5.807   9.535 -2.3577 -0.8768  0.3463
  181SLPC  C21320736   1.373   5.839   9.326 -0.6093 -0.6344 -0.2005
  181SLPC  H13R20737   1.465   5.780   9.332 -0.9648 -1.0491  1.2128
  181SLPC  C21420738   1.331   5.898   9.191  0.6596  0.0978  0.2833
  181SLPC  H14R20739   1.401   5.977   9.155  1.4956 -0.6486  0.2616
  181SLPC  H14S20740   1.227   5.936   9.202  0.0141 -1.3152 -0.6259
  181SLPC  C21520741   1.325   5.793   9.081 -0.3638  0.1667  0.0266
  181SLPC  H15R20742   1.255   5.710   9.105 -0.9689  0.9938  1.1530
  181SLPC  H15S20743   1.427   5.749   9.070 -0.1582  1.1293 -2.0695
  181SLPC  C21620744   1.308   5.853   8.944  0.2314  0.0801 -0.7169
  181SLPC  H16R20745   1.217   5.917   8.945 -0.9516 -1.5625 -0.1107
  181SLPC  H16S20746   1.292   5.773   8.868 -0.2001 -0.3083 -0.2224
  181SLPC  C21720747   1.428   5.929   8.887 -0.1278 -0.5679 -0.3556
  181SLPC  H17R20748   1.522   5.871   8.900 -0.4360 -1.2951 -1.2758
  181SLPC  H17S20749   1.448   6.020   8.947 -0.1549  1.6347 -3.5159
  181SLPC  C21820750   1.414   5.964   8.735 -0.0202  0.0013 -0.2357
  181SLPC  H18R20751   1.428   5.873   8.673 -0.2160 -1.3542  1.6593
  181SLPC  H18S20752   1.508   6.013   8.702  0.5345  0.1734  1.5434
  181SLPC  H18T20753   1.331   6.033   8.711 -0.2708 -0.4200 -0.5711
  181SLPC   C3320754   1.418   5.379  10.126 -0.4034  0.0167 -0.9400
  181SLPC   H3X20755   1.308   5.390  10.119 -0.2720  0.9941 -1.5712
  181SLPC   H3Y20756   1.441   5.289  10.187 -1.4855  0.1971 -0.2394
  181SLPC   C3420757   1.463   5.361   9.983  0.3796  0.3185  0.2663
  181SLPC   H4X20758   1.458   5.253   9.958  0.6220 -0.2927  2.6738
  181SLPC   H4Y20759   1.569   5.388   9.959 -0.1444  1.7781 -0.4625
  181SLPC   C3520760   1.373   5.429   9.882  0.3321 -0.6160 -0.4444
  181SLPC   H5X20761   1.364   5.536   9.909  2.0329 -1.3422  3.4833
  181SLPC   H5Y20762   1.270   5.390   9.895 -0.4178  1.2120 -0.8509
  181SLPC   C3620763   1.424   5.408   9.738 -0.6918  0.1565 -0.3867
  181SLPC   H6X20764   1.434   5.298   9.734  0.5965  0.2611 -0.0822
  181SLPC   H6Y20765   1.521   5.460   9.721 -1.0194  0.3412 -1.7883
  181SLPC   C3720766   1.323   5.434   9.631 -0.5020 -0.5908  0.0603
  181SLPC   H7X20767   1.291   5.539   9.619 -0.5437 -0.3073  2.4449
  181SLPC   H7Y20768   1.222   5.391   9.650 -1.2755  0.4769 -1.6095
  181SLPC   C3820769   1.377   5.412   9.492 -0.4721  0.1053 -0.3891
  181SLPC   H8X20770   1.469   5.469   9.467  0.3215 -1.4516 -1.1306
  181SLPC   H8Y20771   1.297   5.458   9.431  0.2900 -0.7895 -2.1170
  181SLPC   C3920772   1.401   5.263   9.453 -0.0500  0.3301  0.7311
  181SLPC   H9X20773   1.320   5.192   9.479 -1.7360  2.5034  1.6093
  181SLPC   H9Y20774   1.492   5.234   9.510  0.1715  0.3866  0.4108
  181SLPC  C31020775   1.439   5.250   9.307 -0.6574  0.9331  0.4304
  181SLPC  H10X20776   1.529   5.309   9.283  0.0561 -0.5161 -0.5804
  181SLPC  H10Y20777   1.360   5.294   9.241  1.7035  0.2888 -2.9720
  181SLPC  C31120778   1.447   5.105   9.262  0.3430  0.4190 -0.0905
  181SLPC  H11X20779   1.354   5.056   9.299 -0.1894 -1.6567 -3.9428
  181SLPC  H11Y20780   1.533   5.047   9.302 -0.9559 -1.5886 -0.1239
  181SLPC  C31220781   1.446   5.074   9.106  0.0808 -0.4079 -0.4729
  181SLPC  H12X20782   1.542   5.103   9.058 -0.3665 -0.3873 -1.3850
  181SLPC  H12Y20783   1.366   5.130   9.052 -0.1042  2.5372  2.6867
  181SLPC  C31320784   1.444   4.916   9.076 -0.2849 -0.3490  0.4171
  181SLPC  H13X20785   1.349   4.876   9.117 -0.6039 -0.2606 -0.2263
  181SLPC  H13Y20786   1.522   4.870   9.140 -1.2992 -0.7106  1.4197
  181SLPC  C31420787   1.468   4.889   8.929 -0.2171 -0.1505  0.3477
  181SLPC  H14X20788   1.462   4.982   8.868 -1.7678 -0.7719 -0.4778
  181SLPC  H14Y20789   1.383   4.824   8.898  1.1562 -0.1834 -3.6633
  181SLPC  C31520790   1.594   4.807   8.904  0.2544 -0.2954 -0.7600
  181SLPC  H15X20791   1.591   4.714   8.964  0.7258 -0.7104 -1.3723
  181SLPC  H15Y20792   1.687   4.862   8.932  1.8225 -2.0585 -2.3513
  181SLPC  C31620793   1.614   4.784   8.753 -0.2141 -0.7347 -0.2277
  181SLPC  H16X20794   1.517   4.806   8.705 -1.8931 -3.9691  1.4654
  181SLPC  H16Y20795   1.635   4.676   8.733 -2.2795 -1.6284  2.1726
  181SLPC  C31720796   1.738   4.866   8.691 -0.2677  0.0048 -0.1160
  181SLPC  H17X20797   1.725   4.854   8.581 -1.4073 -4.3951  0.4231
  181SLPC  H17Y20798   1.831   4.818   8.726  2.1093  2.4563 -2.8239
  181SLPC  C31820799   1.731   5.018   8.715  0.2569 -0.2650  0.1532
  181SLPC  H18X20800   1.773   5.075   8.629 -0.8402  0.8287  0.3290
  181SLPC  H18Y20801   1.790   5.038   8.807  0.0182 -0.7185  0.4019
  181SLPC  H18Z20802   1.625   5.046   8.730  0.5040  1.9437 -1.8892
  182SLPC     N20803   0.058   0.444  10.889  0.4129 -0.8620 -0.0405
  182SLPC   C1320804   0.011   0.420  11.030 -0.9620  0.4513  0.5572
  182SLPC  H13A20805  -0.011   0.314  11.025 -0.2410  0.2697  1.1234
  182SLPC  H13B20806   0.093   0.426  11.100  0.7826 -1.7207 -1.1992
  182SLPC  H13C20807  -0.074   0.477  11.063  0.9557  2.9162  1.3973
  182SLPC   C1420808   0.202   0.399  10.879 -0.2695 -0.0660 -0.3896
  182SLPC  H14A20809   0.243   0.433  10.785 -0.2922  3.6855  0.8640
  182SLPC  H14B20810   0.252   0.434  10.968 -1.1703 -1.1512  0.5595
  182SLPC  H14C20811   0.217   0.292  10.883 -3.5986 -0.5446  0.6229
  182SLPC   C1520812   0.058   0.597  10.872 -0.9741 -0.4731  0.4145
  182SLPC  H15A20813   0.123   0.644  10.944  2.0911 -0.6724 -2.1468
  182SLPC  H15B20814   0.085   0.620  10.770  1.5087  1.2838  1.4416
  182SLPC  H15C20815  -0.037   0.641  10.898 -0.3399 -1.0843  4.0204
  182SLPC   C1220816  -0.031   0.370  10.788  0.2647 -0.0727  0.3970
  182SLPC  H12A20817   0.007   0.395  10.690 -3.4474  0.9925 -0.8316
  182SLPC  H12B20818  -0.126   0.420  10.793 -0.1157 -0.7970  0.5439
  182SLPC   C1120819  -0.064   0.223  10.807 -0.3426 -0.1888 -0.0650
  182SLPC  H11A20820   0.032   0.180  10.843  0.6187  1.2800 -0.8483
  182SLPC  H11B20821  -0.086   0.191  10.703 -3.1581  0.1757  0.3810
  182SLPC     P20822  -0.250   0.065  10.889 -0.4580  0.2486  0.0859
  182SLPC   O1320823  -0.161  -0.041  10.946  0.1952 -0.2160  0.1678
  182SLPC   O1420824  -0.383   0.072  10.953  0.0683 -0.3073  0.2290
  182SLPC   O1220825  -0.172   0.206  10.898 -0.2390  0.6077  0.1527
  182SLPC   O1120826  -0.258   0.040  10.732  0.2297 -0.1740 -0.0290
  182SLPC    C120827  -0.363   0.110  10.665  0.6299  0.3432  0.2073
  182SLPC    HA20828  -0.356   0.217  10.696  0.6900 -0.0288  1.5182
  182SLPC    HB20829  -0.330   0.111  10.559 -1.3063  2.4461 -0.4242
  182SLPC    C220830  -0.506   0.048  10.673 -0.1399  0.1856  0.9423
  182SLPC    HS20831  -0.521  -0.000  10.771  1.0278 -1.5466  0.3024
  182SLPC   O2120832  -0.525  -0.044  10.566 -0.7894  0.2735 -0.2246
  182SLPC   C2120833  -0.622  -0.136  10.579 -0.0152 -0.6203  0.5377
  182SLPC   O2220834  -0.682  -0.155  10.681 -0.5067  0.1202 -0.0087
  182SLPC   C2220835  -0.609  -0.234  10.465  0.5172  0.4583  0.6883
  182SLPC   H2R20836  -0.503  -0.265  10.452  0.4380  0.0868  0.9049
  182SLPC   H2S20837  -0.674  -0.322  10.487  0.0526  0.7493  0.4860
  182SLPC    C320838  -0.609   0.161  10.661  1.0825 -0.6797  0.2686
  182SLPC    HX20839  -0.578   0.222  10.748 -0.2761  0.0021  0.2911
  182SLPC    HY20840  -0.713   0.130  10.684  1.3603 -2.9629 -1.4386
  182SLPC   O3120841  -0.609   0.238  10.540 -0.2049 -0.1452  0.6244
  182SLPC   C3120842  -0.693   0.206  10.441  0.2959  0.1384 -0.6603
  182SLPC   O3220843  -0.766   0.109  10.439  0.8127 -0.0903 -0.7113
  182SLPC   C3220844  -0.677   0.282  10.316 -0.3768 -0.5868  0.2081
  182SLPC   H2X20845  -0.572   0.265  10.283  0.1499 -2.3295  2.6238
  182SLPC   H2Y20846  -0.687   0.392  10.323  1.8075 -0.3491  0.1756
  182SLPC   C2320847  -0.668  -0.177  10.335  0.1559  0.6763 -0.1618
  182SLPC   H3R20848  -0.632  -0.079  10.296 -0.8530  2.6585  3.6645
  182SLPC   H3S20849  -0.771  -0.146  10.363 -0.8877 -1.0657 -1.8567
  182SLPC   C2420850  -0.663  -0.272  10.220  0.0341 -0.4456 -0.1914
  182SLPC   H4R20851  -0.717  -0.368  10.233 -1.0077  0.0362 -0.9471
  182SLPC   H4S20852  -0.556  -0.297  10.200  0.8903  1.1255  2.2149
  182SLPC   C2520853  -0.729  -0.219  10.095  1.0392 -0.0950 -0.5849
  182SLPC   H5R20854  -0.671  -0.132  10.058  1.4539  0.5295  1.4766
  182SLPC   H5S20855  -0.828  -0.196  10.140  0.4399  0.2553 -2.0677
  182SLPC   C2620856  -0.756  -0.319   9.980  0.4358  0.1239  0.8839
  182SLPC   H6R20857  -0.809  -0.263   9.900  0.2718  0.5634  1.2928
  182SLPC   H6S20858  -0.819  -0.402  10.019  0.3171 -1.5561 -2.7370
  182SLPC   C2720859  -0.632  -0.377   9.920 -0.5569  0.2908  0.4582
  182SLPC   H7R20860  -0.576  -0.414  10.008 -1.4172 -1.8096  0.1620
  182SLPC   H7S20861  -0.568  -0.304   9.867  0.9840 -0.3406  1.4327
  182SLPC   C2820862  -0.665  -0.503   9.830 -0.5097  0.0219 -0.4543
  182SLPC   H8R20863  -0.694  -0.457   9.733 -1.0468 -0.8836 -0.7329
  182SLPC   H8S20864  -0.757  -0.549   9.872 -0.9870 -0.8442 -2.3759
  182SLPC   C2920865  -0.551  -0.599   9.827 -0.6011  1.0077  1.1691
  182SLPC   H9R20866  -0.522  -0.633   9.927  0.1570 -0.0925  0.5863
  182SLPC  C21020867  -0.492  -0.650   9.714 -0.2639  0.1789 -1.1257
  182SLPC  H10R20868  -0.399  -0.706   9.728 -1.2178 -0.8877  1.3465
  182SLPC  C21120869  -0.517  -0.619   9.569 -0.2706 -0.3697 -0.2016
  182SLPC  H11R20870  -0.460  -0.526   9.545 -1.2183  0.0411 -0.8639
  182SLPC  H11S20871  -0.627  -0.610   9.566  0.0002  3.2746 -2.6655
  182SLPC  C21220872  -0.492  -0.728   9.468 -0.2000  0.0791 -0.1562
  182SLPC  H12R20873  -0.557  -0.814   9.490 -0.6832 -0.0305 -1.9459
  182SLPC  C21320874  -0.395  -0.738   9.370  0.0188  0.2424  0.9322
  182SLPC  H13R20875  -0.395  -0.826   9.304 -1.5370 -0.6463  2.0945
  182SLPC  C21420876  -0.291  -0.630   9.334 -0.0055 -0.2947  0.0264
  182SLPC  H14R20877  -0.240  -0.602   9.430 -3.8442 -1.5714  2.5339
  182SLPC  H14S20878  -0.336  -0.533   9.303 -0.2312 -0.0086  1.2183
  182SLPC  C21520879  -0.198  -0.676   9.223 -0.5139  0.6177  0.0837
  182SLPC  H15R20880  -0.254  -0.685   9.128 -0.5070  0.3210  0.1048
  182SLPC  H15S20881  -0.151  -0.772   9.256  0.1872  2.1086  3.6188
  182SLPC  C21620882  -0.085  -0.570   9.204 -0.6083 -0.2231  0.0572
  182SLPC  H16R20883  -0.028  -0.563   9.299 -0.1833  2.3733 -0.3707
  182SLPC  H16S20884  -0.127  -0.472   9.173 -0.1047 -0.2768 -0.8031
  182SLPC  C21720885   0.008  -0.607   9.086  0.3052 -0.0043  0.5322
  182SLPC  H17R20886  -0.047  -0.616   8.990  2.8590  0.4121 -1.0239
  182SLPC  H17S20887   0.043  -0.710   9.110  1.2184  0.1061 -0.2768
  182SLPC  C21820888   0.120  -0.507   9.062  0.6114  0.0336  0.2426
  182SLPC  H18R20889   0.081  -0.406   9.037 -0.7754  0.0613  2.3628
  182SLPC  H18S20890   0.177  -0.560   8.982  2.0230 -0.3190  1.4544
  182SLPC  H18T20891   0.186  -0.505   9.151  0.8531  0.0649  0.0619
  182SLPC   C3320892  -0.775   0.221  10.214  0.0237 -0.1652  0.0922
  182SLPC   H3X20893  -0.879   0.221  10.254 -0.4482  0.1043 -1.1062
  182SLPC   H3Y20894  -0.747   0.117  10.188  3.3878  0.8107 -0.4768
  182SLPC   C3420895  -0.792   0.294  10.080 -0.3316 -0.3239  0.0532
  182SLPC   H4X20896  -0.703   0.269  10.018 -0.0464  0.9757 -0.0949
  182SLPC   H4Y20897  -0.785   0.403  10.101  0.4950 -0.1396 -1.0823
  182SLPC   C3520898  -0.925   0.261  10.007  0.2590 -1.0628 -0.2546
  182SLPC   H5X20899  -1.016   0.302  10.056 -0.6669 -0.3198 -2.5284
  182SLPC   H5Y20900  -0.942   0.152  10.011 -1.1268 -0.7835  3.0241
  182SLPC   C3620901  -0.922   0.298   9.855 -0.0946 -0.1024 -0.8609
  182SLPC   H6X20902  -1.022   0.279   9.809 -0.6640  0.6305  0.0531
  182SLPC   H6Y20903  -0.843   0.236   9.807  1.2895  0.6373  0.4156
  182SLPC   C3720904  -0.898   0.449   9.836 -0.2030  0.2385 -0.1778
  182SLPC   H7X20905  -0.791   0.463   9.809 -0.2706  0.5939 -0.2620
  182SLPC   H7Y20906  -0.910   0.506   9.931 -0.3679  0.9318 -0.6147
  182SLPC   C3820907  -0.973   0.526   9.716  0.4538 -0.2712  0.2123
  182SLPC   H8X20908  -0.941   0.632   9.723 -1.2662  0.4227 -1.6602
  182SLPC   H8Y20909  -1.084   0.529   9.721  0.4366 -0.2359 -0.1789
  182SLPC   C3920910  -0.926   0.473   9.577  0.3396 -0.4108 -0.5626
  182SLPC   H9X20911  -0.980   0.378   9.554 -1.6386  0.2468  1.1685
  182SLPC   H9Y20912  -0.817   0.449   9.577  0.5251  0.4347 -0.7173
  182SLPC  C31020913  -0.953   0.573   9.458  0.1527 -0.3483  0.6545
  182SLPC  H10X20914  -0.887   0.662   9.464 -0.1352  0.0668 -1.8499
  182SLPC  H10Y20915  -1.062   0.594   9.465  0.1824 -0.4510  1.4812
  182SLPC  C31120916  -0.935   0.512   9.320 -0.0871  0.5543  0.3052
  182SLPC  H11X20917  -0.994   0.419   9.308 -1.8700  1.9373 -1.9820
  182SLPC  H11Y20918  -0.828   0.480   9.317 -0.5955 -1.3352  1.2014
  182SLPC  C31220919  -0.980   0.606   9.207 -0.2014  0.1400  0.1782
  182SLPC  H12X20920  -0.928   0.703   9.215 -2.3841  1.2981  0.8855
  182SLPC  H12Y20921  -1.087   0.636   9.212 -0.3104 -0.2641  0.3613
  182SLPC  C31320922  -0.966   0.533   9.069 -0.9977  0.6620 -0.4511
  182SLPC  H13X20923  -1.045   0.455   9.057  0.0658 -0.6860  1.0179
  182SLPC  H13Y20924  -0.874   0.471   9.064  0.5613  3.1093 -3.1451
  182SLPC  C31420925  -0.979   0.617   8.941 -1.3560 -0.4204 -0.2508
  182SLPC  H14X20926  -0.891   0.685   8.940 -1.6121 -0.0849  0.0335
  182SLPC  H14Y20927  -1.079   0.663   8.951 -0.7037  0.3857  3.0120
  182SLPC  C31520928  -0.973   0.546   8.805  0.4016  1.6024 -0.1565
  182SLPC  H15X20929  -1.044   0.460   8.815 -0.3318  2.3564  1.2739
  182SLPC  H15Y20930  -0.878   0.495   8.781  0.3469  1.2907  0.2652
  182SLPC  C31620931  -1.008   0.648   8.697 -0.8140 -0.3304  0.1078
  182SLPC  H16X20932  -0.923   0.707   8.656  0.1505 -0.8013  1.3706
  182SLPC  H16Y20933  -1.088   0.719   8.729 -0.2745  0.1823  0.3416
  182SLPC  C31720934  -1.072   0.591   8.569 -0.3677  0.1718  0.8597
  182SLPC  H17X20935  -1.175   0.559   8.595 -0.2147  1.0455  2.6295
  182SLPC  H17Y20936  -1.015   0.501   8.537 -0.4400  0.5587 -0.3844
  182SLPC  C31820937  -1.067   0.695   8.450  0.1360  0.3918 -0.4045
  182SLPC  H18X20938  -0.974   0.755   8.458 -0.2017  0.7489  1.0344
  182SLPC  H18Y20939  -1.153   0.764   8.439 -1.1252 -0.9890  0.5847
  182SLPC  H18Z20940  -1.055   0.635   8.357 -1.7536 -2.3740  1.0386
  183SLPC     N20941   1.031   0.521  10.993 -0.0309  0.1083  0.4615
  183SLPC   C1320942   0.924   0.614  10.965  0.2037 -0.2298 -0.2425
  183SLPC  H13A20943   0.960   0.716  10.957 -0.0747 -0.0433  0.7562
  183SLPC  H13B20944   0.869   0.591  10.875 -1.4516 -0.8125  0.9047
  183SLPC  H13C20945   0.853   0.603  11.046 -0.2322  1.5991 -0.3600
  183SLPC   C1420946   0.967   0.386  10.979 -0.0300  0.7008 -0.0416
  183SLPC  H14A20947   0.917   0.382  10.884  0.0016  2.0775 -0.1271
  183SLPC  H14B20948   1.046   0.313  10.986 -1.0899 -0.5958 -1.2106
  183SLPC  H14C20949   0.899   0.361  11.059  0.1787 -0.5240 -0.2404
  183SLPC   C1520950   1.076   0.536  11.136  0.2518 -0.4263  0.1527
  183SLPC  H15A20951   1.085   0.643  11.150  0.9178 -0.4757  0.1213
  183SLPC  H15B20952   1.008   0.498  11.210  1.0556 -1.7737  0.2127
  183SLPC  H15C20953   1.176   0.498  11.149  0.1148 -0.7783  0.1819
  183SLPC   C1220954   1.151   0.545  10.898  0.5358  0.3108 -0.4397
  183SLPC  H12A20955   1.202   0.450  10.887 -0.2775 -0.2642  0.5887
  183SLPC  H12B20956   1.217   0.606  10.958  0.0621  2.5743 -2.1880
  183SLPC   C1120957   1.133   0.615  10.763  0.5268  0.3884 -1.1982
  183SLPC  H11A20958   1.056   0.571  10.697  0.7710 -0.5448 -0.8723
  183SLPC  H11B20959   1.235   0.611  10.719  1.2260 -0.1043  0.4226
  183SLPC     P20960   1.185   0.861  10.843  0.2286  0.0573 -0.4316
  183SLPC   O1320961   1.110   0.943  10.940  0.0739 -0.2275 -0.0265
  183SLPC   O1420962   1.309   0.800  10.894  0.7186 -0.1421 -0.6645
  183SLPC   O1220963   1.097   0.751  10.782  0.0078 -0.3279 -0.1406
  183SLPC   O1120964   1.210   0.959  10.722  0.3482 -0.2931 -0.2771
  183SLPC    C120965   1.244   0.916  10.590 -0.5332  0.4669  0.8242
  183SLPC    HA20966   1.314   0.988  10.542  0.2188  0.1505  1.4266
  183SLPC    HB20967   1.298   0.819  10.581 -1.2519  0.2021 -0.7286
  183SLPC    C220968   1.117   0.907  10.501 -1.2615  0.0436  0.0516
  183SLPC    HS20969   1.062   0.818  10.538 -3.3262 -0.2180 -3.4756
  183SLPC   O2120970   1.156   0.897  10.361 -0.0446  0.2900 -0.8459
  183SLPC   C2120971   1.101   0.796  10.289  0.5597 -0.4553  0.2299
  183SLPC   O2220972   1.008   0.723  10.320 -0.4759  0.1677  0.4094
  183SLPC   C2220973   1.171   0.789  10.151 -0.2059  0.4821 -0.3631
  183SLPC   H2R20974   1.195   0.895  10.128  0.0489  0.3525 -0.6865
  183SLPC   H2S20975   1.271   0.747  10.176 -0.0867  0.7486 -0.3897
  183SLPC    C320976   1.025   1.023  10.535 -0.3326  0.5279  0.0878
  183SLPC    HX20977   1.100   1.104  10.525  1.4878 -1.2427 -0.9346
  183SLPC    HY20978   0.987   1.020  10.639 -0.6943  2.5409  0.0345
  183SLPC   O3120979   0.921   1.047  10.439 -0.1575 -0.2409  0.0893
  183SLPC   C3120980   0.799   1.010  10.470  0.1455  0.3731  0.8229
  183SLPC   O3220981   0.772   0.961  10.578 -0.5567 -0.1393  0.0524
  183SLPC   C3220982   0.696   1.043  10.364 -0.2136  0.1176  0.5927
  183SLPC   H2X20983   0.683   1.151  10.382  0.5924  0.4723 -0.8778
  183SLPC   H2Y20984   0.600   0.988  10.376  0.1982 -0.9139 -0.7700
  183SLPC   C2320985   1.088   0.721  10.043  0.2052 -0.5355 -0.6919
  183SLPC   H3R20986   0.983   0.755  10.030 -0.0131 -0.9427 -0.0219
  183SLPC   H3S20987   1.088   0.612  10.067  3.5636 -0.7204 -1.2309
  183SLPC   C2420988   1.168   0.749   9.916  0.5213 -0.6670  0.1552
  183SLPC   H4R20989   1.266   0.698   9.908  0.8884 -0.3291  2.2961
  183SLPC   H4S20990   1.187   0.859   9.917 -1.5666 -0.3021  0.7497
  183SLPC   C2520991   1.083   0.719   9.790 -0.1297 -0.2120  0.2683
  183SLPC   H5R20992   1.023   0.812   9.787  0.6287  0.2592 -0.4813
  183SLPC   H5S20993   1.025   0.625   9.804  1.1744 -0.9717  0.6995
  183SLPC   C2620994   1.153   0.723   9.654 -1.0162  0.0683  0.4653
  183SLPC   H6R20995   1.222   0.810   9.658  0.4366 -1.1088  1.3733
  183SLPC   H6S20996   1.077   0.751   9.578  0.8187 -2.4659 -2.4022
  183SLPC   C2720997   1.233   0.601   9.609  0.2618  0.4067 -0.0620
  183SLPC   H7R20998   1.153   0.524   9.608 -1.1229  1.8009 -2.2159
  183SLPC   H7S20999   1.310   0.559   9.677  0.6578  1.2428  0.0148
  183SLPC   C2821000   1.295   0.611   9.467  0.2897  0.4143  0.4753
  183SLPC   H8R21001   1.395   0.652   9.492  0.5765  0.5041 -0.7596
  183SLPC   H8S21002   1.243   0.685   9.402  0.0582  0.8345  1.1409
  183SLPC   C2921003   1.324   0.492   9.394  0.5199 -0.0919 -0.3177
  183SLPC   H9R21004   1.417   0.444   9.427  0.5832  0.5060  0.3834
  183SLPC  C21021005   1.253   0.437   9.294 -0.3892 -0.1489  0.5065
  183SLPC  H10R21006   1.278   0.334   9.266 -0.3086  0.1855 -0.6693
  183SLPC  C21121007   1.126   0.494   9.239  0.0503  0.8864  0.0229
  183SLPC  H11R21008   1.086   0.587   9.284  1.5083  2.0959 -1.1692
  183SLPC  H11S21009   1.041   0.425   9.262  1.7745 -1.4113 -0.2690
  183SLPC  C21221010   1.139   0.497   9.090  0.3740  0.6521 -0.6526
  183SLPC  H12R21011   1.129   0.404   9.031 -0.3028 -0.0346  0.5369
  183SLPC  C21321012   1.162   0.605   9.016 -0.6679  0.5149 -0.0731
  183SLPC  H13R21013   1.177   0.607   8.907 -0.8211  2.4694 -0.0739
  183SLPC  C21421014   1.188   0.749   9.068  0.3581 -0.0540  0.1036
  183SLPC  H14R21015   1.169   0.761   9.177  3.5067 -0.1634  0.7248
  183SLPC  H14S21016   1.107   0.810   9.023  0.5377 -0.5146 -0.8518
  183SLPC  C21521017   1.322   0.809   9.042 -0.1702 -1.0762 -1.2213
  183SLPC  H15R21018   1.408   0.748   9.077 -0.6886 -1.1022  0.0381
  183SLPC  H15S21019   1.333   0.901   9.102 -0.1159 -1.0441 -1.2801
  183SLPC  C21621020   1.336   0.842   8.892  0.4944 -0.1140 -0.3846
  183SLPC  H16R21021   1.245   0.892   8.852 -1.0132 -1.4370  1.3197
  183SLPC  H16S21022   1.353   0.746   8.839  0.2597 -0.6389  0.4999
  183SLPC  C21721023   1.445   0.946   8.855 -0.2811  0.1444 -0.2707
  183SLPC  H17R21024   1.540   0.903   8.894 -1.3733 -2.4447 -0.3947
  183SLPC  H17S21025   1.422   1.042   8.906 -1.1059 -1.1316  1.8404
  183SLPC  C21821026   1.452   0.965   8.703  0.1573 -0.7324 -0.0141
  183SLPC  H18R21027   1.362   1.009   8.656  0.2070 -1.0766 -0.4404
  183SLPC  H18S21028   1.462   0.865   8.656 -1.2897 -1.1833  0.6124
  183SLPC  H18T21029   1.536   1.032   8.675 -1.9587  2.1586  0.3645
  183SLPC   C3321030   0.752   1.028  10.223  0.1351 -0.9171 -0.3291
  183SLPC   H3X21031   0.828   0.947  10.214  3.0754  1.5015  1.5796
  183SLPC   H3Y21032   0.815   1.113  10.188 -0.3762 -0.5861 -0.4505
  183SLPC   C3421033   0.654   1.012  10.104  0.3444  0.3706 -0.5024
  183SLPC   H4X21034   0.592   1.104  10.097  0.4811  0.4038 -1.3241
  183SLPC   H4Y21035   0.581   0.929  10.118  1.2270 -0.3719 -0.3158
  183SLPC   C3521036   0.727   0.997   9.972 -0.3574 -0.1372  0.5586
  183SLPC   H5X21037   0.776   0.897   9.977  1.9383  0.8163 -1.4785
  183SLPC   H5Y21038   0.805   1.075   9.961 -0.1242 -0.1981  1.7268
  183SLPC   C3621039   0.647   1.011   9.842 -1.2047  0.2499  0.4215
  183SLPC   H6X21040   0.609   1.113   9.819 -0.9448  0.7227  2.0079
  183SLPC   H6Y21041   0.560   0.943   9.854  0.1193 -1.5298  0.0022
  183SLPC   C3721042   0.715   0.941   9.719 -0.2744  0.1800  0.7766
  183SLPC   H7X21043   0.719   0.835   9.751  0.1168  0.5947  2.1016
  183SLPC   H7Y21044   0.814   0.987   9.699 -0.9649  1.1092 -0.5923
  183SLPC   C3821045   0.640   0.949   9.586  0.2876  0.0330 -0.5366
  183SLPC   H8X21046   0.622   1.057   9.569 -1.5394  0.3564  2.9774
  183SLPC   H8Y21047   0.541   0.900   9.590  0.8415 -1.0250  0.3874
  183SLPC   C3921048   0.727   0.901   9.474  0.2740 -0.4494  0.1245
  183SLPC   H9X21049   0.769   0.804   9.509  0.2106 -1.0652 -1.4883
  183SLPC   H9Y21050   0.813   0.972   9.480  0.0595 -0.0234 -1.5113
  183SLPC  C31021051   0.656   0.887   9.345  0.5920 -0.1161 -0.1772
  183SLPC  H10X21052   0.620   0.988   9.316 -0.9734 -0.4423  0.5731
  183SLPC  H10Y21053   0.572   0.815   9.351  1.2353 -0.9111 -0.7131
  183SLPC  C31121054   0.743   0.835   9.227  0.7892  0.1493  0.7812
  183SLPC  H11X21055   0.797   0.740   9.250 -0.8827 -1.1430 -0.4848
  183SLPC  H11Y21056   0.812   0.920   9.211  0.8970  0.2514  1.7452
  183SLPC  C31221057   0.666   0.801   9.095 -0.1953 -0.2550 -0.3003
  183SLPC  H12X21058   0.608   0.892   9.069  0.8056  0.1515 -1.1403
  183SLPC  H12Y21059   0.587   0.724   9.111 -1.0471  0.0949 -2.5001
  183SLPC  C31321060   0.768   0.743   8.993  0.0674 -0.0324 -0.0944
  183SLPC  H13X21061   0.813   0.650   9.034 -0.0067  0.4250  1.0363
  183SLPC  H13Y21062   0.856   0.811   8.991  0.2827 -0.0693  3.7131
  183SLPC  C31421063   0.701   0.734   8.853  0.8788 -0.0361 -0.4684
  183SLPC  H14X21064   0.638   0.823   8.827 -1.2679 -1.7297 -1.2514
  183SLPC  H14Y21065   0.632   0.647   8.859 -1.7187  1.9179 -0.8688
  183SLPC  C31521066   0.788   0.702   8.729 -0.0047  0.0618 -0.2103
  183SLPC  H15X21067   0.875   0.772   8.725 -0.0155  0.1278  0.6533
  183SLPC  H15Y21068   0.720   0.708   8.642 -2.0141 -1.2621  1.2343
  183SLPC  C31621069   0.840   0.556   8.732  1.1745 -0.9287 -0.7480
  183SLPC  H16X21070   0.751   0.490   8.721  0.2498  0.2840 -0.7124
  183SLPC  H16Y21071   0.886   0.538   8.831 -1.5211 -2.0600  0.3512
  183SLPC  C31721072   0.921   0.506   8.606 -0.0630 -0.1991 -0.7476
  183SLPC  H17X21073   1.028   0.529   8.625 -0.1959  1.6601 -2.0786
  183SLPC  H17Y21074   0.887   0.563   8.517  0.9777 -2.0734 -2.3872
  183SLPC  C31821075   0.916   0.360   8.563 -0.4694 -0.0959  0.3925
  183SLPC  H18X21076   0.811   0.327   8.583 -0.6790 -1.0921 -2.1829
  183SLPC  H18Y21077   0.989   0.294   8.613  0.8774 -0.5709 -2.1027
  183SLPC  H18Z21078   0.931   0.351   8.453  1.4547 -5.0327  0.9303
  184SLPC     N21079   3.597   5.219  10.875  0.0795 -0.0956 -0.2146
  184SLPC   C1321080   3.481   5.139  10.923 -0.2831 -0.2667  0.7571
  184SLPC  H13A21081   3.500   5.037  10.894 -1.9240 -0.0596 -1.1781
  184SLPC  H13B21082   3.462   5.143  11.030  2.0762 -0.1651  1.1976
  184SLPC  H13C21083   3.395   5.182  10.873  1.0225  0.0776 -1.2521
  184SLPC   C1421084   3.716   5.163  10.951 -0.2630  0.4530 -0.5348
  184SLPC  H14A21085   3.798   5.232  10.944 -0.2800  0.5864  0.4876
  184SLPC  H14B21086   3.686   5.150  11.054 -1.5509 -2.0895 -1.1728
  184SLPC  H14C21087   3.746   5.064  10.917  0.5429  0.8095 -0.8731
  184SLPC   C1521088   3.579   5.364  10.926  0.4122  0.3822  0.2180
  184SLPC  H15A21089   3.665   5.430  10.916  0.1524  0.5839 -0.8192
  184SLPC  H15B21090   3.500   5.404  10.864  0.1055  3.8101  2.6418
  184SLPC  H15C21091   3.544   5.357  11.028  0.6247  1.4071  0.3703
  184SLPC   C1221092   3.615   5.220  10.718 -0.4077 -0.0815 -0.2217
  184SLPC  H12A21093   3.628   5.117  10.690 -1.2554 -0.3100  0.1818
  184SLPC  H12B21094   3.706   5.271  10.692 -0.8707  0.9198  0.0777
  184SLPC   C1121095   3.499   5.278  10.629 -0.6438  0.8278 -0.8256
  184SLPC  H11A21096   3.535   5.312  10.529 -0.1759  1.6945 -0.3637
  184SLPC  H11B21097   3.461   5.365  10.687  1.5029  0.0885  1.7828
  184SLPC     P21098   3.398   5.045  10.554 -0.2021 -0.5292  0.0121
  184SLPC   O1321099   3.511   4.972  10.613  0.3558 -0.1289  0.3156
  184SLPC   O1421100   3.265   4.978  10.569 -0.5603 -0.3463  0.3410
  184SLPC   O1221101   3.392   5.182  10.626 -0.2017 -0.4222  0.5909
  184SLPC   O1121102   3.407   5.081  10.401 -0.2806 -0.3904  0.5492
  184SLPC    C121103   3.349   5.194  10.337  0.4563  0.5967  0.3009
  184SLPC    HA21104   3.315   5.268  10.413  0.7863  0.5602  0.4888
  184SLPC    HB21105   3.429   5.241  10.276  1.8704  2.2182  3.2908
  184SLPC    C221106   3.223   5.155  10.257  0.6505 -0.6921 -0.5010
  184SLPC    HS21107   3.161   5.089  10.322 -0.8069  1.5723  0.4626
  184SLPC   O2121108   3.268   5.100  10.131 -0.4624 -0.1325  0.5684
  184SLPC   C2121109   3.190   5.017  10.071 -0.3835 -0.4742 -0.2287
  184SLPC   O2221110   3.087   4.968  10.117  0.2691  0.4810  0.0532
  184SLPC   C2221111   3.255   4.988   9.939 -0.1648 -0.9294  0.0864
  184SLPC   H2R21112   3.364   4.969   9.954 -0.3213 -1.7924  0.1451
  184SLPC   H2S21113   3.209   4.898   9.895  0.2407 -0.2901 -1.6972
  184SLPC    C321114   3.149   5.288  10.225  0.0102  0.3121  0.1306
  184SLPC    HX21115   3.214   5.351  10.160  0.9117  0.1461  0.8817
  184SLPC    HY21116   3.145   5.356  10.313  1.1875 -0.2712  0.6401
  184SLPC   O3121117   3.020   5.274  10.166  0.5378 -0.1453 -0.1619
  184SLPC   C3121118   2.934   5.212  10.243  0.4711 -0.3677  0.0735
  184SLPC   O3221119   2.948   5.173  10.357 -0.2604  0.1478  0.1651
  184SLPC   C3221120   2.800   5.218  10.167 -0.8533 -0.0779 -0.3258
  184SLPC   H2X21121   2.732   5.288  10.220  0.8034  1.3271  0.0056
  184SLPC   H2Y21122   2.775   5.110  10.170  2.6318 -1.0059 -2.0878
  184SLPC   C2321123   3.221   5.087   9.830 -0.0448 -0.0273 -0.4385
  184SLPC   H3R21124   3.255   5.192   9.847  0.9218 -0.6736  1.8853
  184SLPC   H3S21125   3.111   5.103   9.822 -0.0588  0.9605  1.3821
  184SLPC   C2421126   3.273   5.044   9.687 -0.7098 -0.0347 -0.6467
  184SLPC   H4R21127   3.233   4.943   9.664 -3.7743  0.4598  2.0846
  184SLPC   H4S21128   3.384   5.039   9.693 -0.6443  0.5227 -1.3341
  184SLPC   C2521129   3.237   5.140   9.577  0.1795 -0.6297 -0.0004
  184SLPC   H5R21130   3.279   5.240   9.602 -0.3315 -0.3247 -0.3557
  184SLPC   H5S21131   3.129   5.152   9.557  0.5668  1.1606 -1.1316
  184SLPC   C2621132   3.286   5.097   9.441 -0.0418 -0.0283 -0.5097
  184SLPC   H6R21133   3.245   4.996   9.420  2.0447 -0.8866 -0.6120
  184SLPC   H6S21134   3.396   5.084   9.454  0.2103  3.1166  0.8366
  184SLPC   C2721135   3.241   5.191   9.324  1.1788  0.2252 -0.2943
  184SLPC   H7R21136   3.252   5.298   9.350 -1.6832  0.6090 -0.4845
  184SLPC   H7S21137   3.131   5.179   9.318  1.2738 -0.5409 -0.5400
  184SLPC   C2821138   3.304   5.169   9.192  0.3772  0.4715  0.1154
  184SLPC   H8R21139   3.408   5.205   9.200  0.3687  0.9356 -1.7797
  184SLPC   H8S21140   3.260   5.236   9.115  0.9345  1.3697  0.5719
  184SLPC   C2921141   3.296   5.026   9.140 -0.4651 -0.2669 -0.0998
  184SLPC   H9R21142   3.369   4.958   9.186  0.5612  1.0364  0.2288
  184SLPC  C21021143   3.241   4.988   9.025 -0.3959 -0.1207 -0.7103
  184SLPC  H10R21144   3.253   4.880   9.007  1.5998 -0.0338 -0.0707
  184SLPC  C21121145   3.164   5.076   8.938  0.5876  0.7291 -0.7185
  184SLPC  H11R21146   3.096   5.147   8.990 -0.1518 -0.6802  0.2531
  184SLPC  H11S21147   3.087   5.012   8.891 -1.2618  0.4041  2.6172
  184SLPC  C21221148   3.245   5.143   8.828  0.2815 -0.5206 -0.1538
  184SLPC  H12R21149   3.326   5.210   8.862 -0.2687  0.5629 -0.9749
  184SLPC  C21321150   3.235   5.129   8.693  1.2774 -0.6648 -0.2044
  184SLPC  H13R21151   3.309   5.180   8.630  0.9966  1.6403  1.2754
  184SLPC  C21421152   3.124   5.057   8.610  0.3503  0.4650  0.4022
  184SLPC  H14R21153   3.047   5.026   8.682  0.7839  0.8395  1.0306
  184SLPC  H14S21154   3.158   4.962   8.564  0.7106  0.1869  1.2393
  184SLPC  C21521155   3.054   5.156   8.522  0.1830  0.0002 -0.0930
  184SLPC  H15R21156   3.130   5.215   8.467  2.5017 -1.3998  1.4937
  184SLPC  H15S21157   3.007   5.226   8.594  1.3439  1.7589 -1.0122
  184SLPC  C21621158   2.940   5.100   8.438  0.1772 -0.0697  0.6718
  184SLPC  H16R21159   2.879   5.036   8.505  2.0399 -0.6089  1.9068
  184SLPC  H16S21160   2.974   5.046   8.347 -2.6435  0.1219 -0.5429
  184SLPC  C21721161   2.862   5.219   8.381 -0.3546 -0.9489  0.2568
  184SLPC  H17R21162   2.919   5.314   8.372 -0.7006 -0.8375 -0.8549
  184SLPC  H17S21163   2.780   5.242   8.452  1.0384 -0.5479  1.7498
  184SLPC  C21821164   2.795   5.178   8.252 -1.0556 -0.1832 -0.3559
  184SLPC  H18R21165   2.733   5.260   8.211 -1.3586  1.3501  2.9787
  184SLPC  H18S21166   2.729   5.090   8.267 -0.4613 -1.2449 -3.6206
  184SLPC  H18T21167   2.875   5.158   8.178 -1.2214  0.3287 -0.6735
  184SLPC   C3321168   2.802   5.271  10.022 -0.4315 -0.2981  0.1821
  184SLPC   H3X21169   2.891   5.238   9.963  0.2865 -0.5175  1.3641
  184SLPC   H3Y21170   2.806   5.382  10.020 -3.5348 -0.1789 -1.5315
  184SLPC   C3421171   2.672   5.223   9.938 -0.0230  0.5748  0.2580
  184SLPC   H4X21172   2.592   5.280   9.991 -0.6619 -0.6312  0.5960
  184SLPC   H4Y21173   2.669   5.113   9.951  2.8871  0.1599 -2.0301
  184SLPC   C3521174   2.695   5.253   9.790 -0.4340 -0.0832  0.5767
  184SLPC   H5X21175   2.699   5.363   9.776  0.5843  0.0917  2.0959
  184SLPC   H5Y21176   2.613   5.215   9.724  1.9018  0.7206 -2.8926
  184SLPC   C3621177   2.822   5.188   9.727 -0.1635 -0.4010 -0.6661
  184SLPC   H6X21178   2.845   5.089   9.771  0.8537  0.2656  0.3506
  184SLPC   H6Y21179   2.904   5.256   9.760 -0.6732  0.8285 -1.9003
  184SLPC   C3721180   2.809   5.183   9.571  0.9067  0.6812 -0.5508
  184SLPC   H7X21181   2.731   5.112   9.535  0.7959  2.0978 -3.1783
  184SLPC   H7Y21182   2.905   5.138   9.540  1.3915  0.6300  0.9705
  184SLPC   C3821183   2.806   5.327   9.511 -0.1095 -0.4028 -0.2660
  184SLPC   H8X21184   2.892   5.378   9.560  0.0519  1.5572 -2.5163
  184SLPC   H8Y21185   2.712   5.380   9.534  0.8468  1.5625 -0.7920
  184SLPC   C3921186   2.832   5.326   9.354 -0.3578 -0.4692 -0.4265
  184SLPC   H9X21187   2.761   5.256   9.307  0.5048 -1.3989 -0.3502
  184SLPC   H9Y21188   2.937   5.301   9.327 -0.5748 -0.9651 -0.8046
  184SLPC  C31021189   2.804   5.467   9.294  0.5565  0.1083  0.1930
  184SLPC  H10X21190   2.861   5.541   9.354  0.3670 -0.0072  0.5122
  184SLPC  H10Y21191   2.694   5.480   9.302  1.0209  4.1479  1.2697
  184SLPC  C31121192   2.836   5.471   9.142  0.1571  0.2169 -0.7028
  184SLPC  H11X21193   2.945   5.455   9.127  0.1672  1.4474 -2.1655
  184SLPC  H11Y21194   2.812   5.574   9.109  1.1632  0.3833 -0.9355
  184SLPC  C31221195   2.774   5.359   9.058  0.1014  0.3834 -0.0860
  184SLPC  H12X21196   2.664   5.374   9.061  0.1477  0.5308  2.4074
  184SLPC  H12Y21197   2.802   5.256   9.088  2.0786  0.8242 -0.3316
  184SLPC  C31321198   2.817   5.374   8.905  0.1505  0.0685  0.7122
  184SLPC  H13X21199   2.927   5.391   8.896 -0.0878  2.2429  1.5911
  184SLPC  H13Y21200   2.782   5.468   8.858  0.4373  0.3501  1.0501
  184SLPC  C31421201   2.801   5.244   8.826  0.0704  0.1720 -0.0800
  184SLPC  H14X21202   2.835   5.150   8.873  0.6676  0.1722 -0.4974
  184SLPC  H14Y21203   2.866   5.261   8.737 -1.8128  2.4498 -1.0788
  184SLPC  C31521204   2.656   5.225   8.777  0.1012 -0.3645 -0.0942
  184SLPC  H15X21205   2.608   5.304   8.715 -1.2321  0.6135  2.1022
  184SLPC  H15Y21206   2.578   5.217   8.856  0.1303  2.7139  0.2890
  184SLPC  C31621207   2.639   5.101   8.687 -0.0386  0.6448 -0.2102
  184SLPC  H16X21208   2.724   5.032   8.708 -0.5860  0.4724  1.4167
  184SLPC  H16Y21209   2.641   5.135   8.581 -2.1155 -1.6108 -1.0116
  184SLPC  C31721210   2.508   5.029   8.699  0.2183  1.3397 -0.3077
  184SLPC  H17X21211   2.488   5.017   8.807  2.7510 -1.3300 -0.0796
  184SLPC  H17Y21212   2.518   4.923   8.665 -3.5246  0.7016  0.3369
  184SLPC  C31821213   2.393   5.091   8.620  0.0753  0.2807 -0.3439
  184SLPC  H18X21214   2.319   5.009   8.636 -0.0924  0.3524 -0.7603
  184SLPC  H18Y21215   2.411   5.105   8.512 -1.6174 -2.3610 -1.0149
  184SLPC  H18Z21216   2.363   5.193   8.653  0.2800 -0.1692  1.2979
  185SLPC     N21217   1.659   1.226   6.522 -0.0771  0.0953 -0.8152
  185SLPC   C1321218   1.589   1.344   6.453 -0.2207 -0.6874 -0.3882
  185SLPC  H13A21219   1.651   1.431   6.466  3.0312 -2.9908  0.1042
  185SLPC  H13B21220   1.573   1.325   6.348 -0.6164 -1.9712 -0.1057
  185SLPC  H13C21221   1.485   1.348   6.482  0.3060  2.2408  1.3927
  185SLPC   C1421222   1.592   1.102   6.483  0.0278  0.7678 -0.0243
  185SLPC  H14A21223   1.611   1.085   6.379  1.0219  1.9396 -0.0374
  185SLPC  H14B21224   1.633   1.020   6.540  0.6029  0.3556 -1.0424
  185SLPC  H14C21225   1.486   1.102   6.505 -0.5260 -0.5808 -2.4867
  185SLPC   C1521226   1.651   1.243   6.665  0.2296 -0.0217 -0.3376
  185SLPC  H15A21227   1.685   1.343   6.686 -0.5068  0.5400 -1.6887
  185SLPC  H15B21228   1.547   1.231   6.692  0.6271 -2.1290  0.3545
  185SLPC  H15C21229   1.713   1.167   6.709 -1.8395 -1.6063 -0.0327
  185SLPC   C1221230   1.805   1.221   6.475 -0.3952 -0.2129 -0.5558
  185SLPC  H12A21231   1.853   1.138   6.526 -0.5604  0.5731  0.8946
  185SLPC  H12B21232   1.848   1.314   6.508 -0.5556  0.4985 -2.3068
  185SLPC   C1121233   1.818   1.187   6.323 -0.7515  0.1335 -0.6646
  185SLPC  H11A21234   1.918   1.219   6.287 -0.2732 -0.2744  0.2758
  185SLPC  H11B21235   1.751   1.247   6.258 -0.7082 -0.2868 -1.0940
  185SLPC     P21236   1.912   0.939   6.338  0.0625  0.0854  0.1864
  185SLPC   O1321237   1.845   0.806   6.333  0.0658 -0.7858 -0.6234
  185SLPC   O1421238   2.039   0.944   6.260  0.1712 -0.7184  0.0205
  185SLPC   O1221239   1.803   1.045   6.298  0.2055 -0.1730 -0.2520
  185SLPC   O1121240   1.942   0.981   6.489 -0.4241 -0.7482 -0.4446
  185SLPC    C121241   2.009   0.894   6.578  0.3471 -0.3278 -0.6223
  185SLPC    HA21242   2.020   0.794   6.530 -1.3837  0.2636 -2.2752
  185SLPC    HB21243   2.113   0.933   6.589 -0.2710  1.5414 -1.2519
  185SLPC    C221244   1.948   0.882   6.719  0.3105 -0.7879  0.6738
  185SLPC    HS21245   1.986   0.796   6.778  0.4995 -1.3821 -0.2978
  185SLPC   O2121246   1.800   0.870   6.708  0.2694 -0.1522  0.0078
  185SLPC   C2121247   1.765   0.746   6.670 -0.3004  0.5589  0.2826
  185SLPC   O2221248   1.839   0.650   6.687 -0.0333  0.0864 -0.2635
  185SLPC   C2221249   1.617   0.747   6.650  0.5037  0.3117  0.4147
  185SLPC   H2R21250   1.572   0.840   6.692 -1.5731 -0.2603 -0.5245
  185SLPC   H2S21251   1.602   0.746   6.540  2.4636  1.8886  0.0845
  185SLPC    C321252   1.990   1.006   6.812 -0.2881  0.6226 -0.0749
  185SLPC    HX21253   1.947   1.099   6.769 -0.8570 -0.2816 -1.4951
  185SLPC    HY21254   2.101   1.006   6.804 -0.1580 -3.9252  0.3971
  185SLPC   O3121255   1.949   0.995   6.945 -0.5166  0.2842 -0.4921
  185SLPC   C3121256   1.829   1.055   6.985 -0.1694 -0.4698  0.0950
  185SLPC   O3221257   1.762   1.121   6.911 -0.1798  0.1151  0.4119
  185SLPC   C3221258   1.803   1.036   7.134 -0.2131  0.3378  0.5228
  185SLPC   H2X21259   1.898   1.026   7.190  1.0023  2.2560 -1.1607
  185SLPC   H2Y21260   1.748   0.939   7.144  1.9935 -0.8025  1.9717
  185SLPC   C2321261   1.548   0.622   6.726  0.1082  0.0533 -0.1524
  185SLPC   H3R21262   1.622   0.542   6.703  0.2010  0.7445 -2.4401
  185SLPC   H3S21263   1.450   0.588   6.684  1.0253 -1.6451 -0.9692
  185SLPC   C2421264   1.516   0.643   6.877 -0.3843  0.6351 -0.6589
  185SLPC   H4R21265   1.469   0.551   6.919  0.9801  0.1106 -0.2702
  185SLPC   H4S21266   1.432   0.714   6.897  1.2912  1.7109  2.8597
  185SLPC   C2521267   1.639   0.681   6.968  0.0116  0.1006 -0.1038
  185SLPC   H5R21268   1.679   0.780   6.939 -1.6595  0.8821  0.2108
  185SLPC   H5S21269   1.718   0.606   6.948 -2.4743 -2.7301  0.1715
  185SLPC   C2621270   1.602   0.679   7.116 -0.6547 -0.1523  0.3654
  185SLPC   H6R21271   1.696   0.699   7.172  0.7092 -1.4581 -1.3991
  185SLPC   H6S21272   1.563   0.580   7.149  0.8879 -0.5515  1.0628
  185SLPC   C2721273   1.499   0.782   7.169  0.5613 -0.8725  0.1299
  185SLPC   H7R21274   1.408   0.767   7.106  0.9000  2.4469 -1.2360
  185SLPC   H7S21275   1.541   0.879   7.135 -1.5441 -0.0815 -0.3024
  185SLPC   C2821276   1.488   0.784   7.332 -0.5009 -0.3598 -0.4183
  185SLPC   H8R21277   1.583   0.801   7.388 -1.0441  0.0601  0.4017
  185SLPC   H8S21278   1.455   0.686   7.373 -2.7797  0.9685  1.0366
  185SLPC   C2921279   1.383   0.884   7.379 -0.1617  0.1397 -0.4743
  185SLPC   H9R21280   1.322   0.929   7.299 -2.2528  1.9678  2.0970
  185SLPC  C21021281   1.354   0.916   7.509  0.0521  0.1464 -0.1798
  185SLPC  H10R21282   1.267   0.982   7.521 -1.1513 -1.1372 -1.5719
  185SLPC  C21121283   1.431   0.883   7.631 -0.3897  0.5446 -0.1537
  185SLPC  H11R21284   1.516   0.814   7.610 -1.5256  0.0312 -3.2027
  185SLPC  H11S21285   1.366   0.806   7.677 -2.9826  1.5040 -2.1029
  185SLPC  C21221286   1.453   1.001   7.726 -0.6010 -0.4994  1.1112
  185SLPC  H12R21287   1.536   1.070   7.704 -0.3858 -0.4643  2.0378
  185SLPC  C21321288   1.374   1.039   7.829  0.0499  0.0517  0.5699
  185SLPC  H13R21289   1.388   1.137   7.877  1.1584  0.1285  0.1041
  185SLPC  C21421290   1.249   0.972   7.875  0.0219  0.2569  0.2567
  185SLPC  H14R21291   1.219   0.877   7.826  0.0425  0.3212  0.1205
  185SLPC  H14S21292   1.160   1.038   7.867  0.9230  1.3351 -0.9639
  185SLPC  C21521293   1.254   0.928   8.024  0.4279  0.3997  0.2929
  185SLPC  H15R21294   1.280   1.010   8.093  2.0020  2.2317 -2.3962
  185SLPC  H15S21295   1.340   0.858   8.016  0.8463  0.7374  1.6935
  185SLPC  C21621296   1.122   0.859   8.070  0.5900  0.2966 -0.2584
  185SLPC  H16R21297   1.089   0.771   8.010 -1.7829  0.9034  0.1316
  185SLPC  H16S21298   1.046   0.939   8.061 -2.2290 -2.1735  0.7311
  185SLPC  C21721299   1.133   0.822   8.217  0.2324 -0.1081  0.0253
  185SLPC  H17R21300   1.161   0.916   8.269  1.6222 -0.3446 -0.2605
  185SLPC  H17S21301   1.211   0.744   8.228 -0.7709 -1.0563  0.4990
  185SLPC  C21821302   1.009   0.760   8.265  0.3964 -0.0317 -0.0802
  185SLPC  H18R21303   1.020   0.730   8.372  1.1197  0.8757  0.1114
  185SLPC  H18S21304   0.995   0.669   8.204 -0.4616  1.1617 -1.7115
  185SLPC  H18T21305   0.921   0.828   8.256  0.6971  0.5375  1.1472
  185SLPC   C3321306   1.701   1.135   7.201  0.2775 -0.1860  0.3439
  185SLPC   H3X21307   1.656   1.089   7.292  1.0634 -1.2085  0.2229
  185SLPC   H3Y21308   1.620   1.137   7.125  1.4640 -2.2424 -1.0216
  185SLPC   C3421309   1.762   1.271   7.227  0.1357 -0.1443 -0.1268
  185SLPC   H4X21310   1.683   1.341   7.259 -1.3439 -0.8927 -2.0348
  185SLPC   H4Y21311   1.801   1.311   7.131  0.2631 -2.3813 -1.0529
  185SLPC   C3521312   1.858   1.265   7.347 -0.1511 -0.8005  0.4169
  185SLPC   H5X21313   1.914   1.360   7.358 -0.9826 -0.3809  1.1115
  185SLPC   H5Y21314   1.938   1.190   7.330  0.4678  0.6137 -3.2173
  185SLPC   C3621315   1.785   1.243   7.481 -0.2232  0.6493 -0.2725
  185SLPC   H6X21316   1.740   1.142   7.489 -0.5241  0.8466  0.6093
  185SLPC   H6Y21317   1.705   1.320   7.490 -0.3061  0.6143 -0.6989
  185SLPC   C3721318   1.887   1.250   7.599 -0.0113 -0.0939 -0.1283
  185SLPC   H7X21319   1.977   1.189   7.576 -0.2501  0.8433 -3.8788
  185SLPC   H7Y21320   1.834   1.207   7.686 -2.4365  0.9280 -1.0372
  185SLPC   C3821321   1.918   1.397   7.634  0.0471 -1.0625 -0.2898
  185SLPC   H8X21322   1.827   1.460   7.642  0.0458 -1.2248  1.0086
  185SLPC   H8Y21323   1.972   1.444   7.548  0.3461  2.4393  1.7282
  185SLPC   C3921324   2.012   1.409   7.760  0.2931  0.1640  0.6442
  185SLPC   H9X21325   2.067   1.506   7.763  0.2734  0.1833  0.4309
  185SLPC   H9Y21326   2.079   1.323   7.738  0.5771  1.2237 -2.9216
  185SLPC  C31021327   1.940   1.410   7.893 -0.0610 -0.4608  0.5332
  185SLPC  H10X21328   1.868   1.326   7.904 -0.9276  0.3452  1.1109
  185SLPC  H10Y21329   1.874   1.499   7.899  1.0227  0.3783  0.2547
  185SLPC  C31121330   2.035   1.419   8.011 -0.0713  0.4083  0.1342
  185SLPC  H11X21331   1.974   1.453   8.097  0.3767  0.7533  0.3156
  185SLPC  H11Y21332   2.113   1.496   7.996 -0.2031  0.4279 -0.4544
  185SLPC  C31221333   2.112   1.290   8.040 -0.4689 -0.6458 -0.2462
  185SLPC  H12X21334   2.189   1.280   7.960 -0.2605 -0.6289 -0.0451
  185SLPC  H12Y21335   2.030   1.215   8.032 -1.1455  0.0593 -0.0477
  185SLPC  C31321336   2.172   1.292   8.188 -0.6049  0.3642 -1.0300
  185SLPC  H13X21337   2.094   1.336   8.253 -0.7821 -2.1705  0.5741
  185SLPC  H13Y21338   2.261   1.357   8.200 -0.8676  0.7540 -1.2108
  185SLPC  C31421339   2.223   1.157   8.234  0.1577 -0.5878  0.5134
  185SLPC  H14X21340   2.304   1.118   8.168 -0.0271  0.9199 -0.6274
  185SLPC  H14Y21341   2.142   1.081   8.238 -1.3965  1.0685  0.9591
  185SLPC  C31521342   2.280   1.171   8.373 -0.5000 -0.3774 -0.3812
  185SLPC  H15X21343   2.194   1.188   8.441 -0.2463 -1.5254  0.2487
  185SLPC  H15Y21344   2.358   1.250   8.367  1.0845 -1.9129 -0.7365
  185SLPC  C31621345   2.349   1.040   8.407  0.5130 -0.2119  0.1423
  185SLPC  H16X21346   2.401   0.991   8.322  2.7297  2.0298  0.1377
  185SLPC  H16Y21347   2.271   0.963   8.422  2.3544 -1.7976  1.6709
  185SLPC  C31721348   2.447   1.045   8.517  0.5165 -0.4486 -0.3609
  185SLPC  H17X21349   2.538   1.101   8.485 -0.4769  1.0406 -0.6394
  185SLPC  H17Y21350   2.479   0.940   8.536  2.1307  0.1457  0.3075
  185SLPC  C31821351   2.384   1.121   8.636  0.9802  0.1517 -0.8670
  185SLPC  H18X21352   2.280   1.086   8.655  0.4906  1.4554 -1.1078
  185SLPC  H18Y21353   2.373   1.230   8.620 -1.1916  0.2624  1.1248
  185SLPC  H18Z21354   2.452   1.101   8.721  0.6450 -0.8303 -0.8238
  186SLPC     N21355   2.180   3.220   6.076 -0.3429 -0.3580  0.5923
  186SLPC   C1321356   2.217   3.111   5.974  0.8782  0.7258  0.1628
  186SLPC  H13A21357   2.248   3.163   5.884  0.6634 -1.8138 -1.4399
  186SLPC  H13B21358   2.293   3.044   6.011 -2.5092 -2.7109  1.2530
  186SLPC  H13C21359   2.132   3.050   5.949  0.1366  0.9373  2.1380
  186SLPC   C1421360   2.113   3.144   6.184  0.0761 -0.0570 -0.1639
  186SLPC  H14A21361   2.079   3.211   6.262 -0.1786 -1.2233  0.7495
  186SLPC  H14B21362   2.024   3.096   6.146 -0.9132  2.0688 -0.5901
  186SLPC  H14C21363   2.186   3.080   6.231 -1.3826 -0.8811  1.0348
  186SLPC   C1521364   2.086   3.319   6.009 -0.1467 -0.1293  0.1995
  186SLPC  H15A21365   2.054   3.381   6.092  1.2314  1.7489 -0.6297
  186SLPC  H15B21366   2.135   3.377   5.932  1.4986 -0.9287  0.6255
  186SLPC  H15C21367   2.002   3.259   5.976 -0.8131  1.4384 -1.0792
  186SLPC   C1221368   2.305   3.285   6.129 -0.2087 -0.2531  0.1357
  186SLPC  H12A21369   2.353   3.348   6.055  1.5506 -2.7008 -0.9013
  186SLPC  H12B21370   2.383   3.212   6.148 -0.7448 -1.1592 -1.0302
  186SLPC   C1121371   2.282   3.382   6.248  0.2045 -0.3649 -1.0807
  186SLPC  H11A21372   2.381   3.405   6.293  0.4981  1.5668 -2.6309
  186SLPC  H11B21373   2.232   3.335   6.335  1.9705  0.0388  0.1903
  186SLPC     P21374   2.094   3.580   6.276  0.0546  0.3245 -0.1942
  186SLPC   O1321375   2.071   3.700   6.185  0.0184 -0.2184 -0.3364
  186SLPC   O1421376   1.987   3.485   6.318 -0.2510 -0.2634  0.5019
  186SLPC   O1221377   2.222   3.510   6.210  0.0229 -0.2885  0.4261
  186SLPC   O1121378   2.158   3.638   6.408  0.3660 -0.1958 -0.0946
  186SLPC    C121379   2.087   3.729   6.499  0.2461  0.2394 -0.5184
  186SLPC    HA21380   2.118   3.831   6.469  0.6978  0.2949  0.1333
  186SLPC    HB21381   1.977   3.715   6.491  0.3588 -1.6290  0.6956
  186SLPC    C221382   2.127   3.720   6.644  0.4512 -0.6610  0.5394
  186SLPC    HS21383   2.236   3.699   6.646  0.4693 -0.4285  2.1512
  186SLPC   O2121384   2.049   3.618   6.707 -0.4045 -0.0253 -0.3169
  186SLPC   C2121385   2.117   3.514   6.749 -0.1948 -0.5641  0.1240
  186SLPC   O2221386   2.239   3.503   6.741 -0.3023  0.7952 -0.6647
  186SLPC   C2221387   2.024   3.414   6.814  0.2367 -0.1965  0.2745
  186SLPC   H2R21388   1.931   3.471   6.836  1.2737  1.6714 -0.1001
  186SLPC   H2S21389   1.999   3.336   6.739  0.3170 -2.5130  2.5858
  186SLPC    C321390   2.096   3.858   6.719  0.3037 -0.8443 -0.0777
  186SLPC    HX21391   1.986   3.851   6.731  0.6644 -4.1355  2.0543
  186SLPC    HY21392   2.121   3.939   6.648  1.1501 -0.0696  1.0774
  186SLPC   O3121393   2.182   3.873   6.826 -0.3732 -0.5410 -0.1417
  186SLPC   C3121394   2.140   3.837   6.954 -0.0067 -1.1695  0.2057
  186SLPC   O3221395   2.037   3.776   6.980  0.3378  0.1311  0.2632
  186SLPC   C3221396   2.250   3.880   7.050 -0.0730 -0.1349  0.4999
  186SLPC   H2X21397   2.265   3.988   7.031 -1.5195 -0.1759 -0.9603
  186SLPC   H2Y21398   2.344   3.836   7.010  1.1310  3.5666 -0.9932
  186SLPC   C2321399   2.093   3.355   6.941  0.2851  0.2525  0.7666
  186SLPC   H3R21400   2.203   3.341   6.929  0.5850  2.5631  0.7029
  186SLPC   H3S21401   2.048   3.258   6.970  0.4143 -0.5124 -1.4575
  186SLPC   C2421402   2.067   3.448   7.062 -0.0683 -0.3638  0.5317
  186SLPC   H4R21403   1.968   3.498   7.065 -0.2592 -0.7811  1.5073
  186SLPC   H4S21404   2.134   3.536   7.051 -1.2581  0.7490  1.9889
  186SLPC   C2521405   2.117   3.388   7.189  0.3649 -0.3362  0.2069
  186SLPC   H5R21406   2.225   3.373   7.166  0.3337 -1.2591  0.6099
  186SLPC   H5S21407   2.080   3.284   7.202  0.6777 -0.6835 -1.5759
  186SLPC   C2621408   2.094   3.474   7.322 -0.1410  0.6970 -0.3165
  186SLPC   H6R21409   1.983   3.478   7.332 -0.2306 -0.3446 -0.7211
  186SLPC   H6S21410   2.128   3.578   7.309 -2.4772  1.4170 -0.9760
  186SLPC   C2721411   2.166   3.414   7.442 -0.2446 -0.0082  1.0690
  186SLPC   H7R21412   2.272   3.384   7.431 -0.3902 -1.2720  2.8643
  186SLPC   H7S21413   2.104   3.332   7.485  0.0946 -0.3176  0.9682
  186SLPC   C2821414   2.174   3.509   7.566  0.6211  0.0327  0.1652
  186SLPC   H8R21415   2.070   3.537   7.596  0.6436  0.6709 -0.3481
  186SLPC   H8S21416   2.216   3.610   7.549  0.3560 -0.0539 -1.0601
  186SLPC   C2921417   2.241   3.448   7.673  0.2210 -0.0066 -0.3734
  186SLPC   H9R21418   2.348   3.430   7.655  0.6526  2.4411 -0.4185
  186SLPC  C21021419   2.200   3.400   7.796 -0.2432  0.6427 -0.3305
  186SLPC  H10R21420   2.270   3.348   7.863 -2.3556  0.5219  1.8602
  186SLPC  C21121421   2.069   3.408   7.857  0.3142  0.3108  0.3222
  186SLPC  H11R21422   2.031   3.308   7.887  0.5459  0.2985  0.5756
  186SLPC  H11S21423   1.994   3.441   7.782 -1.2388 -1.4297  1.0862
  186SLPC  C21221424   2.050   3.508   7.972 -0.2035  0.4796 -0.1257
  186SLPC  H12R21425   2.019   3.611   7.947 -0.2729  1.4437  3.6646
  186SLPC  C21321426   2.083   3.489   8.106  0.3344  0.5524  0.3845
  186SLPC  H13R21427   2.058   3.561   8.185  1.3614  1.1086  0.2089
  186SLPC  C21421428   2.127   3.358   8.163 -1.2258  0.2243  0.2688
  186SLPC  H14R21429   2.188   3.392   8.250 -0.9786 -1.9387  0.9620
  186SLPC  H14S21430   2.196   3.303   8.096  0.8535 -1.9255  4.0187
  186SLPC  C21521431   2.013   3.261   8.206  1.0131 -0.0573 -0.3834
  186SLPC  H15R21432   1.962   3.221   8.116 -2.5873 -1.5775  2.2197
  186SLPC  H15S21433   1.936   3.318   8.263  0.7703  0.2081 -0.9760
  186SLPC  C21621434   2.059   3.146   8.296 -0.5765 -0.3493 -0.2271
  186SLPC  H16R21435   2.112   3.181   8.387  1.9568 -1.1830 -1.3239
  186SLPC  H16S21436   2.124   3.081   8.233  0.5468 -0.5268  1.0935
  186SLPC  C21721437   1.938   3.066   8.350 -0.5160 -0.5238  0.1520
  186SLPC  H17R21438   1.885   3.032   8.258 -0.5020 -1.3786  0.4612
  186SLPC  H17S21439   1.868   3.132   8.405  0.5092  1.0058 -0.3436
  186SLPC  C21821440   1.979   2.948   8.440  0.9345 -0.1222  0.1536
  186SLPC  H18R21441   2.067   2.895   8.397  0.7134 -1.2768  1.0695
  186SLPC  H18S21442   1.894   2.879   8.462  0.2258  1.4803  2.6325
  186SLPC  H18T21443   2.012   2.994   8.535 -0.5306  2.5308 -0.5697
  186SLPC   C3321444   2.237   3.860   7.198 -0.3985  0.0776  0.0262
  186SLPC   H3X21445   2.260   3.759   7.238 -0.4381  0.9319  2.2943
  186SLPC   H3Y21446   2.131   3.883   7.225 -1.0034 -2.3605 -0.1328
  186SLPC   C3421447   2.340   3.958   7.267  0.0172  0.3164  0.1333
  186SLPC   H4X21448   2.310   4.064   7.255 -1.0701  0.0594  0.5892
  186SLPC   H4Y21449   2.435   3.954   7.209  0.0198 -1.3332  0.2394
  186SLPC   C3521450   2.374   3.926   7.414  0.7623  0.1973 -0.4994
  186SLPC   H5X21451   2.453   3.993   7.454  1.3717 -0.3701 -0.7589
  186SLPC   H5Y21452   2.405   3.820   7.411 -0.3004 -0.1077 -1.0791
  186SLPC   C3621453   2.253   3.947   7.514 -0.0591 -0.9207  0.8182
  186SLPC   H6X21454   2.161   3.900   7.472 -0.5097  1.3837 -0.8865
  186SLPC   H6Y21455   2.226   4.055   7.519  3.8234  0.2374 -1.2197
  186SLPC   C3721456   2.295   3.899   7.656 -0.5111 -0.0036  0.7981
  186SLPC   H7X21457   2.404   3.918   7.671 -0.1151 -1.3803 -0.2763
  186SLPC   H7Y21458   2.283   3.789   7.663  0.6937 -0.2717 -1.1699
  186SLPC   C3821459   2.215   3.954   7.771  0.2795 -0.1447  0.0793
  186SLPC   H8X21460   2.105   3.936   7.763  0.3213 -0.0035 -0.8598
  186SLPC   H8Y21461   2.223   4.063   7.790 -1.1170 -0.0710  0.3493
  186SLPC   C3921462   2.246   3.883   7.901 -1.0292  0.3056  0.5740
  186SLPC   H9X21463   2.346   3.908   7.942  0.9355 -1.7001 -2.7220
  186SLPC   H9Y21464   2.264   3.776   7.876  0.2038  0.3607  1.2156
  186SLPC  C31021465   2.144   3.907   8.016  0.3483  0.6848  0.0274
  186SLPC  H10X21466   2.055   3.844   7.994  0.7298  0.9457 -2.3277
  186SLPC  H10Y21467   2.117   4.014   8.027 -0.9573  0.3315  0.4431
  186SLPC  C31121468   2.199   3.849   8.148 -0.7915 -0.1244  0.7477
  186SLPC  H11X21469   2.301   3.888   8.164 -0.7657  0.1394 -0.0481
  186SLPC  H11Y21470   2.203   3.738   8.154 -2.8480 -0.2174  0.8005
  186SLPC  C31221471   2.123   3.908   8.262  0.1899 -0.2999 -0.4443
  186SLPC  H12X21472   2.018   3.882   8.237  0.9218 -2.1883 -1.6072
  186SLPC  H12Y21473   2.141   4.018   8.257  1.5602 -0.4946 -0.0068
  186SLPC  C31321474   2.153   3.844   8.399  0.4084  0.2520  0.6202
  186SLPC  H13X21475   2.091   3.892   8.479 -0.4112  0.9343 -0.4151
  186SLPC  H13Y21476   2.257   3.854   8.437  0.0505  0.8068  1.4739
  186SLPC  C31421477   2.128   3.696   8.393  0.5170 -0.3334  0.3483
  186SLPC  H14X21478   2.207   3.641   8.338  0.5497  0.0973 -0.0378
  186SLPC  H14Y21479   2.036   3.687   8.333  0.7717 -0.2196 -0.0598
  186SLPC  C31521480   2.114   3.632   8.529 -0.1625 -0.4236 -0.8964
  186SLPC  H15X21481   2.019   3.675   8.566 -1.1056 -1.2776 -2.2408
  186SLPC  H15Y21482   2.204   3.649   8.591  0.0695 -1.3170 -0.9719
  186SLPC  C31621483   2.088   3.482   8.530 -0.7653  0.1277  0.6698
  186SLPC  H16X21484   2.171   3.423   8.485 -1.2947 -1.3391  1.5903
  186SLPC  H16Y21485   1.997   3.473   8.466  0.4875  2.4443 -1.5263
  186SLPC  C31721486   2.046   3.433   8.675 -0.7223 -0.4537  0.8717
  186SLPC  H17X21487   1.966   3.493   8.723 -2.1192  0.2576 -2.1912
  186SLPC  H17Y21488   2.138   3.448   8.735 -0.8168 -1.6569  1.3284
  186SLPC  C31821489   2.002   3.291   8.686 -1.0299 -0.0257  0.3370
  186SLPC  H18X21490   1.894   3.274   8.663 -1.2010 -0.6446  1.5776
  186SLPC  H18Y21491   2.030   3.243   8.782  1.0166  0.4512 -0.0005
  186SLPC  H18Z21492   2.064   3.249   8.605  0.7310  4.5081 -0.7873
  187SLPC     N21493   2.617   0.841   6.381  0.4462  0.3007  0.1876
  187SLPC   C1321494   2.484   0.880   6.437 -0.6860 -0.1347  0.4384
  187SLPC  H13A21495   2.496   0.908   6.541  1.7209 -0.4833  0.2850
  187SLPC  H13B21496   2.433   0.953   6.376 -1.1605 -0.1289  0.8409
  187SLPC  H13C21497   2.421   0.793   6.451 -0.6661 -0.2862 -0.3735
  187SLPC   C1421498   2.713   0.951   6.400 -0.5729 -0.8694  0.2158
  187SLPC  H14A21499   2.800   0.928   6.340 -0.2097 -2.6715  1.3929
  187SLPC  H14B21500   2.671   1.047   6.374 -0.7768 -0.2251  2.7668
  187SLPC  H14C21501   2.758   0.937   6.497  0.0547 -1.5007 -0.1576
  187SLPC   C1521502   2.586   0.825   6.233 -0.9543  0.2924  0.4065
  187SLPC  H15A21503   2.675   0.803   6.175 -0.9249 -0.7924  0.8398
  187SLPC  H15B21504   2.526   0.737   6.216  0.3174 -0.6092  0.4755
  187SLPC  H15C21505   2.543   0.908   6.179 -0.1284  2.0375  2.3536
  187SLPC   C1221506   2.660   0.711   6.443  0.6016 -0.7134  0.2585
  187SLPC  H12A21507   2.717   0.653   6.372  0.3468  0.5666 -1.0318
  187SLPC  H12B21508   2.577   0.641   6.439  1.0706 -1.2501 -0.1072
  187SLPC   C1121509   2.710   0.708   6.584  0.1595 -0.2089  0.1105
  187SLPC  H11A21510   2.716   0.602   6.615 -0.1801 -0.3918 -0.4534
  187SLPC  H11B21511   2.642   0.763   6.652 -1.6292 -0.7315 -1.2043
  187SLPC     P21512   2.962   0.677   6.526 -0.5154 -0.6163 -0.4166
  187SLPC   O1321513   2.918   0.565   6.438  0.4013  0.1436  0.5535
  187SLPC   O1421514   3.047   0.778   6.457 -0.3692  0.2400  0.1875
  187SLPC   O1221515   2.839   0.756   6.590  0.0571 -0.1647  0.1426
  187SLPC   O1121516   3.025   0.608   6.648  0.1557  0.3091  0.6528
  187SLPC    C121517   2.946   0.549   6.747 -0.1366 -0.0460  0.0230
  187SLPC    HA21518   2.854   0.601   6.780 -0.5594  0.8278 -2.4680
  187SLPC    HB21519   2.912   0.450   6.712  0.8349 -1.1384  2.0436
  187SLPC    C221520   3.038   0.527   6.873  0.4108 -0.1401 -0.6115
  187SLPC    HS21521   2.972   0.476   6.946 -1.7197  0.0651 -2.3515
  187SLPC   O2121522   3.070   0.650   6.933 -0.3807 -0.2834 -0.3030
  187SLPC   C2121523   2.977   0.731   6.990 -0.9447  0.3139 -0.0707
  187SLPC   O2221524   2.861   0.699   7.001  0.1217 -0.3272 -0.7121
  187SLPC   C2221525   3.049   0.858   7.036 -0.1024 -0.4031 -0.1890
  187SLPC   H2R21526   3.146   0.826   7.078 -0.3237 -2.8104 -1.4787
  187SLPC   H2S21527   3.062   0.918   6.943 -0.3627  1.5848  1.0158
  187SLPC    C321528   3.164   0.441   6.859 -0.0088 -0.1898 -0.0038
  187SLPC    HX21529   3.227   0.483   6.778 -0.7396  1.0347  0.0536
  187SLPC    HY21530   3.141   0.337   6.827  0.3197 -0.6707  1.3037
  187SLPC   O3121531   3.249   0.435   6.979  0.0741 -0.3121 -0.3599
  187SLPC   C3121532   3.217   0.338   7.067  0.4633 -0.3756 -0.2367
  187SLPC   O3221533   3.142   0.244   7.046 -0.3391  0.0895 -0.4764
  187SLPC   C3221534   3.324   0.337   7.183  0.1810 -0.1915  0.8839
  187SLPC   H2X21535   3.385   0.427   7.163 -1.0798  0.1918 -1.4159
  187SLPC   H2Y21536   3.380   0.245   7.158  0.6181 -0.2250  1.9528
  187SLPC   C2321537   2.963   0.930   7.137 -0.1538 -0.1351  0.7787
  187SLPC   H3R21538   2.864   0.954   7.092 -0.2475 -0.4444  0.8156
  187SLPC   H3S21539   3.004   1.030   7.158  0.4357  0.3136 -2.1886
  187SLPC   C2421540   2.914   0.861   7.261 -0.7766 -0.4905  0.1154
  187SLPC   H4R21541   2.825   0.802   7.233 -0.2264 -0.3093 -2.1207
  187SLPC   H4S21542   2.876   0.941   7.329  0.4666  0.4838 -0.2978
  187SLPC   C2521543   3.006   0.768   7.332 -0.0461  0.6811 -0.6462
  187SLPC   H5R21544   3.101   0.825   7.347  0.1258  0.3006 -0.2592
  187SLPC   H5S21545   3.037   0.687   7.263  0.4338  0.9553 -0.7569
  187SLPC   C2621546   2.960   0.717   7.471  0.2644 -0.3121  0.4309
  187SLPC   H6R21547   3.025   0.629   7.488 -0.7192 -0.9476  1.0075
  187SLPC   H6S21548   2.855   0.681   7.459  0.5181 -1.2158  0.9037
  187SLPC   C2721549   2.986   0.823   7.581  0.2558 -0.9721  0.2568
  187SLPC   H7R21550   2.926   0.915   7.561  1.0010  0.0493  2.4766
  187SLPC   H7S21551   3.093   0.853   7.584  0.0713 -0.2731  0.0397
  187SLPC   C2821552   2.942   0.765   7.717  0.3323  0.1640 -0.2380
  187SLPC   H8R21553   2.985   0.667   7.746 -1.4495 -0.8067 -0.8001
  187SLPC   H8S21554   2.832   0.748   7.711  0.2029  1.0049 -0.3684
  187SLPC   C2921555   2.968   0.870   7.823  0.6700 -0.0214  0.0383
  187SLPC   H9R21556   2.974   0.974   7.787  0.5716  0.6128  1.8105
  187SLPC  C21021557   3.002   0.843   7.945  0.1394 -0.0504 -0.4134
  187SLPC  H10R21558   3.028   0.926   8.012 -0.0834 -0.1181 -0.2399
  187SLPC  C21121559   3.006   0.711   8.006  0.9691  0.1018  0.5205
  187SLPC  H11R21560   3.092   0.649   7.970 -0.9069 -1.3809 -1.5201
  187SLPC  H11S21561   2.932   0.654   7.946  0.5368 -0.6408  1.7405
  187SLPC  C21221562   2.982   0.711   8.156 -0.3099  0.9248  0.6169
  187SLPC  H12R21563   2.878   0.732   8.184 -0.9642  0.0625 -1.0702
  187SLPC  C21321564   3.074   0.700   8.252  0.1374 -0.0137  0.1696
  187SLPC  H13R21565   3.041   0.709   8.357  0.6306 -1.2319  0.4307
  187SLPC  C21421566   3.226   0.691   8.232  0.0867 -0.5403  0.2170
  187SLPC  H14R21567   3.244   0.610   8.157  2.4967  0.7549 -0.6609
  187SLPC  H14S21568   3.278   0.659   8.325  0.1260  0.9904  0.7279
  187SLPC  C21521569   3.287   0.820   8.187  0.2080 -0.3575 -0.0897
  187SLPC  H15R21570   3.253   0.868   8.093  1.2671  0.4857 -0.0589
  187SLPC  H15S21571   3.394   0.793   8.172  0.6457  0.6036  1.1403
  187SLPC  C21621572   3.282   0.925   8.303  0.8681 -0.0566  0.0562
  187SLPC  H16R21573   3.323   0.872   8.392 -0.9995  0.6941  1.4028
  187SLPC  H16S21574   3.179   0.962   8.319  0.9110  0.5137 -0.9440
  187SLPC  C21721575   3.354   1.061   8.273  0.4271  0.3480  0.2911
  187SLPC  H17R21576   3.459   1.035   8.246 -0.1409 -1.1206 -0.5597
  187SLPC  H17S21577   3.358   1.118   8.368  1.7313 -0.3807  0.6772
  187SLPC  C21821578   3.276   1.138   8.169 -1.0523 -0.7586 -1.1419
  187SLPC  H18R21579   3.278   1.078   8.075 -0.9471  1.2692 -2.4483
  187SLPC  H18S21580   3.335   1.229   8.149 -0.0918 -1.1074  0.0570
  187SLPC  H18T21581   3.176   1.159   8.215 -0.1560 -0.6830  0.8182
  187SLPC   C3321582   3.260   0.321   7.318 -0.7196 -0.6278  0.6006
  187SLPC   H3X21583   3.189   0.235   7.315  0.0913 -1.2670 -0.1220
  187SLPC   H3Y21584   3.193   0.406   7.342  0.0103  0.6916 -1.8989
  187SLPC   C3421585   3.363   0.313   7.431 -0.3841  0.3775  0.1012
  187SLPC   H4X21586   3.427   0.404   7.439 -1.1566  0.9764 -0.4523
  187SLPC   H4Y21587   3.439   0.235   7.408 -0.3174  0.3647  0.3635
  187SLPC   C3521588   3.304   0.277   7.567 -0.1640  0.5280  0.3747
  187SLPC   H5X21589   3.237   0.189   7.564  0.8804 -0.2949  0.8442
  187SLPC   H5Y21590   3.259   0.369   7.610  1.3054  1.7147 -0.5666
  187SLPC   C3621591   3.413   0.249   7.670  0.2643  0.2532 -0.4617
  187SLPC   H6X21592   3.495   0.320   7.645 -1.0322  0.7659 -3.5363
  187SLPC   H6Y21593   3.451   0.148   7.643 -1.6140 -0.2790 -1.1760
  187SLPC   C3721594   3.363   0.272   7.814 -0.2500 -0.5011  0.5120
  187SLPC   H7X21595   3.325   0.376   7.822  1.0443 -0.0341  0.6294
  187SLPC   H7Y21596   3.286   0.196   7.839 -0.1157 -1.2790 -1.3966
  187SLPC   C3821597   3.464   0.252   7.927  0.4600  0.1288 -0.1953
  187SLPC   H8X21598   3.555   0.313   7.912  0.1173  0.4420 -1.0165
  187SLPC   H8Y21599   3.496   0.146   7.926 -1.6510 -0.5563  0.5106
  187SLPC   C3921600   3.397   0.268   8.068 -0.4342 -0.2382  0.0226
  187SLPC   H9X21601   3.299   0.217   8.076 -0.9266  0.5689 -0.8017
  187SLPC   H9Y21602   3.376   0.376   8.076  0.0744 -0.1842  0.6877
  187SLPC  C31021603   3.477   0.212   8.199 -0.3557 -0.1990 -0.2194
  187SLPC  H10X21604   3.567   0.277   8.212 -0.8041  0.2719  0.5388
  187SLPC  H10Y21605   3.513   0.108   8.181 -1.6654 -0.9846  1.6148
  187SLPC  C31121606   3.393   0.219   8.325 -0.7097 -0.2238  0.1106
  187SLPC  H11X21607   3.301   0.159   8.314 -0.5821 -0.5831  0.9531
  187SLPC  H11Y21608   3.347   0.320   8.323  1.1177  0.6089 -0.7203
  187SLPC  C31221609   3.474   0.190   8.455 -0.6692  0.1226 -0.0745
  187SLPC  H12X21610   3.502   0.083   8.448  0.4247  0.4638 -1.0620
  187SLPC  H12Y21611   3.407   0.205   8.542  0.8085  0.1182  1.0625
  187SLPC  C31321612   3.594   0.271   8.489 -0.4490 -0.4381  0.3608
  187SLPC  H13X21613   3.552   0.367   8.528 -1.4381 -0.1675 -1.3499
  187SLPC  H13Y21614   3.663   0.287   8.404 -0.4004 -2.5735 -0.0361
  187SLPC  C31421615   3.666   0.212   8.611  0.2171  0.2424  0.4463
  187SLPC  H14X21616   3.693   0.110   8.575 -2.1550  0.6028 -2.5703
  187SLPC  H14Y21617   3.598   0.213   8.698  0.4945 -0.4098  0.6714
  187SLPC  C31521618   3.793   0.286   8.663  0.6920 -0.1946  0.1302
  187SLPC  H15X21619   3.768   0.393   8.684 -2.5909 -0.3269 -2.7933
  187SLPC  H15Y21620   3.860   0.278   8.575  1.0299 -1.7662  0.5221
  187SLPC  C31621621   3.851   0.245   8.794 -0.2084  0.3177 -0.2980
  187SLPC  H16X21622   3.863   0.135   8.803  2.0199  0.3396 -2.4468
  187SLPC  H16Y21623   3.800   0.284   8.884  3.0349  1.4683  1.1272
  187SLPC  C31721624   3.995   0.312   8.805  0.3663  0.1393  0.2462
  187SLPC  H17X21625   3.986   0.418   8.772 -2.6414 -0.3420 -0.6575
  187SLPC  H17Y21626   4.066   0.264   8.735  1.9999 -0.1163  2.0445
  187SLPC  C31821627   4.061   0.296   8.942 -0.4502  0.9802 -0.0437
  187SLPC  H18X21628   4.065   0.191   8.977 -0.1142  1.2462  0.7350
  187SLPC  H18Y21629   3.996   0.351   9.014  0.2635 -0.3308  1.6246
  187SLPC  H18Z21630   4.162   0.342   8.949 -0.1637  0.2402  0.7126
  188SLPC     N21631   3.787   1.809   6.120 -0.6862  0.1501 -0.0146
  188SLPC   C1321632   3.688   1.816   6.008  0.4452 -0.4265  0.7955
  188SLPC  H13A21633   3.733   1.851   5.916  0.0987 -0.7975  0.4849
  188SLPC  H13B21634   3.641   1.719   5.997 -0.3509 -0.2156  2.1925
  188SLPC  H13C21635   3.613   1.889   6.032  0.9335 -0.1717  1.5928
  188SLPC   C1421636   3.905   1.731   6.080 -0.3743 -0.1171  0.0197
  188SLPC  H14A21637   3.922   1.766   5.979 -0.9548  2.4019  0.7634
  188SLPC  H14B21638   3.991   1.748   6.143  0.4653  0.8582 -1.3721
  188SLPC  H14C21639   3.885   1.624   6.084 -0.8736 -0.0740 -1.2464
  188SLPC   C1521640   3.719   1.746   6.235  0.8094  0.0070 -0.3698
  188SLPC  H15A21641   3.704   1.641   6.214 -2.3414 -0.2067  2.5342
  188SLPC  H15B21642   3.783   1.758   6.321  0.5005 -0.2898 -0.0959
  188SLPC  H15C21643   3.622   1.791   6.251  0.7223  0.1483 -1.2888
  188SLPC   C1221644   3.825   1.948   6.160  1.2044  0.0307 -0.3983
  188SLPC  H12A21645   3.744   2.015   6.185  2.1222  1.0610 -0.1120
  188SLPC  H12B21646   3.858   2.000   6.070 -0.5330 -0.2550 -1.2121
  188SLPC   C1121647   3.921   1.959   6.285  0.7704 -0.2441 -0.2182
  188SLPC  H11A21648   3.945   2.067   6.292  2.0290 -0.5328 -0.0116
  188SLPC  H11B21649   4.012   1.900   6.262  0.6265 -0.3104 -0.6187
  188SLPC     P21650   3.773   1.995   6.489  0.0693  0.2108 -0.8635
  188SLPC   O1321651   3.676   2.065   6.401 -0.7190  0.7957  0.1230
  188SLPC   O1421652   3.709   1.910   6.594 -0.0346  0.2221  0.4989
  188SLPC   O1221653   3.866   1.899   6.400  0.2348  0.3407 -0.1619
  188SLPC   O1121654   3.885   2.091   6.563 -0.1152 -0.1851 -0.3638
  188SLPC    C121655   3.933   2.223   6.533  0.1357 -0.8052 -0.3898
  188SLPC    HA21656   4.017   2.213   6.461  0.9320  0.3341  0.3732
  188SLPC    HB21657   3.857   2.288   6.484  0.8720 -0.3261 -0.9046
  188SLPC    C221658   3.991   2.307   6.653 -0.1756  0.6561  0.4469
  188SLPC    HS21659   4.022   2.410   6.624  1.6276  0.5860  1.9878
  188SLPC   O2121660   4.109   2.245   6.722  0.2161  0.2415  0.0124
  188SLPC   C2121661   4.225   2.252   6.659  0.6290 -0.6684 -0.2158
  188SLPC   O2221662   4.234   2.299   6.546  0.5097 -0.8247  0.1964
  188SLPC   C2221663   4.338   2.200   6.758 -0.2591  0.0070 -0.1600
  188SLPC   H2R21664   4.318   2.092   6.776 -0.1039  0.4089  2.5483
  188SLPC   H2S21665   4.430   2.213   6.697 -0.1627 -0.7572 -0.1880
  188SLPC    C321666   3.878   2.329   6.760  0.2254  0.1313 -0.0628
  188SLPC    HX21667   3.858   2.228   6.802 -0.8513 -0.2674 -1.4871
  188SLPC    HY21668   3.788   2.369   6.708  0.2353  2.8574  1.9478
  188SLPC   O3121669   3.915   2.413   6.872 -0.2677 -0.0830 -0.5341
  188SLPC   C3121670   3.914   2.547   6.854 -0.2859 -0.6100  0.4029
  188SLPC   O3221671   3.863   2.603   6.757 -0.1826  0.2023 -0.0016
  188SLPC   C3221672   3.991   2.623   6.957  0.7921 -0.4017  0.1469
  188SLPC   H2X21673   3.980   2.732   6.945 -1.4533 -0.6146  0.1145
  188SLPC   H2Y21674   4.099   2.600   6.947  1.1959  1.6386 -0.2842
  188SLPC   C2321675   4.343   2.279   6.893 -0.5324 -0.2980 -0.1416
  188SLPC   H3R21676   4.319   2.385   6.873 -1.1694 -0.4281 -0.0836
  188SLPC   H3S21677   4.444   2.257   6.933 -0.1849  1.7815  0.1348
  188SLPC   C2421678   4.238   2.229   6.993 -0.6404  0.7372 -0.3831
  188SLPC   H4R21679   4.228   2.118   6.984  0.4027  0.7122 -1.3725
  188SLPC   H4S21680   4.143   2.286   6.985 -0.5176  0.8755 -0.8848
  188SLPC   C2521681   4.288   2.262   7.138 -0.0822  0.5965 -0.2510
  188SLPC   H5R21682   4.319   2.368   7.128 -0.5850  0.9011  1.2887
  188SLPC   H5S21683   4.386   2.212   7.154 -0.1868 -0.2492 -2.1375
  188SLPC   C2621684   4.188   2.251   7.254 -0.1221  0.2267 -0.0727
  188SLPC   H6R21685   4.135   2.154   7.242  0.3379 -0.1144  0.5751
  188SLPC   H6S21686   4.106   2.326   7.250  0.6212  1.0211 -0.5369
  188SLPC   C2721687   4.257   2.273   7.391  0.0205 -0.2132  0.5093
  188SLPC   H7R21688   4.337   2.350   7.381  0.1751 -0.4141  0.1804
  188SLPC   H7S21689   4.305   2.177   7.420  2.9512  0.9432 -0.2919
  188SLPC   C2821690   4.166   2.324   7.507  0.3520  0.8004  0.5879
  188SLPC   H8R21691   4.117   2.422   7.489  0.3187  1.0203  1.8373
  188SLPC   H8S21692   4.230   2.334   7.597 -1.9496  2.4076  2.1215
  188SLPC   C2921693   4.071   2.208   7.526  0.0629 -0.0921  0.0869
  188SLPC   H9R21694   4.010   2.183   7.439  1.4666 -0.6218 -0.7522
  188SLPC  C21021695   4.054   2.141   7.640  0.1109  0.0212  0.0822
  188SLPC  H10R21696   3.963   2.079   7.636  0.1907 -0.1276  0.5304
  188SLPC  C21121697   4.119   2.165   7.772  0.4577 -0.8099  0.1052
  188SLPC  H11R21698   4.135   2.275   7.773  1.0312 -0.8695 -1.2658
  188SLPC  H11S21699   4.223   2.128   7.764  0.7328 -0.4491  1.7944
  188SLPC  C21221700   4.045   2.110   7.891 -0.0813 -0.1522  0.3441
  188SLPC  H12R21701   3.976   2.027   7.873 -0.5197  0.0540  1.0549
  188SLPC  C21321702   4.047   2.163   8.012 -0.7690 -0.1283 -0.2208
  188SLPC  H13R21703   3.997   2.117   8.099  2.1868  1.0068  2.1878
  188SLPC  C21421704   4.141   2.272   8.071  0.2673  0.2428  0.0938
  188SLPC  H14R21705   4.082   2.363   8.097 -1.2649 -0.8727  0.6132
  188SLPC  H14S21706   4.214   2.312   7.997  0.9819 -0.3398  0.4787
  188SLPC  C21521707   4.219   2.230   8.190  0.1369 -0.7403  0.4237
  188SLPC  H15R21708   4.294   2.311   8.204 -0.9520  0.6904 -1.7131
  188SLPC  H15S21709   4.271   2.132   8.177 -0.6885 -1.1195 -0.0752
  188SLPC  C21621710   4.132   2.213   8.316  0.1273 -0.1686  0.8085
  188SLPC  H16R21711   4.078   2.120   8.289  2.9520 -1.9460  1.1167
  188SLPC  H16S21712   4.067   2.304   8.318 -1.7574 -1.3795 -1.9406
  188SLPC  C21721713   4.212   2.212   8.450 -0.0966  0.2297  0.3557
  188SLPC  H17R21714   4.137   2.196   8.530  0.0022  0.4516  0.4934
  188SLPC  H17S21715   4.259   2.312   8.466 -1.2446  1.0201 -1.1214
  188SLPC  C21821716   4.328   2.109   8.470 -0.1663 -0.5431  0.2802
  188SLPC  H18R21717   4.309   2.017   8.410  0.2494 -0.2129 -0.3668
  188SLPC  H18S21718   4.337   2.097   8.580 -1.4464  0.0291  0.4548
  188SLPC  H18T21719   4.424   2.154   8.437 -0.4323  1.9321  2.7166
  188SLPC   C3321720   3.927   2.581   7.096 -0.0368  0.0360 -0.1378
  188SLPC   H3X21721   3.958   2.476   7.110 -1.2178 -0.1821  0.8653
  188SLPC   H3Y21722   3.816   2.589   7.105 -0.2641 -0.9265 -1.9511
  188SLPC   C3421723   3.981   2.659   7.213  0.0340 -0.0072 -0.3143
  188SLPC   H4X21724   3.974   2.767   7.191 -0.3140  0.1043  0.3636
  188SLPC   H4Y21725   4.092   2.658   7.207 -0.0031 -1.6672 -1.0890
  188SLPC   C3521726   3.918   2.613   7.347  0.2445  0.5464 -0.2864
  188SLPC   H5X21727   3.935   2.505   7.365  2.8519  1.1624  1.2249
  188SLPC   H5Y21728   3.808   2.626   7.340 -0.1429 -1.4769  1.4388
  188SLPC   C3621729   3.982   2.683   7.460 -0.1729  0.5012  0.6036
  188SLPC   H6X21730   3.994   2.791   7.434  1.4880  0.1755  0.0131
  188SLPC   H6Y21731   4.082   2.640   7.482 -0.4149 -0.0557  0.6005
  188SLPC   C3721732   3.900   2.677   7.592  0.2274 -0.0403 -0.4101
  188SLPC   H7X21733   3.802   2.718   7.561  0.7790  2.7987  1.3691
  188SLPC   H7Y21734   3.954   2.738   7.668 -0.4137 -1.0671  0.8924
  188SLPC   C3821735   3.894   2.539   7.660 -0.0778  0.1610 -0.0323
  188SLPC   H8X21736   4.001   2.526   7.686 -0.5854  0.6318  2.4491
  188SLPC   H8Y21737   3.867   2.467   7.580  1.2856 -1.6341  1.0927
  188SLPC   C3921738   3.815   2.534   7.792  0.1035  0.0670  0.2467
  188SLPC   H9X21739   3.713   2.577   7.778  0.3831  0.4039 -0.7943
  188SLPC   H9Y21740   3.865   2.598   7.868  0.4830 -0.4549  0.4383
  188SLPC  C31021741   3.809   2.390   7.850  0.0962  0.0348  0.5670
  188SLPC  H10X21742   3.910   2.344   7.855 -0.3281 -0.9699  0.1709
  188SLPC  H10Y21743   3.747   2.330   7.780 -0.9658 -0.2300  1.7070
  188SLPC  C31121744   3.739   2.372   7.987  0.0767  0.2213 -0.1756
  188SLPC  H11X21745   3.722   2.263   8.005 -2.4285 -0.0923 -3.8693
  188SLPC  H11Y21746   3.633   2.404   7.978 -0.8215 -2.6333 -0.2166
  188SLPC  C31221747   3.800   2.439   8.111 -0.0462  0.1331 -0.0483
  188SLPC  H12X21748   3.762   2.543   8.126  3.1667  1.4516 -0.7469
  188SLPC  H12Y21749   3.909   2.447   8.095 -0.2814  2.7154 -0.5155
  188SLPC  C31321750   3.769   2.357   8.241  0.3401 -0.2531 -0.4927
  188SLPC  H13X21751   3.821   2.403   8.328 -1.8991  0.3455  0.5700
  188SLPC  H13Y21752   3.822   2.261   8.252  1.5441  0.3913 -0.5505
  188SLPC  C31421753   3.618   2.337   8.268  0.0233  0.2805  0.2389
  188SLPC  H14X21754   3.582   2.269   8.188  1.4778  0.9215 -0.9880
  188SLPC  H14Y21755   3.559   2.430   8.254  0.4502  0.2831 -1.7997
  188SLPC  C31521756   3.593   2.291   8.411 -0.5616 -0.1956 -0.2434
  188SLPC  H15X21757   3.675   2.218   8.428  0.0480  0.2186 -1.3224
  188SLPC  H15Y21758   3.494   2.240   8.415 -1.7779  2.2186  2.5666
  188SLPC  C31621759   3.599   2.396   8.522  0.1822 -0.3023  0.3671
  188SLPC  H16X21760   3.517   2.472   8.515  0.5083  0.1523  1.3049
  188SLPC  H16Y21761   3.694   2.451   8.504  0.4789 -1.0507 -0.3593
  188SLPC  C31721762   3.612   2.337   8.666  0.2161  0.0846 -0.0432
  188SLPC  H17X21763   3.700   2.270   8.655 -0.5963 -0.6569 -2.4709
  188SLPC  H17Y21764   3.516   2.286   8.691 -0.9693  2.6526  0.8095
  188SLPC  C31821765   3.630   2.450   8.766 -0.2853 -0.1537  0.5411
  188SLPC  H18X21766   3.720   2.504   8.729  0.3416 -1.8524 -0.4909
  188SLPC  H18Y21767   3.654   2.402   8.863 -1.0325  1.5686  1.5871
  188SLPC  H18Z21768   3.552   2.529   8.760 -0.7317 -0.5798  0.6710
  189SLPC     N21769   6.607   4.620   6.269 -0.7385 -0.7033  0.2551
  189SLPC   C1321770   6.741   4.674   6.215 -0.3321  0.1108  0.2130
  189SLPC  H13A21771   6.735   4.720   6.117 -1.2510  0.6669  0.5256
  189SLPC  H13B21772   6.771   4.754   6.280 -0.7068  0.3846  0.0500
  189SLPC  H13C21773   6.814   4.596   6.197 -0.9286 -0.3449 -0.2466
  189SLPC   C1421774   6.537   4.539   6.163  0.7572  1.0318  0.1165
  189SLPC  H14A21775   6.600   4.456   6.137  1.2561  0.3116  3.4059
  189SLPC  H14B21776   6.434   4.512   6.184  1.1439 -1.2222 -0.7701
  189SLPC  H14C21777   6.522   4.598   6.074 -1.0158 -0.0478 -0.3190
  189SLPC   C1521778   6.526   4.738   6.292  0.3517 -0.3514  0.2095
  189SLPC  H15A21779   6.422   4.713   6.306 -0.1708  2.0610  0.8223
  189SLPC  H15B21780   6.562   4.791   6.380 -1.0020  0.2483  0.4123
  189SLPC  H15C21781   6.533   4.800   6.204  1.9646 -0.7161  0.0631
  189SLPC   C1221782   6.639   4.546   6.399  0.0218 -0.5148 -0.0952
  189SLPC  H12A21783   6.711   4.603   6.455 -1.2980 -1.0063  2.1496
  189SLPC  H12B21784   6.694   4.456   6.379 -2.1548 -1.9571  0.2302
  189SLPC   C1121785   6.519   4.508   6.494  0.3570  0.2088  0.7121
  189SLPC  H11A21786   6.465   4.600   6.526  0.5587  0.0770  1.4383
  189SLPC  H11B21787   6.575   4.458   6.575 -1.1040 -1.9628  0.4163
  189SLPC     P21788   6.467   4.276   6.389  0.1496 -0.1683 -0.3298
  189SLPC   O1321789   6.381   4.220   6.284  0.0295  0.2986 -0.2781
  189SLPC   O1421790   6.612   4.254   6.364  0.2089  0.0199 -0.0166
  189SLPC   O1221791   6.427   4.430   6.412  0.0192 -0.5385 -0.6043
  189SLPC   O1121792   6.434   4.212   6.521 -0.7794  0.2621  0.0569
  189SLPC    C121793   6.293   4.223   6.568 -0.3911 -0.4189  0.0705
  189SLPC    HA21794   6.225   4.252   6.485 -0.3781  0.4157  0.3402
  189SLPC    HB21795   6.262   4.124   6.605  0.6776 -1.2941 -1.3031
  189SLPC    C221796   6.277   4.329   6.688 -0.3324  0.9954  0.3979
  189SLPC    HS21797   6.300   4.430   6.650 -2.3750  1.9284  1.5499
  189SLPC   O2121798   6.365   4.292   6.796  0.1321  0.0995  0.5787
  189SLPC   C2121799   6.390   4.388   6.884 -0.2710  0.8866  0.5654
  189SLPC   O2221800   6.334   4.492   6.885 -0.2238  0.0847  0.1297
  189SLPC   C2221801   6.509   4.347   6.981 -0.0689  0.0015  0.4843
  189SLPC   H2R21802   6.528   4.240   6.959 -3.0891 -0.0609 -2.1001
  189SLPC   H2S21803   6.597   4.410   6.954 -0.5921  0.2267 -0.6949
  189SLPC    C321804   6.124   4.325   6.734  0.4533 -0.5653 -0.4722
  189SLPC    HX21805   6.054   4.353   6.652  1.2980  2.4306 -0.2084
  189SLPC    HY21806   6.106   4.412   6.799  0.5274  0.6014 -1.9831
  189SLPC   O3121807   6.084   4.204   6.792  0.6372  0.9248  0.5857
  189SLPC   C3121808   6.005   4.201   6.901  0.0531 -0.1014 -0.0543
  189SLPC   O3221809   5.958   4.301   6.951 -0.2061  0.0529  0.4861
  189SLPC   C3221810   6.017   4.063   6.976  0.2273  0.6133 -0.1877
  189SLPC   H2X21811   6.111   4.069   7.034 -0.4205 -0.9191  1.0557
  189SLPC   H2Y21812   6.034   3.982   6.901 -1.7554 -0.2939  0.2968
  189SLPC   C2321813   6.470   4.362   7.134  0.3815 -0.2186  0.3768
  189SLPC   H3R21814   6.377   4.302   7.143 -0.4673  0.8018 -1.4007
  189SLPC   H3S21815   6.433   4.466   7.148  0.1553 -0.1146 -0.9755
  189SLPC   C2421816   6.573   4.296   7.225  0.2490  0.0664 -0.5043
  189SLPC   H4R21817   6.633   4.378   7.270 -0.6752  1.8952 -2.4773
  189SLPC   H4S21818   6.646   4.236   7.167 -1.0347 -2.8315  0.7870
  189SLPC   C2521819   6.505   4.203   7.331 -0.5178  0.3623  0.0193
  189SLPC   H5R21820   6.583   4.152   7.391  0.6394 -0.2120 -1.9333
  189SLPC   H5S21821   6.456   4.123   7.272  2.5715 -0.3126 -1.7733
  189SLPC   C2621822   6.412   4.274   7.430  0.4975 -0.1055  0.2777
  189SLPC   H6R21823   6.333   4.331   7.376  1.0461  0.8380  0.4464
  189SLPC   H6S21824   6.471   4.339   7.499  0.0242  1.7900 -1.0335
  189SLPC   C2721825   6.342   4.171   7.513  0.1802 -0.5198  0.1387
  189SLPC   H7R21826   6.292   4.094   7.451  0.3145 -1.1230  0.7777
  189SLPC   H7S21827   6.255   4.216   7.567 -1.1356 -2.2749 -0.4786
  189SLPC   C2821828   6.427   4.099   7.621 -0.5112  0.1591  0.3009
  189SLPC   H8R21829   6.466   4.171   7.696 -0.2283 -0.2560  0.5545
  189SLPC   H8S21830   6.506   4.053   7.557 -2.2527 -1.3156 -0.8336
  189SLPC   C2921831   6.362   3.983   7.692 -0.0430 -0.2355  0.1140
  189SLPC   H9R21832   6.325   3.908   7.620  1.0940 -1.2088  0.5337
  189SLPC  C21021833   6.346   3.971   7.820 -0.9550 -0.0410  0.0407
  189SLPC  H10R21834   6.282   3.893   7.863  1.4864 -2.3782 -0.4081
  189SLPC  C21121835   6.395   4.074   7.919 -0.2016  0.3849  0.3011
  189SLPC  H11R21836   6.324   4.155   7.946  0.1840  1.3597 -1.5300
  189SLPC  H11S21837   6.486   4.127   7.886  0.8925  0.1142  2.7655
  189SLPC  C21221838   6.431   4.011   8.045  0.1010  0.8046 -0.2268
  189SLPC  H12R21839   6.485   3.916   8.031 -1.1073 -0.0503  0.7960
  189SLPC  C21321840   6.435   4.048   8.175 -0.7266  0.6226  0.6042
  189SLPC  H13R21841   6.467   3.974   8.250  0.2147 -0.1166 -0.5243
  189SLPC  C21421842   6.395   4.183   8.240  0.4931 -0.9128 -0.0036
  189SLPC  H14R21843   6.368   4.254   8.160  0.8330  1.0802  1.6183
  189SLPC  H14S21844   6.485   4.222   8.292  1.7021 -1.0457 -1.9654
  189SLPC  C21521845   6.266   4.182   8.336 -0.0233  0.5129  0.3716
  189SLPC  H15R21846   6.241   4.285   8.369 -2.1836  0.4421 -0.9930
  189SLPC  H15S21847   6.301   4.122   8.423  1.8128 -1.1196 -1.4104
  189SLPC  C21621848   6.143   4.132   8.265 -0.1653 -0.6457 -0.0788
  189SLPC  H16R21849   6.165   4.027   8.236  0.5996 -0.1013 -1.4880
  189SLPC  H16S21850   6.129   4.185   8.168 -2.5252  1.6575  1.4364
  189SLPC  C21721851   6.011   4.136   8.349 -0.5377 -0.4243  0.4537
  189SLPC  H17R21852   6.035   4.088   8.447  1.3012  2.9379  1.7426
  189SLPC  H17S21853   5.934   4.078   8.294 -0.0610 -1.2306  0.6214
  189SLPC  C21821854   5.965   4.276   8.382 -0.2455  0.8810 -0.3737
  189SLPC  H18R21855   6.039   4.328   8.447  0.9713 -0.0353 -0.9909
  189SLPC  H18S21856   5.875   4.286   8.446  1.0107  2.1005  1.2656
  189SLPC  H18T21857   5.961   4.343   8.293  1.5223 -3.9597 -4.3505
  189SLPC   C3321858   5.894   4.014   7.064 -0.1467 -0.1259  0.4139
  189SLPC   H3X21859   5.901   3.903   7.056 -4.2419 -0.4877  0.8965
  189SLPC   H3Y21860   5.797   4.029   7.013 -1.2750  0.9548  2.8479
  189SLPC   C3421861   5.895   4.073   7.197  0.1666 -0.1762  0.0103
  189SLPC   H4X21862   5.876   4.182   7.188 -0.6112 -0.4390 -1.6640
  189SLPC   H4Y21863   5.993   4.059   7.247 -1.1525 -0.1014  2.7203
  189SLPC   C3521864   5.810   3.998   7.296 -0.2718 -0.2802 -0.6556
  189SLPC   H5X21865   5.841   3.894   7.320 -2.3814 -0.3780  1.8095
  189SLPC   H5Y21866   5.711   3.985   7.247 -0.3393  1.1930 -0.9341
  189SLPC   C3621867   5.790   4.082   7.427  0.1615  0.2108  0.4590
  189SLPC   H6X21868   5.707   4.041   7.488  0.7751 -0.2905  0.9765
  189SLPC   H6Y21869   5.772   4.188   7.400  2.8890  0.0658 -2.2258
  189SLPC   C3721870   5.902   4.090   7.531  0.1383 -0.1232 -0.5539
  189SLPC   H7X21871   5.990   4.144   7.488 -1.3354  2.7618 -0.0535
  189SLPC   H7Y21872   5.939   3.987   7.549  0.2518  0.0414  0.1858
  189SLPC   C3821873   5.846   4.149   7.662 -0.3947 -0.4700  0.5917
  189SLPC   H8X21874   5.753   4.090   7.679 -0.5933  0.0131  1.2150
  189SLPC   H8Y21875   5.818   4.256   7.651  0.1221 -0.3314  0.6273
  189SLPC   C3921876   5.941   4.123   7.780 -0.2199 -0.6326 -0.2543
  189SLPC   H9X21877   6.028   4.186   7.752 -0.2217 -0.0676  1.0113
  189SLPC   H9Y21878   5.978   4.022   7.752 -0.0396 -0.5285 -0.3909
  189SLPC  C31021879   5.888   4.123   7.928  0.1849 -0.1929 -0.0615
  189SLPC  H10X21880   5.841   4.215   7.970  1.2946  0.9977 -1.3796
  189SLPC  H10Y21881   5.980   4.103   7.987  0.0778  0.5030  0.3539
  189SLPC  C31121882   5.790   4.012   7.959 -0.2268 -0.4747  0.1675
  189SLPC  H11X21883   5.824   3.922   7.903 -3.3035 -0.3307 -2.0634
  189SLPC  H11Y21884   5.688   4.036   7.923 -0.7074 -0.7033  1.3551
  189SLPC  C31221885   5.783   3.976   8.114 -0.1860 -0.5048  0.5504
  189SLPC  H12X21886   5.750   4.072   8.158 -0.5933  0.3205 -1.4861
  189SLPC  H12Y21887   5.883   3.961   8.159  0.1910  0.5963  0.0980
  189SLPC  C31321888   5.671   3.879   8.146  0.8414  0.5619  0.5290
  189SLPC  H13X21889   5.678   3.805   8.063 -1.4330  0.9257 -0.0263
  189SLPC  H13Y21890   5.577   3.938   8.155 -0.0541 -0.9584  1.6328
  189SLPC  C31421891   5.686   3.802   8.273  0.4489 -0.7805  0.1700
  189SLPC  H14X21892   5.640   3.853   8.360 -0.0098 -2.5420  0.9907
  189SLPC  H14Y21893   5.795   3.812   8.294  0.3601 -0.3741  0.4423
  189SLPC  C31521894   5.637   3.653   8.254 -0.4850 -0.4926 -0.0449
  189SLPC  H15X21895   5.668   3.611   8.156  1.4084 -2.5742  1.4004
  189SLPC  H15Y21896   5.527   3.645   8.266 -0.2918 -0.6168  1.7153
  189SLPC  C31621897   5.711   3.559   8.345  0.3744 -0.5757  0.3031
  189SLPC  H16X21898   5.696   3.584   8.452  0.9329  2.2126 -0.2152
  189SLPC  H16Y21899   5.818   3.566   8.314 -0.0643 -1.7746 -1.5741
  189SLPC  C31721900   5.681   3.413   8.327  0.4086  0.1375 -0.2534
  189SLPC  H17X21901   5.744   3.359   8.401  0.4533  1.5173  0.7423
  189SLPC  H17Y21902   5.692   3.375   8.223  1.3570  0.2017 -0.1783
  189SLPC  C31821903   5.530   3.376   8.353 -0.6828 -0.9402  0.8530
  189SLPC  H18X21904   5.473   3.397   8.260  1.8436  0.1947 -0.5055
  189SLPC  H18Y21905   5.491   3.440   8.435  0.6295 -0.7782  1.3653
  189SLPC  H18Z21906   5.515   3.268   8.375 -1.2700 -1.2443 -0.9371
  190SLPC     N21907   6.525   3.852   6.381  0.1190 -0.0759 -0.1295
  190SLPC   C1321908   6.449   3.921   6.272 -0.4188  0.7291 -0.4555
  190SLPC  H13A21909   6.490   3.897   6.175 -0.7472 -5.4152  0.6800
  190SLPC  H13B21910   6.351   3.874   6.271  1.5000 -3.6525  1.8494
  190SLPC  H13C21911   6.439   4.026   6.292 -1.3171  0.3977  0.9581
  190SLPC   C1421912   6.469   3.891   6.512 -0.2927  0.1686  0.3399
  190SLPC  H14A21913   6.362   3.901   6.511 -0.3229 -0.0474  1.4770
  190SLPC  H14B21914   6.499   3.815   6.583  1.6847 -0.9779 -1.6297
  190SLPC  H14C21915   6.502   3.987   6.549 -0.8436  1.1088 -1.5032
  190SLPC   C1521916   6.666   3.901   6.383  0.5695  0.8982 -0.2109
  190SLPC  H15A21917   6.730   3.859   6.460  0.4326  0.3883 -0.3717
  190SLPC  H15B21918   6.713   3.868   6.291 -1.0745  0.0194 -0.7569
  190SLPC  H15C21919   6.672   4.008   6.393  0.8978  0.8166  0.5301
  190SLPC   C1221920   6.519   3.705   6.365 -0.1435  0.4530  0.1423
  190SLPC  H12A21921   6.420   3.671   6.338 -0.4790  1.1736  0.4652
  190SLPC  H12B21922   6.521   3.651   6.459 -1.1197  1.9023  1.0048
  190SLPC   C1121923   6.617   3.642   6.274 -0.0571  0.3726  0.4244
  190SLPC  H11A21924   6.616   3.694   6.175  1.5142 -2.3132 -1.0587
  190SLPC  H11B21925   6.583   3.538   6.256 -1.7307  0.7045  1.5408
  190SLPC     P21926   6.806   3.512   6.397  0.2837  0.0471  0.4900
  190SLPC   O1321927   6.837   3.406   6.295 -0.3904  0.0495 -0.3659
  190SLPC   O1421928   6.920   3.560   6.483 -0.0161  0.1674 -0.2001
  190SLPC   O1221929   6.746   3.639   6.328 -0.0216 -0.7193 -0.4604
  190SLPC   O1121930   6.687   3.458   6.482  0.1808  0.2482  0.1066
  190SLPC    C121931   6.639   3.521   6.601  0.3004 -0.0783 -0.6591
  190SLPC    HA21932   6.666   3.629   6.602  1.1755 -0.2759 -2.0799
  190SLPC    HB21933   6.530   3.509   6.616  0.4953  0.5674  1.5681
  190SLPC    C221934   6.712   3.474   6.727  0.3422  0.5729 -0.5002
  190SLPC    HS21935   6.813   3.521   6.729  2.7587 -4.3955  2.3932
  190SLPC   O2121936   6.738   3.329   6.714  0.0057 -0.4528  0.0673
  190SLPC   C2121937   6.826   3.278   6.799 -0.3877  0.9090  0.2168
  190SLPC   O2221938   6.901   3.343   6.870 -0.0400 -0.0197  0.5551
  190SLPC   C2221939   6.830   3.129   6.793  0.1224 -0.2578 -0.4984
  190SLPC   H2R21940   6.723   3.098   6.796 -0.9014  3.1642  0.4491
  190SLPC   H2S21941   6.874   3.103   6.694 -1.7642  0.2620 -1.4974
  190SLPC    C321942   6.640   3.504   6.865  0.0767 -0.0696  1.2384
  190SLPC    HX21943   6.655   3.614   6.870  1.5393 -0.0039 -2.5215
  190SLPC    HY21944   6.691   3.467   6.956  2.3312  0.6792  0.3206
  190SLPC   O3121945   6.505   3.464   6.859 -0.2266  0.0058 -0.0081
  190SLPC   C3121946   6.482   3.345   6.911  0.8059  0.0871 -0.7141
  190SLPC   O3221947   6.570   3.265   6.925 -0.1532  0.0552 -0.6962
  190SLPC   C3221948   6.331   3.335   6.926 -0.0148  0.5116  0.4893
  190SLPC   H2X21949   6.281   3.350   6.828 -0.7601  0.9951  0.9320
  190SLPC   H2Y21950   6.295   3.423   6.984  1.1659  1.9869 -0.9752
  190SLPC   C2321951   6.923   3.060   6.896  0.7771  0.0426  0.1675
  190SLPC   H3R21952   7.021   3.110   6.887  0.5572  0.7174  1.3823
  190SLPC   H3S21953   6.934   2.951   6.880 -0.5373 -0.0081 -0.4764
  190SLPC   C2421954   6.877   3.064   7.043 -0.3058  0.5297  0.4080
  190SLPC   H4R21955   6.852   3.169   7.071 -0.6862  0.4766  0.2761
  190SLPC   H4S21956   6.946   3.027   7.121  0.8979  2.0132  0.0690
  190SLPC   C2521957   6.745   2.983   7.061 -0.3414  0.0678 -0.2255
  190SLPC   H5R21958   6.779   2.878   7.063 -2.0840 -0.5444 -1.6528
  190SLPC   H5S21959   6.674   2.986   6.975  0.4559 -3.5486 -1.0874
  190SLPC   C2621960   6.669   3.029   7.183  0.7444  0.2448 -0.3727
  190SLPC   H6R21961   6.662   3.140   7.184  2.1659  0.3473  0.3168
  190SLPC   H6S21962   6.720   3.009   7.280 -2.5275  2.5834  1.9286
  190SLPC   C2721963   6.529   2.960   7.192  0.1387 -0.4345 -0.1859
  190SLPC   H7R21964   6.539   2.855   7.158  0.3132 -0.6861  0.6441
  190SLPC   H7S21965   6.462   3.018   7.125  0.5571 -0.2650 -0.4632
  190SLPC   C2821966   6.459   2.960   7.332 -0.1707 -0.5409 -0.0202
  190SLPC   H8R21967   6.361   2.910   7.317  1.0719 -2.5242 -1.7554
  190SLPC   H8S21968   6.448   3.065   7.366  0.4101 -0.6945  0.6760
  190SLPC   C2921969   6.536   2.885   7.432 -0.1041  0.0429 -0.1844
  190SLPC   H9R21970   6.628   2.841   7.391  0.3554 -0.8652  1.7642
  190SLPC  C21021971   6.507   2.853   7.561  0.0729  0.3999  0.5313
  190SLPC  H10R21972   6.570   2.788   7.623 -0.0527 -0.2566 -0.0295
  190SLPC  C21121973   6.372   2.886   7.625  0.3978 -0.2764 -0.3836
  190SLPC  H11R21974   6.322   2.967   7.568 -0.7300 -1.2757 -0.8398
  190SLPC  H11S21975   6.384   2.936   7.724  3.0717  2.1418 -1.8601
  190SLPC  C21221976   6.291   2.762   7.632 -0.1103  0.3557  0.5962
  190SLPC  H12R21977   6.205   2.755   7.564 -0.4042  0.5245  0.9474
  190SLPC  C21321978   6.310   2.659   7.717 -0.0383 -0.6731  0.5918
  190SLPC  H13R21979   6.240   2.574   7.707 -0.9885  0.0837  0.7708
  190SLPC  C21421980   6.405   2.649   7.834 -0.2422 -1.0066 -0.1376
  190SLPC  H14R21981   6.499   2.707   7.830  0.2198 -1.6815  0.7370
  190SLPC  H14S21982   6.427   2.540   7.841  0.6355 -0.8082  0.2201
  190SLPC  C21521983   6.332   2.675   7.961  0.6241 -0.1719 -1.1836
  190SLPC  H15R21984   6.396   2.638   8.043 -1.1435 -1.8711 -0.5251
  190SLPC  H15S21985   6.248   2.603   7.963  1.3606 -1.0049  0.3474
  190SLPC  C21621986   6.286   2.825   7.982  0.1089 -0.4712 -0.1984
  190SLPC  H16R21987   6.206   2.856   7.910  0.2866  1.9318  0.5749
  190SLPC  H16S21988   6.380   2.879   7.959  0.1961 -1.3461 -2.0021
  190SLPC  C21721989   6.238   2.864   8.113 -0.5487 -0.1757  0.0805
  190SLPC  H17R21990   6.216   2.973   8.114 -0.1200 -0.0864  2.3796
  190SLPC  H17S21991   6.315   2.855   8.193  1.6476 -0.5130 -2.0043
  190SLPC  C21821992   6.113   2.784   8.157  0.0999 -0.1899  0.1745
  190SLPC  H18R21993   6.041   2.777   8.072  1.1909  0.2987 -0.8134
  190SLPC  H18S21994   6.052   2.827   8.239  0.6883 -0.1202  0.5776
  190SLPC  H18T21995   6.143   2.681   8.186 -0.3656  0.3735  2.7243
  190SLPC   C3321996   6.279   3.217   7.010 -0.1302  0.2785 -0.4232
  190SLPC   H3X21997   6.330   3.128   6.969  0.6575  1.0372 -1.1221
  190SLPC   H3Y21998   6.169   3.216   6.989  0.1693 -0.6557 -2.0573
  190SLPC   C3421999   6.300   3.238   7.162 -0.3951 -0.5645 -0.1257
  190SLPC   H4X22000   6.408   3.253   7.185 -0.0732  0.3880 -2.1997
  190SLPC   H4Y22001   6.276   3.139   7.206 -0.9425 -0.0793  0.6735
  190SLPC   C3522002   6.215   3.353   7.219 -0.1675 -0.0080  0.3381
  190SLPC   H5X22003   6.112   3.354   7.179  0.1000 -3.3123 -0.5013
  190SLPC   H5Y22004   6.272   3.447   7.199  0.8916 -0.8798 -0.7687
  190SLPC   C3622005   6.215   3.348   7.368 -0.3762  0.3385  0.3758
  190SLPC   H6X22006   6.213   3.452   7.409  0.3978  1.0618 -1.3570
  190SLPC   H6Y22007   6.313   3.309   7.402  1.0604  2.3627 -1.2726
  190SLPC   C3722008   6.106   3.256   7.431 -0.5044 -0.1362  0.0565
  190SLPC   H7X22009   6.113   3.160   7.374 -0.7559 -1.9599  3.0199
  190SLPC   H7Y22010   6.008   3.301   7.409 -1.2374 -1.4498  0.5794
  190SLPC   C3822011   6.135   3.222   7.576 -0.0583 -0.3924  0.0163
  190SLPC   H8X22012   6.160   3.308   7.641  0.5518  0.1596 -0.9345
  190SLPC   H8Y22013   6.230   3.165   7.579  0.0847 -0.0785  2.4766
  190SLPC   C3922014   6.027   3.127   7.625  0.3618 -0.5077 -0.1200
  190SLPC   H9X22015   6.023   3.038   7.558 -0.6126  0.7109 -1.7264
  190SLPC   H9Y22016   5.929   3.177   7.606  1.2144  0.2202 -2.8054
  190SLPC  C31022017   6.049   3.091   7.775 -0.5122 -0.0125 -0.0958
  190SLPC  H10X22018   6.159   3.080   7.775 -0.6618 -1.7466 -1.1987
  190SLPC  H10Y22019   6.005   2.993   7.803  2.2940 -0.9045  1.3253
  190SLPC  C31122020   5.995   3.209   7.866  0.4019 -0.9703  0.0899
  190SLPC  H11X22021   5.894   3.244   7.834  0.4930  0.3530  1.1914
  190SLPC  H11Y22022   6.057   3.300   7.852 -1.6031  0.2783 -0.9302
  190SLPC  C31222023   5.980   3.187   8.017 -0.4498  0.0742 -0.0092
  190SLPC  H12X22024   5.969   3.288   8.063  0.4386  1.3020 -2.3561
  190SLPC  H12Y22025   6.079   3.158   8.058  0.1096  0.0800 -1.2993
  190SLPC  C31322026   5.882   3.084   8.068 -0.3181 -0.5150  0.2145
  190SLPC  H13X22027   5.907   2.979   8.044 -0.8531 -1.1273  2.1956
  190SLPC  H13Y22028   5.776   3.105   8.040 -0.3240 -0.2349  0.4390
  190SLPC  C31422029   5.892   3.107   8.219  0.6998  0.2679  0.9759
  190SLPC  H14X22030   5.855   3.207   8.253  1.0288  0.8814 -0.4324
  190SLPC  H14Y22031   5.997   3.091   8.251  0.3475 -1.2725  1.4056
  190SLPC  C31522032   5.809   3.008   8.307 -0.2662  0.0465  0.1449
  190SLPC  H15X22033   5.853   2.917   8.262  0.9062  0.2649  0.7994
  190SLPC  H15Y22034   5.704   3.023   8.277  0.0459 -1.4414 -1.7839
  190SLPC  C31622035   5.836   3.014   8.456 -0.1203 -0.6023  0.4862
  190SLPC  H16X22036   5.823   3.119   8.489 -1.7180 -0.2596 -1.1405
  190SLPC  H16Y22037   5.939   2.988   8.488  0.4322  3.1125  1.9007
  190SLPC  C31722038   5.734   2.938   8.537 -0.4964  0.0645 -0.1219
  190SLPC  H17X22039   5.725   2.836   8.494 -2.2567 -0.5321  1.6095
  190SLPC  H17Y22040   5.634   2.981   8.514 -1.0187 -1.2393 -0.2919
  190SLPC  C31822041   5.756   2.931   8.685 -0.4659 -0.7230 -0.0480
  190SLPC  H18X22042   5.670   2.878   8.731  0.9267 -3.1654 -0.1792
  190SLPC  H18Y22043   5.773   3.033   8.726  1.3111 -1.2275  0.5098
  190SLPC  H18Z22044   5.847   2.875   8.716 -1.4338 -1.7724  0.9379
  191SLPC     N22045   5.693   5.439   5.690  0.6552  0.2884  0.2454
  191SLPC   C1322046   5.641   5.422   5.824  0.0694  0.7039  0.3758
  191SLPC  H13A22047   5.538   5.389   5.824  0.2846 -0.0428 -0.8223
  191SLPC  H13B22048   5.695   5.359   5.892  2.2857  2.6187  0.4360
  191SLPC  H13C22049   5.647   5.519   5.870  0.0083  0.1953  1.4681
  191SLPC   C1422050   5.604   5.532   5.616  0.2743 -0.5161  0.7641
  191SLPC  H14A22051   5.628   5.543   5.512 -1.0998 -2.6825  0.1816
  191SLPC  H14B22052   5.505   5.487   5.614  1.0938 -2.3663 -2.9469
  191SLPC  H14C22053   5.593   5.624   5.672 -1.1558  1.5879 -2.7946
  191SLPC   C1522054   5.708   5.308   5.622  0.1169 -0.0496 -0.6355
  191SLPC  H15A22055   5.614   5.258   5.604  1.1711 -2.2866 -0.1298
  191SLPC  H15B22056   5.755   5.317   5.525 -1.0641 -1.2653 -1.3354
  191SLPC  H15C22057   5.774   5.242   5.677 -1.3784 -1.1032 -0.0949
  191SLPC   C1222058   5.822   5.507   5.698  0.2289 -0.2304 -0.2849
  191SLPC  H12A22059   5.815   5.600   5.753  0.1534  0.3520 -1.2656
  191SLPC  H12B22060   5.849   5.524   5.595  0.9215  0.4387  0.0064
  191SLPC   C1122061   5.933   5.423   5.764 -0.0492  0.0423 -0.1996
  191SLPC  H11A22062   6.030   5.466   5.733  0.6995 -1.3605  0.1645
  191SLPC  H11B22063   5.938   5.321   5.720 -0.2031 -0.8417  1.7638
  191SLPC     P22064   5.967   5.518   6.004 -0.1502 -0.1713  0.3541
  191SLPC   O1322065   6.105   5.545   5.958  0.5926 -0.0691 -0.0266
  191SLPC   O1422066   5.871   5.630   6.011  0.2259 -0.2763  0.8296
  191SLPC   O1222067   5.909   5.410   5.907  0.5204 -0.3345 -0.1614
  191SLPC   O1122068   5.971   5.438   6.135 -0.0261  0.1645  0.5519
  191SLPC    C122069   5.930   5.307   6.171  0.2196 -0.4348 -0.2167
  191SLPC    HA22070   5.849   5.268   6.106  1.1917 -0.2823 -1.5286
  191SLPC    HB22071   6.012   5.236   6.147  2.3324  1.9577 -0.4092
  191SLPC    C222072   5.871   5.307   6.309  0.1092 -0.0712  0.0703
  191SLPC    HS22073   5.797   5.226   6.330  0.3303 -0.3975 -0.3810
  191SLPC   O2122074   5.816   5.435   6.343  0.1758  0.2320 -0.8748
  191SLPC   C2122075   5.701   5.456   6.270 -0.8403  0.0482  0.1414
  191SLPC   O2222076   5.642   5.371   6.204 -0.1481 -0.6824  0.0441
  191SLPC   C2222077   5.665   5.597   6.290  0.4776  0.3416  0.0178
  191SLPC   H2R22078   5.746   5.651   6.343  1.3410 -2.0966  1.2691
  191SLPC   H2S22079   5.652   5.649   6.193  0.0239  0.6577  0.2455
  191SLPC    C322080   5.998   5.284   6.406 -0.2167  0.1159  0.1502
  191SLPC    HX22081   6.077   5.358   6.380 -1.0601  1.2420  0.7089
  191SLPC    HY22082   6.039   5.183   6.384  0.6950  0.0175  2.1750
  191SLPC   O3122083   5.958   5.298   6.548 -0.3609 -0.0339 -0.1197
  191SLPC   C3122084   5.972   5.423   6.592 -0.0052  0.3158 -0.3448
  191SLPC   O3222085   6.023   5.512   6.530 -0.2448  0.1196 -0.5389
  191SLPC   C3222086   5.915   5.425   6.731 -0.3265 -0.4987 -0.1431
  191SLPC   H2X22087   5.965   5.340   6.783 -0.5545 -0.4296  0.1850
  191SLPC   H2Y22088   5.807   5.405   6.718 -0.3376  1.1910 -2.9066
  191SLPC   C2322089   5.533   5.630   6.362 -0.0115  0.8387  0.1459
  191SLPC   H3R22090   5.449   5.579   6.309  1.8326 -0.8306 -1.2297
  191SLPC   H3S22091   5.519   5.740   6.352  0.3978  0.8330 -0.5324
  191SLPC   C2422092   5.527   5.598   6.512 -0.1684 -0.3534 -0.0532
  191SLPC   H4R22093   5.427   5.636   6.543 -0.6191 -3.1806  2.1148
  191SLPC   H4S22094   5.606   5.660   6.562 -2.1879  1.1668  1.3472
  191SLPC   C2522095   5.533   5.449   6.546 -0.1645  0.3612  0.5488
  191SLPC   H5R22096   5.639   5.424   6.526 -0.3788  0.5026 -0.7911
  191SLPC   H5S22097   5.481   5.391   6.466  0.8313  1.1184 -0.6601
  191SLPC   C2622098   5.484   5.421   6.681  0.2051 -0.6909 -0.0916
  191SLPC   H6R22099   5.379   5.451   6.699  0.2863 -1.0648  0.9986
  191SLPC   H6S22100   5.541   5.485   6.751 -1.5547 -0.7130  1.3855
  191SLPC   C2722101   5.512   5.281   6.730  0.5316  0.0700  0.6678
  191SLPC   H7R22102   5.619   5.283   6.762 -0.3012 -1.4111  3.7398
  191SLPC   H7S22103   5.506   5.207   6.648 -0.2411 -0.2790  1.0368
  191SLPC   C2822104   5.423   5.236   6.850 -0.2152 -0.1220 -0.0831
  191SLPC   H8R22105   5.449   5.301   6.936 -0.2739  0.9001 -0.8334
  191SLPC   H8S22106   5.459   5.131   6.860 -0.6060 -0.3157 -0.6459
  191SLPC   C2922107   5.273   5.230   6.816 -0.0498  0.0516  0.0995
  191SLPC   H9R22108   5.249   5.182   6.720  1.3980 -0.8620  0.1915
  191SLPC  C21022109   5.178   5.291   6.890 -0.5266 -0.8929 -0.6139
  191SLPC  H10R22110   5.075   5.274   6.858  0.1797  0.1610 -3.6677
  191SLPC  C21122111   5.197   5.364   7.019 -0.2577  0.0993  0.7620
  191SLPC  H11R22112   5.169   5.470   7.003  2.7103  1.0801  1.7053
  191SLPC  H11S22113   5.305   5.375   7.043 -0.0084  0.9492 -0.7113
  191SLPC  C21222114   5.125   5.290   7.132  0.8794  0.4060  0.9469
  191SLPC  H12R22115   5.133   5.181   7.119 -0.4836  0.6374 -2.2061
  191SLPC  C21322116   5.069   5.349   7.237  0.4517  0.9182 -0.0081
  191SLPC  H13R22117   5.025   5.289   7.319 -0.0614 -0.9542 -1.6351
  191SLPC  C21422118   5.066   5.497   7.268  0.1115  0.1111  0.3535
  191SLPC  H14R22119   4.965   5.540   7.251  0.2420  1.5968  3.1058
  191SLPC  H14S22120   5.138   5.553   7.204 -0.2416  2.1657  1.7273
  191SLPC  C21522121   5.117   5.518   7.408  0.7126 -0.4169 -0.4309
  191SLPC  H15R22122   5.132   5.628   7.417  0.3448 -0.3012 -1.2116
  191SLPC  H15S22123   5.222   5.482   7.421  1.3006  1.1574 -0.7592
  191SLPC  C21622124   5.025   5.490   7.526 -0.4300 -0.0756 -0.0425
  191SLPC  H16R22125   5.014   5.379   7.529  0.4138 -0.1366  1.2471
  191SLPC  H16S22126   4.923   5.531   7.510  0.0454  0.5774 -1.4752
  191SLPC  C21722127   5.098   5.528   7.658 -0.1259  0.5668 -0.0124
  191SLPC  H17R22128   5.122   5.636   7.653 -0.9836  0.7787  0.2804
  191SLPC  H17S22129   5.189   5.464   7.663 -1.8287 -1.8058  2.1463
  191SLPC  C21822130   5.019   5.501   7.784  0.7714 -0.3847 -0.3490
  191SLPC  H18R22131   4.926   5.561   7.795  1.0432 -0.3110  1.6872
  191SLPC  H18S22132   5.085   5.511   7.873  1.4774 -0.0762 -0.9018
  191SLPC  H18T22133   4.981   5.396   7.784  0.9112 -0.4389  0.8823
  191SLPC   C3322134   5.924   5.550   6.827 -0.6237 -0.1736  0.6482
  191SLPC   H3X22135   5.873   5.640   6.785  0.7107  0.0282 -0.5928
  191SLPC   H3Y22136   6.030   5.580   6.832  0.0864 -2.3418 -0.7275
  191SLPC   C3422137   5.872   5.511   6.967  0.7709  1.5243 -0.1552
  191SLPC   H4X22138   5.920   5.578   7.042  0.0774  1.7073  0.1219
  191SLPC   H4Y22139   5.893   5.403   6.982 -2.2266  0.6759 -1.6312
  191SLPC   C3522140   5.722   5.524   6.973 -0.4512 -0.5942 -0.0591
  191SLPC   H5X22141   5.679   5.438   6.917  0.8390 -0.5107 -1.2222
  191SLPC   H5Y22142   5.698   5.619   6.921  1.9877  1.6002  2.6766
  191SLPC   C3622143   5.671   5.540   7.116 -0.0908 -0.2132  0.5550
  191SLPC   H6X22144   5.569   5.585   7.114 -0.8067 -1.6993  1.5647
  191SLPC   H6Y22145   5.731   5.624   7.157 -0.6281  0.1259  0.6601
  191SLPC   C3722146   5.678   5.409   7.198 -0.2191 -0.0707 -0.2813
  191SLPC   H7X22147   5.776   5.358   7.192  1.6306  3.3480 -0.0090
  191SLPC   H7Y22148   5.607   5.339   7.148 -0.8275  0.6276 -0.4093
  191SLPC   C3822149   5.625   5.425   7.347  0.5064 -0.3178 -0.1969
  191SLPC   H8X22150   5.608   5.321   7.382 -3.2082  1.2258  2.9858
  191SLPC   H8Y22151   5.529   5.480   7.350  1.0606  0.6504  0.1028
  191SLPC   C3922152   5.739   5.479   7.439 -0.3323  0.2060 -0.2718
  191SLPC   H9X22153   5.750   5.589   7.425  1.0847  0.0393 -0.4822
  191SLPC   H9Y22154   5.838   5.439   7.410  0.1432 -1.5361  3.5603
  191SLPC  C31022155   5.716   5.437   7.584 -0.1714  0.5869 -0.5041
  191SLPC  H10X22156   5.800   5.463   7.651  0.2017 -2.0556  0.0899
  191SLPC  H10Y22157   5.705   5.327   7.582  0.3685  0.5162  0.2716
  191SLPC  C31122158   5.588   5.506   7.645 -0.2725  0.3471 -0.3416
  191SLPC  H11X22159   5.502   5.479   7.579 -0.0595 -1.0534 -0.0504
  191SLPC  H11Y22160   5.611   5.615   7.651 -1.1207  0.5660 -0.8983
  191SLPC  C31222161   5.554   5.462   7.791 -0.3426  0.3147  0.0655
  191SLPC  H12X22162   5.646   5.478   7.852 -0.6381 -1.3069  0.9566
  191SLPC  H12Y22163   5.525   5.355   7.798 -0.5608  0.3891  0.3415
  191SLPC  C31322164   5.437   5.541   7.855  0.3087 -0.1519  0.3886
  191SLPC  H13X22165   5.354   5.564   7.785  0.8843  2.0456  0.3594
  191SLPC  H13Y22166   5.477   5.636   7.898 -2.0294  1.3610 -0.6355
  191SLPC  C31422167   5.363   5.460   7.965 -0.5750 -0.9476  0.2472
  191SLPC  H14X22168   5.343   5.360   7.921 -1.9574 -0.5728 -0.0100
  191SLPC  H14Y22169   5.258   5.495   7.975 -0.0152  0.9775 -0.4524
  191SLPC  C31522170   5.440   5.469   8.095 -0.4847  0.1791  0.5718
  191SLPC  H15X22171   5.464   5.577   8.103 -3.4409  0.9838 -0.9607
  191SLPC  H15Y22172   5.545   5.433   8.090  1.1702  4.8741 -1.0479
  191SLPC  C31622173   5.360   5.416   8.226 -0.6409 -0.5168  0.0896
  191SLPC  H16X22174   5.422   5.374   8.308 -0.9105 -0.2093  0.4515
  191SLPC  H16Y22175   5.290   5.334   8.201  0.8405 -1.8116  0.1126
  191SLPC  C31722176   5.262   5.525   8.280 -0.0117  0.0639  0.5436
  191SLPC  H17X22177   5.171   5.483   8.326 -0.9937  0.9622 -0.5629
  191SLPC  H17Y22178   5.218   5.581   8.195 -0.5942  0.4098  1.0632
  191SLPC  C31822179   5.334   5.617   8.366  0.4732 -0.3884  0.2170
  191SLPC  H18X22180   5.434   5.633   8.321  0.8957  1.2952  1.6960
  191SLPC  H18Y22181   5.339   5.587   8.472 -1.7866  0.6783  0.6566
  191SLPC  H18Z22182   5.288   5.717   8.379 -0.9071 -1.0258  0.2741
  192SLPC     N22183   6.046   6.712   6.175 -0.1016  0.3578 -0.3997
  192SLPC   C1322184   5.964   6.804   6.106 -0.8608  0.5358 -0.4220
  192SLPC  H13A22185   5.978   6.906   6.139 -2.0954  0.9586 -1.1543
  192SLPC  H13B22186   5.998   6.812   6.004  0.3876  1.0936  0.0257
  192SLPC  H13C22187   5.860   6.786   6.127 -1.3071  1.5094 -1.7134
  192SLPC   C1422188   6.186   6.730   6.134  0.3406 -0.9038 -0.1816
  192SLPC  H14A22189   6.197   6.835   6.114 -0.0031 -1.3711 -3.0192
  192SLPC  H14B22190   6.247   6.697   6.217  1.3270  0.8556 -0.2004
  192SLPC  H14C22191   6.200   6.674   6.043  0.0205  0.8480 -1.3178
  192SLPC   C1522192   6.006   6.570   6.134 -0.1254  0.0738  0.1534
  192SLPC  H15A22193   6.065   6.493   6.183  0.5561  0.4093 -0.1272
  192SLPC  H15B22194   5.906   6.546   6.167 -0.4059  0.6464 -0.2791
  192SLPC  H15C22195   6.005   6.552   6.027 -2.1847 -1.6785  0.4274
  192SLPC   C1222196   6.028   6.743   6.327 -0.2573 -0.5117  0.0362
  192SLPC  H12A22197   5.924   6.725   6.351 -0.6777 -0.1665 -1.4737
  192SLPC  H12B22198   6.047   6.849   6.335 -1.5021 -0.2320 -0.7076
  192SLPC   C1122199   6.116   6.668   6.435  0.3174  1.0279  0.2502
  192SLPC  H11A22200   6.117   6.720   6.533 -1.9303  0.0697  0.8058
  192SLPC  H11B22201   6.223   6.665   6.403  1.0544  2.2604  2.4837
  192SLPC     P22202   6.143   6.417   6.432 -0.0931 -0.1375 -0.4589
  192SLPC   O1322203   6.066   6.293   6.426 -0.0832  0.1795  0.3862
  192SLPC   O1422204   6.236   6.442   6.317  0.0321  0.5133 -0.2309
  192SLPC   O1222205   6.051   6.547   6.451  0.0462  0.0627  0.0314
  192SLPC   O1122206   6.237   6.406   6.554 -0.0549  0.1814  0.1944
  192SLPC    C122207   6.255   6.299   6.635  0.1051  0.3331  0.2380
  192SLPC    HA22208   6.260   6.208   6.571  1.9743 -2.3071  3.9471
  192SLPC    HB22209   6.356   6.299   6.682  0.1944  1.6736  0.0728
  192SLPC    C222210   6.152   6.276   6.751 -1.3435  1.0135  0.1206
  192SLPC    HS22211   6.063   6.317   6.699  0.9867  2.8720 -2.5942
  192SLPC   O2122212   6.190   6.358   6.858  0.0942  0.5184 -0.3631
  192SLPC   C2122213   6.119   6.462   6.891 -0.2796 -0.0888 -1.0411
  192SLPC   O2222214   6.013   6.501   6.839  0.1291  0.5510 -0.4362
  192SLPC   C2222215   6.189   6.541   7.009 -0.2157 -0.5543  1.5238
  192SLPC   H2R22216   6.222   6.467   7.085  1.0771 -1.8901 -0.2799
  192SLPC   H2S22217   6.283   6.585   6.967  1.2820 -3.5553  1.6024
  192SLPC    C322218   6.143   6.138   6.808  0.6605  0.0227  0.6674
  192SLPC    HX22219   6.244   6.101   6.836 -0.0166 -1.8662  0.6378
  192SLPC    HY22220   6.128   6.068   6.723  0.5979  0.8328  0.0030
  192SLPC   O3122221   6.040   6.111   6.912 -0.8645  0.5261  0.5369
  192SLPC   C3122222   5.916   6.130   6.878 -0.7745 -0.3715 -0.2621
  192SLPC   O3222223   5.875   6.158   6.770 -0.2057 -0.1878  0.8442
  192SLPC   C3222224   5.821   6.113   6.996  0.0586  0.4609 -0.6181
  192SLPC   H2X22225   5.807   6.004   6.980  2.8870  0.2761 -2.1460
  192SLPC   H2Y22226   5.722   6.163   6.985 -0.4383 -0.6850 -1.3691
  192SLPC   C2322227   6.113   6.660   7.051 -0.0824 -0.5732  0.5592
  192SLPC   H3R22228   6.010   6.635   7.086 -0.0101  0.6551  1.6861
  192SLPC   H3S22229   6.099   6.728   6.964 -0.9518 -0.3619  0.8520
  192SLPC   C2422230   6.184   6.745   7.157 -0.3410  0.0136 -0.7425
  192SLPC   H4R22231   6.130   6.841   7.173  1.7228  1.0818  0.0850
  192SLPC   H4S22232   6.286   6.778   7.129 -0.5664  3.4840  2.1165
  192SLPC   C2522233   6.208   6.681   7.293  0.0213 -0.1002  0.4843
  192SLPC   H5R22234   6.243   6.757   7.367 -0.1948  1.3855 -0.9164
  192SLPC   H5S22235   6.277   6.594   7.283 -2.5880 -2.2886  0.9199
  192SLPC   C2622236   6.075   6.627   7.361  1.0236 -0.4668  0.5387
  192SLPC   H6R22237   6.051   6.530   7.314  0.3269  0.2542 -0.6182
  192SLPC   H6S22238   6.003   6.707   7.333 -0.5689 -1.9158  0.4097
  192SLPC   C2722239   6.073   6.624   7.511  0.0827  0.2928  0.1778
  192SLPC   H7R22240   5.979   6.577   7.546 -0.3040  0.0087 -1.2180
  192SLPC   H7S22241   6.067   6.727   7.553 -2.1733  0.3635 -0.2560
  192SLPC   C2822242   6.190   6.539   7.573  0.7456  0.1306  0.6666
  192SLPC   H8R22243   6.192   6.536   7.684  0.9824  0.4275  0.6720
  192SLPC   H8S22244   6.284   6.571   7.523  1.0212  1.7417  2.1544
  192SLPC   C2922245   6.177   6.394   7.539  0.7670  0.8155 -0.0924
  192SLPC   H9R22246   6.201   6.382   7.432  1.5369  2.1984 -0.0868
  192SLPC  C21022247   6.144   6.291   7.615 -0.4014 -0.6164  0.5677
  192SLPC  H10R22248   6.149   6.189   7.576  2.7347 -0.6049  0.7870
  192SLPC  C21122249   6.117   6.310   7.764  0.5485  0.2092 -0.4367
  192SLPC  H11R22250   6.195   6.373   7.811 -1.1111  1.6854  0.4097
  192SLPC  H11S22251   6.131   6.208   7.806  0.5714  0.1979 -0.4724
  192SLPC  C21222252   5.986   6.371   7.799  0.2355 -0.1183  0.0467
  192SLPC  H12R22253   5.927   6.396   7.710  1.4444 -1.7167 -1.2111
  192SLPC  C21322254   5.932   6.383   7.919 -0.8406  0.2305 -0.1341
  192SLPC  H13R22255   5.831   6.420   7.941 -2.6665 -4.1026 -0.7309
  192SLPC  C21422256   6.003   6.340   8.046  0.7417 -0.1840 -0.4083
  192SLPC  H14R22257   6.076   6.257   8.032  1.7642  0.4292  1.1899
  192SLPC  H14S22258   5.921   6.308   8.114 -1.5914 -1.0755 -3.5220
  192SLPC  C21522259   6.079   6.446   8.128 -0.9322  0.4773  1.2914
  192SLPC  H15R22260   6.145   6.514   8.071  0.3531 -0.0289  2.1585
  192SLPC  H15S22261   6.144   6.395   8.202 -0.4519 -2.1098 -0.8318
  192SLPC  C21622262   5.992   6.540   8.207  0.1706 -0.1849  0.5073
  192SLPC  H16R22263   5.926   6.478   8.271  0.5518  0.1044  1.1750
  192SLPC  H16S22264   5.924   6.589   8.133 -0.4972 -0.7376  0.7509
  192SLPC  C21722265   6.064   6.641   8.291 -0.0614  0.0128  0.2516
  192SLPC  H17R22266   5.995   6.691   8.362 -0.7139 -0.1219 -0.2832
  192SLPC  H17S22267   6.142   6.590   8.351  0.8088  1.3646  0.2832
  192SLPC  C21822268   6.126   6.753   8.215 -0.3397  0.3702 -0.1968
  192SLPC  H18R22269   6.043   6.807   8.165  0.1101  1.8081  0.5742
  192SLPC  H18S22270   6.187   6.712   8.132  0.2562  3.4811 -1.3603
  192SLPC  H18T22271   6.189   6.814   8.283 -0.3102  1.4505 -1.1904
  192SLPC   C3322272   5.878   6.139   7.137 -0.2703 -0.5110  1.1282
  192SLPC   H3X22273   5.894   6.247   7.159  1.4534 -0.2654 -1.1453
  192SLPC   H3Y22274   5.977   6.091   7.148  0.6823  1.5627  1.8620
  192SLPC   C3422275   5.782   6.090   7.253  0.1213  0.3032  0.4977
  192SLPC   H4X22276   5.760   5.983   7.238 -0.0639  0.4132 -0.0536
  192SLPC   H4Y22277   5.687   6.147   7.254  1.1377  2.0472  0.8952
  192SLPC   C3522278   5.849   6.118   7.389  0.9313  0.3786  0.2093
  192SLPC   H5X22279   5.864   6.226   7.412 -1.2102  0.8423 -0.4195
  192SLPC   H5Y22280   5.941   6.058   7.400 -1.2559 -2.9852  0.7429
  192SLPC   C3622281   5.768   6.065   7.505 -0.5559 -0.4467 -0.2760
  192SLPC   H6X22282   5.747   5.960   7.477  1.2952 -0.4495 -1.7453
  192SLPC   H6Y22283   5.684   6.138   7.496 -0.3250 -0.2505 -0.8758
  192SLPC   C3722284   5.829   6.062   7.650 -0.0302 -0.0697  0.1338
  192SLPC   H7X22285   5.844   6.167   7.683 -0.7419 -0.0949  0.5411
  192SLPC   H7Y22286   5.925   6.006   7.642 -0.8960 -1.6552  0.5652
  192SLPC   C3822287   5.730   6.005   7.748 -0.0971 -0.0073  0.0618
  192SLPC   H8X22288   5.689   5.908   7.712  0.0751 -0.7668  1.8537
  192SLPC   H8Y22289   5.648   6.079   7.764 -0.7039 -1.0134  1.8221
  192SLPC   C3922290   5.790   5.983   7.885 -0.0971  0.8221 -0.7124
  192SLPC   H9X22291   5.808   6.082   7.931  0.8487  0.3232  0.0223
  192SLPC   H9Y22292   5.895   5.946   7.879  0.1173  0.4036  3.9384
  192SLPC  C31022293   5.697   5.906   7.976 -0.4651  0.6159  0.3160
  192SLPC  H10X22294   5.686   5.803   7.934 -1.5021  1.5904 -1.9158
  192SLPC  H10Y22295   5.600   5.960   7.982 -0.6988  0.5347 -2.0002
  192SLPC  C31122296   5.751   5.910   8.118 -0.7865  0.4402  0.1069
  192SLPC  H11X22297   5.785   6.012   8.145 -0.2549 -1.0099  5.4234
  192SLPC  H11Y22298   5.845   5.852   8.132  0.1002  1.9482  0.5836
  192SLPC  C31222299   5.652   5.852   8.224  0.3112  0.8128  1.0116
  192SLPC  H12X22300   5.605   5.764   8.175  0.4422  1.4900 -0.3476
  192SLPC  H12Y22301   5.571   5.928   8.232 -1.2925 -0.5135 -1.7597
  192SLPC  C31322302   5.720   5.821   8.353  0.2078 -0.6863 -0.6366
  192SLPC  H13X22303   5.651   5.827   8.439 -0.8967  0.8372 -1.6109
  192SLPC  H13Y22304   5.785   5.909   8.372 -2.0994  0.8436  0.2545
  192SLPC  C31422305   5.805   5.693   8.356  0.2314  0.2037 -0.2354
  192SLPC  H14X22306   5.875   5.691   8.443  0.0813 -1.8209 -0.1413
  192SLPC  H14Y22307   5.865   5.684   8.263 -1.0351  0.0574 -1.0367
  192SLPC  C31522308   5.715   5.563   8.369  0.4412  0.1244 -0.0227
  192SLPC  H15X22309   5.669   5.543   8.270  1.5499 -1.8191 -0.1645
  192SLPC  H15Y22310   5.645   5.583   8.453 -1.2648  0.9892 -1.6201
  192SLPC  C31622311   5.801   5.442   8.406  0.3176 -0.4180 -0.3129
  192SLPC  H16X22312   5.851   5.477   8.499  1.6370 -1.4599 -0.6024
  192SLPC  H16Y22313   5.875   5.406   8.330 -0.2528  0.2387 -1.1938
  192SLPC  C31722314   5.722   5.319   8.450 -0.1391  0.2643  0.1638
  192SLPC  H17X22315   5.627   5.353   8.496 -0.2211 -1.1211  1.0615
  192SLPC  H17Y22316   5.781   5.270   8.531  0.4772  0.5191 -0.1250
  192SLPC  C31822317   5.700   5.219   8.337 -0.3760  1.1329  0.6374
  192SLPC  H18X22318   5.640   5.258   8.252  2.1008  2.6310 -0.5020
  192SLPC  H18Y22319   5.645   5.129   8.371  0.0583  1.1271  1.3427
  192SLPC  H18Z22320   5.791   5.175   8.290  0.0819  1.8657  0.8251
  193SOD    SOD22321   4.633   1.755   0.441  0.0490  0.0722  0.2408
  194SOD    SOD22322   2.691   5.390  17.062 -0.1355  0.0572 -0.5113
  195SOD    SOD22323   3.693   1.234  13.082  0.2090 -0.2894  0.0307
  196SOD    SOD22324   6.708   6.413   6.306 -0.0668 -0.1451 -0.1001
  197SOD    SOD22325   2.967   5.130  13.460  0.3470 -0.2367  0.0941
  198SOD    SOD22326   3.249   0.250  15.856  0.1970  0.1167  0.4521
  199SOD    SOD22327   5.396   2.755   4.627  0.4464 -0.1383  0.4068
  200SOD    SOD22328   0.561   5.630   4.310 -0.0414  0.0210 -0.4724
  201SOD    SOD22329   1.895   3.459  15.322 -0.3981  0.3037 -0.1193
  202SOD    SOD22330   5.135   5.489  15.155  0.4277  0.3064 -0.1894
  203SOD    SOD22331   1.220   6.506   1.842 -0.1741  0.1941 -0.3103
  204SOD    SOD22332   4.102   4.468  13.255  0.4537  0.1290 -0.3108
  205SOD    SOD22333   5.674   2.138   2.751  0.0583  0.7209 -0.0534
  206SOD    SOD22334   2.479   0.311  11.905 -0.0407  0.4104 -0.0985
  207SOD    SOD22335   3.962   0.251   3.038 -0.2841 -0.2438 -0.2217
  208SOD    SOD22336   3.220   6.622  12.691 -0.1786 -0.4467 -0.2501
  209SOD    SOD22337   4.242   5.465  11.324 -0.2625  0.0090 -0.4794
  210SOD    SOD22338   6.038   0.264  14.093  0.0383 -0.3614  0.1669
  211SOD    SOD22339   0.008   4.095  11.274 -0.3120 -0.0918 -0.2131
  212SOD    SOD22340   4.988   4.411   0.970  0.4857  0.0605 -0.1727
  213SOD    SOD22341   4.265   6.492  14.893  0.8490  0.1849 -0.0432
  214SOD    SOD22342   5.755   5.158  11.623  0.1760 -0.5296  0.1948
  215SOD    SOD22343   1.225   4.107  14.155  0.4119  0.8102 -0.5409
  216SOD    SOD22344   3.068   5.598  12.129  0.1269  0.5495  0.2860
  217SOD    SOD22345   6.745   3.528  15.188 -0.5250 -0.2247  0.8626
  218SOD    SOD22346   0.774   1.559   1.359 -0.4880  0.2676  0.0936
  219SOD    SOD22347   3.231   0.087   5.707  0.0861 -0.6264 -0.4134
  220SOD    SOD22348   1.267   3.783  11.178 -0.4009 -0.4156  0.1082
  221SOD    SOD22349   5.572   1.173   6.447  0.0005 -0.0938  0.2473
  222SOD    SOD22350   1.602   2.745   5.925  0.6458  0.4537  0.0808
  223SOD    SOD22351   5.243   5.698   3.445 -0.3437 -0.1404 -0.0437
  224SOD    SOD22352   6.313   3.167   4.402  0.1546 -0.0175  0.4201
  225SOD    SOD22353   3.611   2.453  12.361 -0.6101 -0.1666  0.4099
  226SOD    SOD22354   6.215   1.100  14.315  0.2663  0.0515 -0.4380
  227SOD    SOD22355   1.655   3.254  13.472  0.2084  0.1054  0.0607
  228SOD    SOD22356   1.453   4.471   5.838 -0.3155 -0.0440 -0.1989
  229SOD    SOD22357   4.426   2.622  13.048 -0.0619 -0.3880 -0.1358
  230SOD    SOD22358   1.958   3.463  17.172 -0.3937  0.3218 -0.2225
  231SOD    SOD22359   6.009   4.435   6.259  0.3868  0.3607 -0.0401
  232SOD    SOD22360   4.491   3.359   3.307  0.0308  0.5616 -0.1890
  233SOD    SOD22361   2.785   0.298   5.915 -0.2679  0.0675  0.7143
  234SOD    SOD22362   1.012   1.959   3.148 -0.0825 -0.6643  0.1177
  235SOD    SOD22363   1.709   5.813  13.243 -0.9267 -0.0702 -0.3555
  236SOD    SOD22364   4.403   4.950   5.165 -0.1151 -0.0062  0.4609
  237SOD    SOD22365   4.757   3.570   1.310 -0.1030 -0.4415 -0.4723
  238SOD    SOD22366   0.775   3.195   5.125 -0.3320 -0.5521  0.1661
  239SOD    SOD22367   0.618   3.406  16.514 -0.0955 -0.6327 -0.1769
  240SOD    SOD22368   2.824   4.654  12.710  0.0298  0.1548  0.4238
  241SOD    SOD22369   3.143   1.123  10.884  0.2794 -0.7476 -0.0375
  242SOD    SOD22370   0.100   5.971   1.848  0.1398 -0.0712 -0.1962
  243SOD    SOD22371   0.523   2.254   6.117 -0.2315  0.2384 -0.2679
  244SOD    SOD22372   5.629   2.128  13.946 -0.0227 -0.3580 -0.1491
  245SOD    SOD22373   2.252   1.397   5.485  0.3312 -0.3396  0.2933
  246SOD    SOD22374   4.351   0.559   4.382  0.6699 -0.2130 -0.5696
  247SOD    SOD22375   2.406   2.670  11.887 -0.2491  0.2483 -0.0079
  248SOD    SOD22376   6.653   5.741   2.378  0.3848  0.0439 -0.5687
  249SOD    SOD22377   3.288   0.514  14.588  0.2378 -0.1247  0.0678
  250SOD    SOD22378   4.106   4.078   3.911 -0.4051 -0.0998  0.2181
  251SOD    SOD22379   1.765   1.751  17.065  0.3342  0.4778  0.4566
  252SOD    SOD22380   5.138   5.167   1.575  0.4031  0.3559  0.3783
  253SOD    SOD22381   1.068   4.677   3.165 -0.2756  0.6999  0.6188
  254SOD    SOD22382   4.724   0.642   4.019  0.1775 -0.6945  0.3617
  255SOD    SOD22383   1.011   4.803  11.754  0.4491  0.3052 -0.2056
  256SOD    SOD22384   2.041   0.659  15.786 -0.3032  0.0943  0.2694
  257SOD    SOD22385   2.239   1.985   2.793  0.3017 -0.2941 -0.2873
  258SOD    SOD22386   6.356   5.173   0.737 -0.2350  0.3865 -0.2953
  259SOD    SOD22387   3.388   2.059   1.425 -0.3918  0.1395 -0.1361
  260SOD    SOD22388   1.224   5.679   5.252 -0.1076 -0.0587  0.1974
  261SOD    SOD22389   3.062   5.479  11.149 -0.4201 -0.1696  0.3342
  262SOD    SOD22390   0.418   6.658   3.132 -0.0603  0.6118  0.2237
  263SOD    SOD22391   4.462   3.246  14.090  0.1452 -0.0447  0.2727
  264SOD    SOD22392   5.330   5.554   1.954  0.1907  0.1972  0.1178
  265SOD    SOD22393   3.747   6.608  12.300  0.2738  0.0691  0.3730
  266CLA    CLA22394   1.822   1.737  16.320 -0.3701 -0.1226 -0.1873
  267CLA    CLA22395   5.108   3.344  10.999  0.0958  0.8355  0.1920
  268CLA    CLA22396   2.436   4.424  13.508 -0.4611 -0.5208 -0.0027
  269CLA    CLA22397   3.497   2.432  13.366 -0.4243  0.3210 -0.0772
  270CLA    CLA22398   4.347   2.509   4.709 -0.1409 -0.0175 -0.2138
  271CLA    CLA22399   5.768   3.850   1.617 -0.1250 -0.1191 -0.1418
  272CLA    CLA22400   4.725   5.800   1.430  0.2340  0.2361 -0.1985
  273CLA    CLA22401   5.381   5.590   2.812  0.1066  0.1431 -0.1621
  274CLA    CLA22402   3.207   1.006   3.975  0.2308  0.1493 -0.5966
  275CLA    CLA22403   5.320   3.439   1.871  0.3963  0.1099  0.1315
  276CLA    CLA22404   5.340   5.724  14.761  0.0500 -0.3306  0.1842
  277CLA    CLA22405   5.586   3.158   4.422 -0.6720 -0.2102  0.0488
  278CLA    CLA22406   6.358   4.056  14.174 -0.1545 -0.2497 -0.2289
  279CLA    CLA22407   2.485   5.366  13.196 -0.1111 -0.1899 -0.3034
  280CLA    CLA22408   4.734   6.060  15.509  0.0272  0.0041 -0.2160
  281CLA    CLA22409   0.665   4.062  15.443 -0.0467 -0.2292 -0.5652
  282CLA    CLA22410   6.208   5.401   2.206 -0.0004  0.0690 -0.3373
  283CLA    CLA22411   5.422   3.013   2.831 -0.1653 -0.4256 -0.3106
  284CLA    CLA22412   5.122   5.948  11.775 -0.0111 -0.6155 -0.0497
  285CLA    CLA22413   1.876   0.183   1.996 -0.0065 -0.0229 -0.1983
  286CLA    CLA22414   3.064   5.470  13.703  0.0697  0.1342  0.1485
  287CLA    CLA22415   0.305   1.710  12.556  0.2717  0.1419  0.1068
  288CLA    CLA22416   4.225   4.568  13.710 -0.2419 -0.2035  0.0113
  289CLA    CLA22417   4.230   3.242   0.702  0.3749 -0.0400  0.0878
  290CLA    CLA22418   1.093   5.214   5.205  0.1362  0.5046  0.3448
  291CLA    CLA22419   3.713   6.460  12.810 -0.1811 -0.2332 -0.0380
  292CLA    CLA22420   1.041   5.633  16.154  0.0610 -0.0108  0.1073
  293CLA    CLA22421   6.237   5.489  17.179 -0.3414  0.2464  0.2039
  294CLA    CLA22422   2.026   2.301   3.978  0.0178  0.3350  0.2682
  295CLA    CLA22423   6.807   1.148  15.180  0.2006  0.1037  0.2311
  296CLA    CLA22424   3.056   1.541  12.301  0.2781  0.0136  0.1010
  297CLA    CLA22425   3.471   1.534   2.749  0.2504  0.0144  0.3421
  298CLA    CLA22426   5.168   1.762   0.396 -0.1668 -0.4319  0.2744
  299CLA    CLA22427   3.255   4.622  12.924  0.3181 -0.3683  0.2981
  300CLA    CLA22428   6.049   4.231   0.495  0.0694  0.2960  0.0022
  301CLA    CLA22429   0.112   3.808   2.582  0.1641 -0.2438  0.1773
  302CLA    CLA22430   5.435   2.354   5.333  0.1538 -0.8241 -0.1817
  303CLA    CLA22431   4.129   1.462  17.043 -0.0131 -0.0801 -0.3608
  304CLA    CLA22432   3.991   5.105  16.507  0.2134  0.3085 -0.5399
  305CLA    CLA22433   4.277   2.334  14.304 -0.3601  0.0896 -0.2363
  306CLA    CLA22434   0.438   2.807  15.366  0.1575 -0.2938  0.5121
  307CLA    CLA22435   6.631   0.157   5.489 -0.0694  0.1219 -0.4803
  308CLA    CLA22436   1.084   2.070  11.627 -0.0265  0.1492 -0.1360
  309CLA    CLA22437   4.558   2.219   0.168 -0.1390 -0.1493 -0.1933
  310CLA    CLA22438   2.254   6.340  11.269 -0.1261  0.0354  0.0794
  311CLA    CLA22439   1.594   1.333   3.192 -0.3288 -0.0190 -0.0001
  312CLA    CLA22440   2.390   5.440  16.570  0.1347 -0.4435  0.1037
  313CLA    CLA22441   1.208   6.493   3.671 -0.5564 -0.2678 -0.0983
  314CLA    CLA22442   2.728   3.423  14.339  0.4374  0.3661  0.1622
  315CLA    CLA22443   1.172   4.132   2.104  0.1147  0.4073  0.1781
  316CLA    CLA22444   1.083   2.841   4.984 -0.6547 -0.0133 -0.0462
  317CLA    CLA22445   5.122   6.333   4.112 -0.1616 -0.4202  0.1211
  318CLA    CLA22446   5.657   6.784   2.355 -0.3141  0.1721  0.1916
  319TIP3   OH222447   2.957   0.211  11.859 -0.3655  0.2267 -0.0323
  319TIP3    H122448   2.901   0.275  11.815 -0.6603  0.2800  0.4157
  319TIP3    H222449   2.956   0.238  11.951 -1.2427 -0.9826  0.3158
  320TIP3   OH222450   4.696   3.848  10.191 -0.0625 -0.4241  0.8060
  320TIP3    H122451   4.782   3.873  10.158 -0.9432 -0.1094 -1.3147
  320TIP3    H222452   4.671   3.919  10.250  0.3720  0.3458  0.0710
  321TIP3   OH222453   5.689   2.676  16.653  0.5357 -0.2116  0.0025
  321TIP3    H122454   5.593   2.671  16.656  0.4601  0.6451 -0.7849
  321TIP3    H222455   5.718   2.588  16.677 -0.4679 -0.7380 -0.6746
  322TIP3   OH222456   5.898   4.684  11.650  0.2312  0.2966 -0.1323
  322TIP3    H122457   5.990   4.666  11.628 -0.1251 -2.4240  0.4565
  322TIP3    H222458   5.850   4.665  11.569 -0.0236 -0.0840  0.1099
  323TIP3   OH222459   2.616   6.085   5.077 -0.1057  0.6589 -0.4591
  323TIP3    H122460   2.634   5.994   5.054 -0.1884  0.9090 -1.5224
  323TIP3    H222461   2.528   6.102   5.041 -0.8712  0.6020  1.3379
  324TIP3   OH222462   4.132   3.361   5.349  0.1018  0.1389  0.1835
  324TIP3    H122463   4.146   3.452   5.322 -2.4747  0.9581  1.4135
  324TIP3    H222464   4.088   3.320   5.275  0.6957  0.0725 -0.1305
  325TIP3   OH222465   6.725   3.031   5.275  0.0631  0.5880 -0.7230
  325TIP3    H122466   6.745   3.117   5.236 -1.5338  2.0216  1.4706
  325TIP3    H222467   6.630   3.033   5.286  0.1981 -0.8726  0.7429
  326TIP3   OH222468   2.251   2.804   1.621 -0.4301  0.6565 -0.1638
  326TIP3    H122469   2.208   2.877   1.666  0.1120  1.5935 -1.1370
  326TIP3    H222470   2.270   2.741   1.690  0.4161  2.0830  0.9364
  327TIP3   OH222471   6.572   0.580   3.797 -0.3483  0.0635  0.0133
  327TIP3    H122472   6.644   0.560   3.737 -0.5092  0.0115 -0.1633
  327TIP3    H222473   6.585   0.520   3.871  1.2848  1.8014  1.2036
  328TIP3   OH222474   3.508   4.429   3.520 -0.5924 -0.1137  0.6196
  328TIP3    H122475   3.457   4.364   3.568 -0.0517 -0.3947  0.8149
  328TIP3    H222476   3.453   4.451   3.445 -0.8607 -0.6635  0.6482
  329TIP3   OH222477   6.390   1.498  13.146 -0.2386 -0.2545  0.2119
  329TIP3    H122478   6.295   1.491  13.157 -0.4398 -1.3231 -2.0394
  329TIP3    H222479   6.426   1.432  13.205 -0.8964 -0.1829  0.7056
  330TIP3   OH222480   1.525   3.420  14.393  0.3777 -0.5881  0.5792
  330TIP3    H122481   1.473   3.346  14.425  2.1159 -1.7651  0.7538
  330TIP3    H222482   1.487   3.440  14.307  0.3343 -2.1721  0.2020
  331TIP3   OH222483   5.296   6.424   4.362  0.1469  0.3978  0.0311
  331TIP3    H122484   5.250   6.369   4.299  0.0563 -1.1334  1.3912
  331TIP3    H222485   5.232   6.441   4.431  1.3637 -1.1074  1.5545
  332TIP3   OH222486   5.774   4.371   0.518 -0.2011  0.1650 -0.0381
  332TIP3    H122487   5.858   4.327   0.534 -0.2817  0.1638  0.3926
  332TIP3    H222488   5.790   4.463   0.541 -0.6626 -0.0696  1.2613
  333TIP3   OH222489   4.020   1.295   1.652 -0.3358 -0.0649  0.0392
  333TIP3    H122490   3.952   1.248   1.700  0.9851 -3.2009 -1.0057
  333TIP3    H222491   3.985   1.383   1.640 -3.0952 -0.8617  1.7271
  334TIP3   OH222492   5.104   1.684   0.102 -0.0253 -0.5602 -0.3835
  334TIP3    H122493   5.153   1.741   0.160  1.9882 -0.3815 -2.1835
  334TIP3    H222494   5.035   1.739   0.066  1.8359  0.7780 -2.0331
  335TIP3   OH222495   3.119   5.269  14.986  0.0528  0.7085 -0.3587
  335TIP3    H122496   3.194   5.210  14.987  0.4283  1.1736 -0.7630
  335TIP3    H222497   3.051   5.223  15.035  0.7544  0.4922  0.4045
  336TIP3   OH222498   2.206   5.643   1.798 -0.2789 -0.9800 -0.0039
  336TIP3    H122499   2.227   5.580   1.866  1.4046 -0.1319  0.3034
  336TIP3    H222500   2.289   5.657   1.752 -0.3116  1.8878  0.6978
  337TIP3   OH222501   4.102   4.628   5.253  0.1854  0.4342 -0.3644
  337TIP3    H122502   4.110   4.623   5.349 -0.7709 -0.0763 -0.2985
  337TIP3    H222503   4.102   4.537   5.225  1.9466  0.6199 -0.9940
  338TIP3   OH222504   5.449   3.754  12.640  1.4125  0.3889 -0.2728
  338TIP3    H122505   5.491   3.779  12.558  1.1120 -0.1680 -0.5966
  338TIP3    H222506   5.358   3.786  12.631  1.0914 -0.6146 -0.5942
  339TIP3   OH222507   1.485   4.420   6.281  0.1238 -0.1293 -0.4306
  339TIP3    H122508   1.430   4.403   6.358 -1.3447 -1.1852 -1.6861
  339TIP3    H222509   1.427   4.405   6.206  0.5532  4.2399 -1.7594
  340TIP3   OH222510   0.033   3.377   3.596  0.2480  0.4033  0.1884
  340TIP3    H122511   0.053   3.290   3.561  0.5701 -0.0873  1.5471
  340TIP3    H222512  -0.036   3.361   3.661 -1.5166  1.5095 -1.3828
  341TIP3   OH222513   4.420   2.197  15.764 -0.0675  0.0000 -0.3789
  341TIP3    H122514   4.364   2.139  15.815 -0.5237  0.5065 -0.3016
  341TIP3    H222515   4.364   2.227  15.692  0.1501  0.3854 -0.3875
  342TIP3   OH222516   4.716   0.788   0.307  0.1796  0.1024 -0.2522
  342TIP3    H122517   4.777   0.858   0.283  0.0819  0.3121  0.0965
  342TIP3    H222518   4.770   0.725   0.356 -0.0809  0.7673  0.9092
  343TIP3   OH222519   4.203   0.337  11.964  0.4973  0.2124  0.5599
  343TIP3    H122520   4.213   0.412  12.022  1.1799  0.2406  0.4074
  343TIP3    H222521   4.113   0.344  11.931  0.8885  1.5377 -0.2624
  344TIP3   OH222522   6.318   1.592   3.238  0.3910 -0.2222  0.0582
  344TIP3    H122523   6.290   1.531   3.170  2.2495 -0.1300 -0.8048
  344TIP3    H222524   6.279   1.676   3.213 -0.4978 -0.6004  0.1516
  345TIP3   OH222525   0.438   5.314  12.918 -0.2565 -0.0007  0.0166
  345TIP3    H122526   0.372   5.350  12.859  0.2512  0.0788 -0.5095
  345TIP3    H222527   0.405   5.333  13.006  0.5402  2.7577 -0.2482
  346TIP3   OH222528   1.767   2.425   5.050  0.5696  0.3501 -0.3679
  346TIP3    H122529   1.810   2.476   5.119 -0.1173  0.7543 -0.2409
  346TIP3    H222530   1.746   2.341   5.092  1.9432 -0.1607 -0.6534
  347TIP3   OH222531   1.980   0.151   3.833  0.3684  0.1004  0.6894
  347TIP3    H122532   2.031   0.082   3.791 -1.5400 -0.2094 -1.2050
  347TIP3    H222533   2.008   0.232   3.789  0.1249  0.0984  0.5331
  348TIP3   OH222534   0.334   2.904   5.884 -0.0434  0.2223 -0.2262
  348TIP3    H122535   0.304   2.845   5.815 -2.1171  1.1331 -0.1404
  348TIP3    H222536   0.272   2.891   5.956  0.9040  0.7677  0.7162
  349TIP3   OH222537   5.720   2.597  15.889  1.0441  0.2848  0.3183
  349TIP3    H122538   5.691   2.538  15.958 -1.9119 -0.0537 -1.1165
  349TIP3    H222539   5.734   2.540  15.813  0.8228  1.0679 -0.3241
  350TIP3   OH222540   3.493   4.903   1.975 -0.0430  0.1393 -0.2760
  350TIP3    H122541   3.444   4.879   2.053 -1.0919  0.6722 -0.7553
  350TIP3    H222542   3.584   4.877   1.993 -0.5675 -1.1505  0.4831
  351TIP3   OH222543   0.600   6.084  11.743  0.5477  0.8237  0.3969
  351TIP3    H122544   0.509   6.068  11.719  0.0751  1.9222  1.4461
  351TIP3    H222545   0.646   6.004  11.716 -0.9510 -0.3005  1.1102
  352TIP3   OH222546   1.107   2.535  13.221 -0.5740  0.0011 -0.0014
  352TIP3    H122547   1.198   2.518  13.196 -0.0451  0.6416  1.4603
  352TIP3    H222548   1.062   2.551  13.138  1.3460  3.0394 -0.5195
  353TIP3   OH222549   1.594   5.788  14.177 -0.0819 -0.1842  0.1656
  353TIP3    H122550   1.538   5.715  14.204 -0.0601 -0.5097 -0.6563
  353TIP3    H222551   1.649   5.805  14.253 -2.6460  1.4503  1.7239
  354TIP3   OH222552   1.993   2.243   0.595  0.3445  0.2570 -0.1193
  354TIP3    H122553   2.075   2.200   0.618 -0.0261  0.0650  0.8664
  354TIP3    H222554   1.936   2.227   0.670 -1.0418 -0.7894 -1.3636
  355TIP3   OH222555   3.082   4.447  13.633 -0.0455  0.0754 -0.6917
  355TIP3    H122556   3.020   4.379  13.655 -0.0971 -0.7419 -3.1681
  355TIP3    H222557   3.056   4.476  13.545  0.7324  2.4174 -0.2082
  356TIP3   OH222558   0.686   2.127  14.395 -0.0765 -0.1602 -0.7824
  356TIP3    H122559   0.670   2.219  14.417  1.0913 -0.3108  0.7800
  356TIP3    H222560   0.745   2.129  14.320 -1.6589  0.3507 -2.0554
  357TIP3   OH222561   3.764   1.981   4.332 -0.7435  0.2861  0.0300
  357TIP3    H122562   3.718   2.000   4.413 -0.0438 -0.6129  0.6466
  357TIP3    H222563   3.699   1.995   4.263 -1.1056  1.8432  0.6765
  358TIP3   OH222564   1.402   6.388   4.501 -0.2728  0.6650  0.1256
  358TIP3    H122565   1.361   6.411   4.418  0.7036  0.9628 -0.2763
  358TIP3    H222566   1.334   6.339   4.549 -1.9971  3.3845  0.5502
  359TIP3   OH222567   1.839   6.507   1.514  0.5139 -0.2144 -0.2143
  359TIP3    H122568   1.900   6.548   1.453  1.6292  0.5032  1.3427
  359TIP3    H222569   1.891   6.439   1.557  0.1088  0.0876  0.7777
  360TIP3   OH222570   0.766   5.887   3.511 -0.1656  0.0175  0.1807
  360TIP3    H122571   0.718   5.957   3.467  0.1287  1.1854  1.6688
  360TIP3    H222572   0.858   5.905   3.493 -0.0489  0.4471  1.1703
  361TIP3   OH222573   2.386   1.952  10.916 -0.0615  0.0777  0.3664
  361TIP3    H122574   2.478   1.949  10.891 -0.5663 -0.8538 -1.4660
  361TIP3    H222575   2.386   1.944  11.011  1.7501  0.0705  0.3708
  362TIP3   OH222576   4.390   1.697  12.966  0.2899 -0.1754  0.7909
  362TIP3    H122577   4.442   1.647  12.902  0.4960  0.8141  0.1787
  362TIP3    H222578   4.411   1.656  13.050  0.0828 -1.4371  0.2446
  363TIP3   OH222579   4.214   4.920  15.685 -0.8508  0.2886  0.0601
  363TIP3    H122580   4.126   4.904  15.718 -1.0526  1.3315  0.0395
  363TIP3    H222581   4.271   4.904  15.760 -1.0952  0.0600  0.1966
  364TIP3   OH222582   2.372   0.498  13.401  0.6446  0.2424  0.0879
  364TIP3    H122583   2.378   0.592  13.387  1.3523  0.0620 -0.8302
  364TIP3    H222584   2.296   0.488  13.459 -0.9951  1.1716 -1.8118
  365TIP3   OH222585   0.218   2.341   3.625  0.1787 -0.3179  0.1160
  365TIP3    H122586   0.165   2.261   3.629 -0.9728  0.4524  0.3654
  365TIP3    H222587   0.242   2.358   3.716 -0.6754  0.3453  0.2214
  366TIP3   OH222588   3.027   4.319   3.445 -0.1524 -0.2336  0.2165
  366TIP3    H122589   3.096   4.294   3.384  0.8213 -0.1873  1.2951
  366TIP3    H222590   3.002   4.407   3.418  0.7714  0.0626  0.3275
  367TIP3   OH222591   5.413   1.273  15.420  0.0562  0.5895  0.4576
  367TIP3    H122592   5.348   1.342  15.433  1.8614  2.5344 -0.4120
  367TIP3    H222593   5.495   1.311  15.452  1.8074  0.2660 -3.3477
  368TIP3   OH222594   5.675   5.128  13.106 -0.0248  0.0538 -0.0809
  368TIP3    H122595   5.602   5.073  13.135 -0.5629  2.2137  2.8773
  368TIP3    H222596   5.634   5.197  13.054  0.2635 -0.4306 -0.9543
  369TIP3   OH222597   5.426   4.438  13.889  0.3597  0.0018  0.1649
  369TIP3    H122598   5.520   4.454  13.875 -0.0939  1.6604 -1.2492
  369TIP3    H222599   5.422   4.353  13.931  2.4635 -0.5562 -0.6763
  370TIP3   OH222600   0.789   6.264  15.193  0.0929  0.0112 -0.1219
  370TIP3    H122601   0.751   6.214  15.121 -1.6913  0.5675  0.3972
  370TIP3    H222602   0.751   6.352  15.184  2.0894  0.8965 -0.1858
  371TIP3   OH222603   6.156   5.580  14.579 -0.2681  0.4272  0.0565
  371TIP3    H122604   6.155   5.628  14.662  0.1924  1.8168 -0.7421
  371TIP3    H222605   6.176   5.490  14.604  1.0282  1.0599  1.3488
  372TIP3   OH222606   1.994   2.163  14.094  0.1655 -0.5502 -0.4055
  372TIP3    H122607   1.907   2.134  14.119  0.0557 -0.3670 -0.5751
  372TIP3    H222608   2.048   2.146  14.171 -0.4247  1.1868  0.4117
  373TIP3   OH222609   2.796   4.205   1.712  0.3503 -0.2525 -0.0358
  373TIP3    H122610   2.729   4.249   1.659 -0.1627 -1.3498 -0.3133
  373TIP3    H222611   2.839   4.144   1.651  1.9795  0.8284  0.0032
  374TIP3   OH222612   0.584   0.444   1.821 -0.2110  0.1692 -0.1081
  374TIP3    H122613   0.498   0.480   1.840 -0.0267  0.7159 -0.2899
  374TIP3    H222614   0.602   0.383   1.893  0.3642  2.0016  1.3523
  375TIP3   OH222615   1.766   1.533   6.272  0.1005 -0.0378  0.2924
  375TIP3    H122616   1.758   1.586   6.352  0.4738  1.7346 -0.8060
  375TIP3    H222617   1.841   1.476   6.289 -1.3876 -1.4829  2.1808
  376TIP3   OH222618   4.102   3.040  11.587  0.3342 -0.4489 -0.5520
  376TIP3    H122619   4.179   3.021  11.533  2.2678  0.9791  1.6243
  376TIP3    H222620   4.042   2.969  11.567  2.6293 -2.1962 -1.5420
  377TIP3   OH222621   2.753   6.213  12.569  0.1787 -0.7600 -0.3095
  377TIP3    H122622   2.836   6.238  12.527 -0.2306 -0.6857 -1.0864
  377TIP3    H222623   2.697   6.187  12.496 -0.8796  0.3414  0.0933
  378TIP3   OH222624   2.026   5.657   5.502  0.7198 -0.1435  0.0549
  378TIP3    H122625   2.026   5.712   5.581  0.4637  2.0233 -1.4125
  378TIP3    H222626   1.934   5.635   5.488  0.9136 -1.7908  1.1691
  379TIP3   OH222627   3.434   2.508   0.154  0.3019 -0.1689 -0.6887
  379TIP3    H122628   3.404   2.469   0.237  0.0380  0.5847 -0.4278
  379TIP3    H222629   3.528   2.491   0.153  0.5395  0.9435  0.3961
  380TIP3   OH222630   0.934   6.408   1.175  0.4255 -0.3582 -0.5368
  380TIP3    H122631   0.901   6.330   1.130 -0.8834 -1.2916  1.9947
  380TIP3    H222632   1.028   6.391   1.185  0.5018 -0.7083 -1.7235
  381TIP3   OH222633   3.471   5.840  14.937 -0.1306  0.1110 -0.3162
  381TIP3    H122634   3.531   5.765  14.929  1.1356  1.1818 -1.1360
  381TIP3    H222635   3.391   5.811  14.893 -0.2972 -1.3818  0.8900
  382TIP3   OH222636   5.813   4.721  15.212 -0.0983 -0.0895  0.0909
  382TIP3    H122637   5.810   4.656  15.142  0.1239 -1.3140  1.1822
  382TIP3    H222638   5.827   4.804  15.168 -0.8551 -0.7196 -1.3793
  383TIP3   OH222639   3.495   2.172   1.251 -0.4431  0.0665 -0.3547
  383TIP3    H122640   3.510   2.266   1.254  2.0295 -0.3010 -0.3995
  383TIP3    H222641   3.497   2.150   1.158  0.6031 -0.2776 -0.2505
  384TIP3   OH222642   4.831   6.283   4.038  0.3907 -0.7447 -0.3506
  384TIP3    H122643   4.859   6.298   3.947  2.0720  0.3359  0.3255
  384TIP3    H222644   4.912   6.286   4.089 -0.7080  0.2825  1.3936
  385TIP3   OH222645   2.233   3.196  13.638 -0.4600 -0.6559  0.4593
  385TIP3    H122646   2.146   3.232  13.625 -0.0450 -0.7799 -3.0544
  385TIP3    H222647   2.287   3.237  13.570  2.5320  0.3387  3.3052
  386TIP3   OH222648   0.059   4.178  13.184  0.0640 -0.6756  0.5300
  386TIP3    H122649   0.065   4.127  13.103  1.8994 -0.2723  0.3860
  386TIP3    H222650   0.024   4.263  13.156 -0.4814 -0.9639  0.3440
  387TIP3   OH222651   1.104   1.204  17.247 -0.2400 -0.3363 -0.3076
  387TIP3    H122652   1.058   1.159  17.319  2.4379 -1.1066  0.9772
  387TIP3    H222653   1.093   1.297  17.267  3.8122 -0.5105  3.4408
  388TIP3   OH222654   6.806   0.734  17.044 -0.6063 -0.3166 -0.0502
  388TIP3    H122655   6.767   0.809  16.998  1.0161  0.0860 -0.8309
  388TIP3    H222656   6.747   0.662  17.026 -1.3966  0.4475 -0.5784
  389TIP3   OH222657   2.099   6.137   2.922 -0.2170 -0.7967 -0.3886
  389TIP3    H122658   2.009   6.145   2.891 -0.3057  1.0693  0.2720
  389TIP3    H222659   2.139   6.222   2.902  1.5715 -1.8068 -1.2204
  390TIP3   OH222660   4.461   0.098   5.014  0.0734 -0.3250  0.3226
  390TIP3    H122661   4.459   0.192   4.994  0.3267 -0.1227  1.2025
  390TIP3    H222662   4.404   0.089   5.091  0.1911 -0.8614  0.3493
  391TIP3   OH222663   5.954   1.677   1.682  0.2418  0.2792 -0.5262
  391TIP3    H122664   5.956   1.702   1.775 -0.0742 -1.6728  0.0125
  391TIP3    H222665   6.044   1.654   1.661 -0.1072 -1.6082 -0.0395
  392TIP3   OH222666   5.176   3.552  16.134  0.9444 -0.5591  0.1536
  392TIP3    H122667   5.193   3.547  16.228  0.9021 -0.5031  0.1644
  392TIP3    H222668   5.108   3.486  16.118 -0.0867  0.4143  0.4079
  393TIP3   OH222669   1.165   4.727   0.374 -0.1174 -0.1485  1.0520
  393TIP3    H122670   1.118   4.644   0.363 -0.7238  0.4817 -1.4069
  393TIP3    H222671   1.142   4.755   0.463 -1.0044 -1.9297  1.4176
  394TIP3   OH222672   0.327   2.250  16.755 -0.0533  0.3045 -0.5227
  394TIP3    H122673   0.392   2.292  16.698  0.4023 -1.8949 -1.6934
  394TIP3    H222674   0.270   2.202  16.695 -0.8528 -0.3252  0.7186
  395TIP3   OH222675   1.907   4.844  15.262 -0.7070 -0.5554  0.0242
  395TIP3    H122676   1.867   4.931  15.256  1.0612  0.2253 -0.7058
  395TIP3    H222677   1.902   4.822  15.355 -0.7754  0.5292  0.2929
  396TIP3   OH222678   5.377   2.678  16.965  0.0201  0.3857 -0.1359
  396TIP3    H122679   5.416   2.654  16.881 -1.3897  0.1853 -0.7516
  396TIP3    H222680   5.302   2.733  16.941 -0.7619 -0.1933  0.9555
  397TIP3   OH222681   5.421   0.991   1.188 -0.5266 -0.2424 -0.4615
  397TIP3    H122682   5.384   1.079   1.176  0.3368  0.0818 -0.7405
  397TIP3    H222683   5.511   1.005   1.215 -0.0946 -1.0410 -1.4331
  398TIP3   OH222684   3.441   1.468  14.744  0.4117  0.4083 -0.0903
  398TIP3    H122685   3.482   1.542  14.699  1.0543  0.8787  1.2498
  398TIP3    H222686   3.490   1.459  14.826  1.1264 -2.2667 -0.7561
  399TIP3   OH222687   0.391   4.706  13.248  0.1154 -0.7593  0.2835
  399TIP3    H122688   0.452   4.775  13.221 -1.5601  0.8475  0.5214
  399TIP3    H222689   0.399   4.702  13.343 -0.0182 -0.6964  0.2964
  400TIP3   OH222690   2.225   2.708   0.606 -0.0810  0.3904  0.4777
  400TIP3    H122691   2.138   2.737   0.633 -0.3953  0.1735 -0.2787
  400TIP3    H222692   2.248   2.639   0.668 -1.4483 -1.1737 -0.7128
  401TIP3   OH222693   3.750   3.099  11.682  0.4410  0.1868 -0.3147
  401TIP3    H122694   3.677   3.091  11.743  1.0417  1.5261  0.6256
  401TIP3    H222695   3.734   3.183  11.638  2.4069  1.4503  1.2991
  402TIP3   OH222696   6.724   0.458  11.361  0.2548  0.3917  0.4449
  402TIP3    H122697   6.711   0.522  11.290  1.7449 -1.1490 -1.2652
  402TIP3    H222698   6.815   0.470  11.388 -0.0442  0.3436  1.4999
  403TIP3   OH222699   6.271   2.780   3.255 -0.7501  0.4575  0.1673
  403TIP3    H122700   6.241   2.871   3.255 -0.9196  0.4027  0.1683
  403TIP3    H222701   6.195   2.731   3.286 -1.1580  0.1401 -1.3415
  404TIP3   OH222702   1.166   4.249  11.881 -0.1693  0.0906 -0.3621
  404TIP3    H122703   1.234   4.263  11.947  0.7625  1.7019 -1.6403
  404TIP3    H222704   1.177   4.321  11.819 -2.4666 -0.1401 -1.0862
  405TIP3   OH222705   5.208   1.680   4.488  0.3051  0.2400 -0.4864
  405TIP3    H122706   5.192   1.705   4.396  0.0472 -2.0520 -1.0884
  405TIP3    H222707   5.263   1.602   4.482  1.3082  0.7958  1.3547
  406TIP3   OH222708   6.437   2.078   2.122 -0.1567  0.2257  0.2663
  406TIP3    H122709   6.482   2.126   2.052 -0.6734  1.0143  0.4712
  406TIP3    H222710   6.506   2.027   2.164 -0.0898 -1.4046 -1.7705
  407TIP3   OH222711   5.746   2.479   6.649  0.0789  0.3167  0.3190
  407TIP3    H122712   5.791   2.548   6.601 -3.8363  0.5147 -3.3685
  407TIP3    H222713   5.695   2.525   6.715  1.7237  0.4450  1.5245
  408TIP3   OH222714   1.790   2.496  11.290  0.1985  0.2525 -0.0162
  408TIP3    H122715   1.864   2.540  11.331  1.3074 -1.2096 -0.4034
  408TIP3    H222716   1.798   2.515  11.197  0.7600 -0.8454 -0.2029
  409TIP3   OH222717   3.440   6.390   1.409 -0.3977 -0.2407  0.3869
  409TIP3    H122718   3.469   6.332   1.338 -1.9488 -0.3477 -0.1835
  409TIP3    H222719   3.408   6.468   1.363 -1.3888 -0.3020  0.9840
  410TIP3   OH222720   4.880   4.916  13.937 -0.0225 -0.2931  0.6248
  410TIP3    H122721   4.872   4.891  13.846  0.5204  1.4073  0.0920
  410TIP3    H222722   4.845   4.841  13.986  2.2175 -2.3754 -0.8512
  411TIP3   OH222723   5.440   5.871   4.430 -0.6037  0.1023  0.3743
  411TIP3    H122724   5.372   5.884   4.495  1.9413  2.2281  2.7594
  411TIP3    H222725   5.498   5.805   4.468 -1.9473 -2.6526 -2.2001
  412TIP3   OH222726   1.841   0.190  13.864  0.4381  0.2807  0.0070
  412TIP3    H122727   1.880   0.187  13.777 -0.7066  1.4644 -0.5622
  412TIP3    H222728   1.757   0.144  13.853  1.3647 -1.7344  1.0785
  413TIP3   OH222729   6.760   2.724   5.924 -0.2954 -0.0701  0.5001
  413TIP3    H122730   6.742   2.743   6.017  0.2983 -0.0219  0.6056
  413TIP3    H222731   6.855   2.734   5.916 -0.2597 -0.7941  0.0473
  414TIP3   OH222732   1.998   1.544  13.399  0.4838 -0.3126 -0.3585
  414TIP3    H122733   1.992   1.639  13.403  0.5412 -0.2972 -0.6127
  414TIP3    H222734   2.077   1.522  13.447 -0.8921 -0.4223  1.9247
  415TIP3   OH222735   0.993   1.275  15.268 -0.4961 -0.5827  0.0666
  415TIP3    H122736   1.072   1.315  15.233 -0.9428  1.2513  1.1029
  415TIP3    H222737   1.025   1.198  15.315  0.6348 -0.0592  0.1785
  416TIP3   OH222738   3.487   1.039  11.867  0.0692 -0.0103 -0.3374
  416TIP3    H122739   3.539   0.971  11.825 -1.4822 -1.6612  0.3850
  416TIP3    H222740   3.467   1.005  11.954  1.3809  2.4472  1.0084
  417TIP3   OH222741   2.854   2.665   2.674  0.0292 -0.0007 -0.3960
  417TIP3    H122742   2.903   2.604   2.730 -1.7687 -1.6243 -0.5402
  417TIP3    H222743   2.915   2.686   2.603  1.1567 -0.5780  0.3802
  418TIP3   OH222744   0.235   0.071  13.041  0.1621 -0.3638  0.7891
  418TIP3    H122745   0.188   0.037  13.117 -0.0689 -4.3594 -0.9747
  418TIP3    H222746   0.173   0.063  12.969  1.2365  0.9127 -0.2941
  419TIP3   OH222747   3.932   1.442   5.291 -0.2095 -0.5395 -0.3907
  419TIP3    H122748   3.959   1.386   5.218 -0.3556  0.1034 -0.9369
  419TIP3    H222749   3.979   1.524   5.277  2.3708 -1.5019  2.0569
  420TIP3   OH222750   0.067   2.632   5.354 -0.2049 -0.8441  0.6582
  420TIP3    H122751   0.134   2.681   5.307 -2.0795 -0.6194 -1.8730
  420TIP3    H222752   0.105   2.545   5.366  0.6279 -0.6421 -0.4824
  421TIP3   OH222753   1.966   4.883  16.401  0.0510  0.4213 -0.2265
  421TIP3    H122754   1.925   4.897  16.486  0.6608 -1.2291  0.3510
  421TIP3    H222755   1.894   4.864  16.342 -0.0387 -3.4005  0.9734
  422TIP3   OH222756   6.275   4.383  10.441  0.2066  0.1007 -0.1024
  422TIP3    H122757   6.218   4.309  10.419 -0.9885  0.8298  0.4983
  422TIP3    H222758   6.353   4.342  10.480  0.4583 -0.9447 -1.6430
  423TIP3   OH222759   2.062   1.100   0.833 -0.7091 -0.0606 -0.3986
  423TIP3    H122760   1.989   1.040   0.819 -1.6968  1.0851 -0.2349
  423TIP3    H222761   2.047   1.136   0.920  0.1080  0.1094 -0.3235
  424TIP3   OH222762   3.056   5.237   3.559 -0.1817  0.2848 -0.2118
  424TIP3    H122763   3.003   5.204   3.632 -1.0282 -0.0892 -0.9802
  424TIP3    H222764   3.146   5.219   3.584 -0.6210 -3.0756 -0.8072
  425TIP3   OH222765   3.700   3.205  11.955  0.4059 -0.4435 -0.4624
  425TIP3    H122766   3.699   3.144  12.029  1.3311  0.9215  0.7122
  425TIP3    H222767   3.780   3.256  11.967 -0.3566  1.0150 -1.3921
  426TIP3   OH222768   4.232   2.380  16.051 -0.4479  0.6525 -0.3337
  426TIP3    H122769   4.228   2.465  16.009 -1.3812  0.5614 -0.4370
  426TIP3    H222770   4.199   2.396  16.140  1.3127  0.8051  0.3120
  427TIP3   OH222771   2.489   2.884  12.229  0.2040  1.1108 -0.3181
  427TIP3    H122772   2.422   2.869  12.162  0.4429  1.8591 -0.7386
  427TIP3    H222773   2.448   2.857  12.311  0.0142 -0.1161 -0.8044
  428TIP3   OH222774   0.309   1.876  15.349  0.2178 -0.7927  0.3363
  428TIP3    H122775   0.291   1.809  15.415  0.7275 -2.2845 -1.0017
  428TIP3    H222776   0.401   1.862  15.326  0.4724  0.7108  0.4097
  429TIP3   OH222777   5.511   5.447  14.525  0.1759 -0.0385  0.3394
  429TIP3    H122778   5.565   5.516  14.486  1.5311 -0.7507  0.9198
  429TIP3    H222779   5.512   5.466  14.618  1.0542 -1.1653  0.5735
  430TIP3   OH222780   6.728   3.365  14.752  0.3464 -0.4445  0.4323
  430TIP3    H122781   6.725   3.285  14.805  1.0584 -0.6279  0.2060
  430TIP3    H222782   6.809   3.408  14.779  0.9447 -0.7706 -0.8490
  431TIP3   OH222783   3.572   3.764   0.234  0.3115 -0.1282  0.6674
  431TIP3    H122784   3.613   3.817   0.166  1.1448 -1.7635 -0.1342
  431TIP3    H222785   3.516   3.703   0.187 -0.4136 -0.1782  1.5671
  432TIP3   OH222786   0.898   4.089  17.056  0.1724  0.1724 -0.3287
  432TIP3    H122787   0.932   4.157  17.114  0.7886  0.2209 -0.7317
  432TIP3    H222788   0.937   4.008  17.089  0.0893  0.1274 -0.3402
  433TIP3   OH222789   1.441   0.133   5.836 -0.0851  0.1942 -0.4075
  433TIP3    H122790   1.390   0.093   5.766  0.5959 -0.2451 -0.6531
  433TIP3    H222791   1.379   0.144   5.908 -0.0429 -2.2828  0.0432
  434TIP3   OH222792   3.912   0.652   1.394  0.0781 -0.2342 -0.3797
  434TIP3    H122793   3.998   0.651   1.352  0.5541  0.3640  0.5646
  434TIP3    H222794   3.863   0.721   1.348  0.3601 -0.0455 -0.3930
  435TIP3   OH222795   1.353   1.289  13.118 -0.3692 -0.3519 -0.3553
  435TIP3    H122796   1.348   1.364  13.059 -0.1604 -2.1761 -2.7576
  435TIP3    H222797   1.431   1.307  13.172 -0.0047  0.8765 -1.2611
  436TIP3   OH222798   6.077   2.120   4.136 -0.4375 -0.2143  0.3315
  436TIP3    H122799   6.015   2.068   4.086 -2.9552 -0.0134  3.1441
  436TIP3    H222800   6.024   2.185   4.181  2.1871  2.0695  0.2754
  437TIP3   OH222801   3.010   3.609   0.312 -0.6205  0.6096  0.0704
  437TIP3    H122802   3.086   3.654   0.350 -0.5062  1.9284 -1.6722
  437TIP3    H222803   3.036   3.517   0.308  1.0047  1.0910 -0.7850
  438TIP3   OH222804   5.034   4.700  13.036 -0.5996  0.0326 -0.2404
  438TIP3    H122805   5.095   4.773  13.033 -1.3332  0.6194 -1.2726
  438TIP3    H222806   5.070   4.635  12.976 -0.3346 -0.1438  0.1113
  439TIP3   OH222807   2.462   3.102   1.601 -0.2575  0.3063 -0.8051
  439TIP3    H122808   2.496   3.080   1.514  0.8519 -0.6659 -0.1471
  439TIP3    H222809   2.429   3.191   1.592 -0.9351 -0.0917 -2.4426
  440TIP3   OH222810   0.798   0.831   4.984  0.3462 -0.3747 -0.1769
  440TIP3    H122811   0.762   0.912   4.947  0.7559 -0.1475 -0.0752
  440TIP3    H222812   0.893   0.844   4.984  0.4365 -1.0363 -0.5791
  441TIP3   OH222813   3.323   0.011   6.246 -0.0441 -0.3945 -1.1134
  441TIP3    H122814   3.401  -0.044   6.251 -0.4776 -0.7674  3.1048
  441TIP3    H222815   3.344   0.087   6.300 -2.8907 -0.8993  0.7537
  442TIP3   OH222816   6.289   0.716  13.456 -0.5183 -0.4452 -0.3883
  442TIP3    H122817   6.364   0.776  13.459 -2.3721  2.0847 -2.4113
  442TIP3    H222818   6.307   0.658  13.382 -0.1627 -0.4119 -0.3307
  443TIP3   OH222819   4.864   4.735  15.466 -0.0121  0.5388 -0.6951
  443TIP3    H122820   4.792   4.743  15.529 -0.1979 -1.5628 -0.6165
  443TIP3    H222821   4.943   4.733  15.520 -0.1416 -0.8087 -0.5469
  444TIP3   OH222822   2.584   2.380  15.065  0.4821  0.5304  0.2127
  444TIP3    H122823   2.646   2.366  14.994 -0.3303 -0.9050 -0.2309
  444TIP3    H222824   2.562   2.292  15.096 -0.7115  1.0536  0.9000
  445TIP3   OH222825   2.387   1.664  14.151  0.2377  0.1356  0.2702
  445TIP3    H122826   2.375   1.571  14.133 -0.9725  0.2897  0.2596
  445TIP3    H222827   2.391   1.670  14.247 -0.5706  0.1737  0.3050
  446TIP3   OH222828   0.599   5.594   2.186  0.4358 -0.5522  0.3210
  446TIP3    H122829   0.649   5.662   2.231 -0.8461 -0.2120  1.2332
  446TIP3    H222830   0.633   5.512   2.224  2.4584 -0.4872 -1.2655
  447TIP3   OH222831   4.236   0.049  11.804 -0.1165 -0.5696  0.0671
  447TIP3    H122832   4.178   0.110  11.759 -0.3770  1.5549  3.1428
  447TIP3    H222833   4.321   0.061  11.762 -0.0831  2.2384  0.8500
  448TIP3   OH222834   4.120   2.740  15.223 -0.1122  0.3403 -0.4192
  448TIP3    H122835   4.184   2.744  15.293  0.4018  2.6432 -0.9858
  448TIP3    H222836   4.039   2.774  15.262 -0.4431 -0.5870 -0.2910
  449TIP3   OH222837   3.905   1.233   4.430  0.0925 -0.0065  0.6052
  449TIP3    H122838   3.812   1.214   4.442 -0.3523  0.7622 -1.5147
  449TIP3    H222839   3.946   1.147   4.425 -0.9052 -0.3803 -1.4376
  450TIP3   OH222840   6.414   5.361  14.475 -0.0117 -0.5024  0.2219
  450TIP3    H122841   6.505   5.331  14.470  0.5735  1.5684 -2.8068
  450TIP3    H222842   6.403   5.389  14.565  2.6656  0.1605  0.3805
  451TIP3   OH222843   3.283   0.989  12.409  0.5221  0.0933 -0.4349
  451TIP3    H122844   3.221   1.019  12.343 -0.3041  1.4816  0.9174
  451TIP3    H222845   3.227   0.952  12.478  1.4290 -2.8315 -1.1769
  452TIP3   OH222846   3.055   2.159  16.425  0.3375  0.3534 -0.5954
  452TIP3    H122847   2.962   2.166  16.403  0.2340  0.4459 -0.1316
  452TIP3    H222848   3.100   2.165  16.341 -0.1341 -0.8800 -0.9373
  453TIP3   OH222849   6.108   4.102  10.695 -0.0730 -0.1883 -0.1704
  453TIP3    H122850   6.146   4.139  10.775  1.7225 -0.1466 -1.0397
  453TIP3    H222851   6.095   4.009  10.715 -0.0935 -0.0753  0.3418
  454TIP3   OH222852   5.552   5.044   5.808  0.3835 -0.5661  0.1391
  454TIP3    H122853   5.638   5.057   5.769  1.0509 -0.2817  1.6592
  454TIP3    H222854   5.564   5.065   5.901 -1.3438 -0.4387  0.3579
  455TIP3   OH222855   0.395   2.600   0.463  0.1763  0.0407  0.0300
  455TIP3    H122856   0.448   2.585   0.385  0.0833  0.5786 -0.1330
  455TIP3    H222857   0.306   2.611   0.430 -0.2533 -2.0357  0.3841
  456TIP3   OH222858   4.833   5.646  14.443 -0.4142  0.0353  0.1121
  456TIP3    H122859   4.841   5.555  14.414  0.4843 -0.1628  0.9846
  456TIP3    H222860   4.858   5.645  14.535 -0.5195  1.1506  0.1644
  457TIP3   OH222861   3.894   2.644  14.281  0.1550 -0.0911  0.4784
  457TIP3    H122862   3.800   2.626  14.278  0.2161 -0.2704 -0.4523
  457TIP3    H222863   3.910   2.671  14.372 -1.4081  3.1342 -0.1054
  458TIP3   OH222864   4.726   0.022   4.982  0.3668  0.0365  0.2109
  458TIP3    H122865   4.743  -0.062   5.026  1.5032  0.5630  0.7954
  458TIP3    H222866   4.668   0.069   5.041  0.0444 -0.1843  0.0694
  459TIP3   OH222867   2.274   1.416  14.228  0.2329 -0.7450  0.3899
  459TIP3    H122868   2.216   1.416  14.152  1.4804  0.0923 -0.5811
  459TIP3    H222869   2.230   1.472  14.292  0.3418  0.5502 -0.6452
  460TIP3   OH222870   6.574   1.229  17.134  0.7107  0.3034 -0.4806
  460TIP3    H122871   6.521   1.260  17.061 -0.3903 -1.2848 -0.3760
  460TIP3    H222872   6.513   1.221  17.207  1.2309 -0.8579 -0.1604
  461TIP3   OH222873   0.896   1.759  13.187 -0.0868  0.2057 -0.1309
  461TIP3    H122874   0.972   1.749  13.131  0.2658 -2.5625  0.7305
  461TIP3    H222875   0.905   1.689  13.253 -1.4127  2.1863  2.2614
  462TIP3   OH222876   5.516   3.143  13.493  0.4710  0.1551 -0.4289
  462TIP3    H122877   5.429   3.171  13.466  0.0988  1.0465  1.5454
  462TIP3    H222878   5.507   3.050  13.515  0.0176  0.2370 -0.2730
  463TIP3   OH222879   3.711   5.084   2.375 -0.3818  0.0417  0.5140
  463TIP3    H122880   3.715   5.179   2.369  2.0166 -0.0803 -0.3841
  463TIP3    H222881   3.755   5.063   2.458 -0.0514 -0.3093  0.2559
  464TIP3   OH222882   2.327   6.631   4.389 -0.3806  0.4305  0.0030
  464TIP3    H122883   2.346   6.722   4.369 -1.4726  0.5787 -0.3808
  464TIP3    H222884   2.312   6.590   4.304  1.8980 -0.5283  0.0371
  465TIP3   OH222885   5.747   3.607   5.922  0.4428 -0.2883 -0.0880
  465TIP3    H122886   5.655   3.617   5.897 -0.0153 -2.2011  0.7145
  465TIP3    H222887   5.795   3.652   5.853 -1.0618  0.1352 -0.8975
  466TIP3   OH222888   3.381   5.896   1.465 -0.2781 -0.4986 -0.4483
  466TIP3    H122889   3.432   5.929   1.391  0.4866 -0.6684 -0.0145
  466TIP3    H222890   3.439   5.832   1.507 -0.5121 -0.0571  0.5610
  467TIP3   OH222891   6.160   5.818  14.265 -0.7780 -0.0749  0.1240
  467TIP3    H122892   6.195   5.879  14.331  0.4529  0.2101 -0.7876
  467TIP3    H222893   6.220   5.825  14.191 -1.8295 -0.8315 -0.8188
  468TIP3   OH222894   3.752   4.447   0.565 -0.2300  0.3647 -0.3427
  468TIP3    H122895   3.767   4.399   0.647 -1.8738  0.1332 -0.1702
  468TIP3    H222896   3.760   4.381   0.496  1.6161  0.6467 -0.4233
  469TIP3   OH222897   0.971   5.420  10.693 -0.6157 -0.1580 -0.3104
  469TIP3    H122898   1.054   5.389  10.656 -0.1025 -0.2237  0.8800
  469TIP3    H222899   0.919   5.340  10.706 -0.8089 -0.1306 -0.9164
  470TIP3   OH222900   6.274   0.433   0.312  0.0185  0.0182 -0.9211
  470TIP3    H122901   6.314   0.426   0.226  0.0941  0.7372 -0.9504
  470TIP3    H222902   6.344   0.407   0.373  0.5241  1.2045 -0.9763
  471TIP3   OH222903   0.625   6.404  14.679  0.1229  0.0765  0.2657
  471TIP3    H122904   0.646   6.487  14.638 -1.4631 -0.0487 -0.8495
  471TIP3    H222905   0.590   6.350  14.608 -0.1716 -1.0620  1.2554
  472TIP3   OH222906   3.091   3.993  12.504  0.1712  0.4787  0.5629
  472TIP3    H122907   3.048   3.910  12.523 -0.9224  1.3399  2.0072
  472TIP3    H222908   3.084   4.003  12.409 -2.3267  0.3059  0.6971
  473TIP3   OH222909   5.677   2.471  11.189 -0.0979 -0.1934  0.2837
  473TIP3    H122910   5.702   2.559  11.216  1.4719 -0.0300 -1.6221
  473TIP3    H222911   5.688   2.470  11.094 -1.7096 -1.9425  0.0667
  474TIP3   OH222912   1.229   4.826   3.240 -0.3013  0.0900  0.2941
  474TIP3    H122913   1.317   4.809   3.274 -0.4308 -0.4483  0.3690
  474TIP3    H222914   1.191   4.890   3.300  0.3544  0.9910 -0.2320
  475TIP3   OH222915   2.136   4.875  14.533  0.3150  0.5175  0.3492
  475TIP3    H122916   2.078   4.833  14.597  1.0033  0.4508  0.9417
  475TIP3    H222917   2.176   4.802  14.486  0.3259  0.5493  0.3108
  476TIP3   OH222918   2.204   0.049   0.305  0.1060  0.9037 -0.1527
  476TIP3    H122919   2.244   0.134   0.320 -0.7551  1.2964 -0.0716
  476TIP3    H222920   2.116   0.056   0.342  0.1309 -0.1181  0.1289
  477TIP3   OH222921   5.451   5.563  12.547 -0.4346 -0.1636 -0.4078
  477TIP3    H122922   5.486   5.488  12.501 -0.8190 -1.6231  1.6103
  477TIP3    H222923   5.392   5.526  12.612 -0.1242  1.8332  1.0606
  478TIP3   OH222924   4.282   4.243  14.569 -0.0789 -0.3090  0.1903
  478TIP3    H122925   4.246   4.263  14.656  0.1749  0.0207  0.2224
  478TIP3    H222926   4.218   4.279  14.508  0.6094  1.0777  0.2489
  479TIP3   OH222927   0.540   2.528   3.737  0.0922  0.0498  0.0690
  479TIP3    H122928   0.516   2.505   3.647 -0.3115  0.0412  0.1758
  479TIP3    H222929   0.529   2.623   3.741  0.0993  0.0488  0.1116
  480TIP3   OH222930   4.872   4.313  16.290  0.0428 -0.5375  0.3578
  480TIP3    H122931   4.944   4.293  16.349  0.7610  0.6730 -0.0959
  480TIP3    H222932   4.913   4.322  16.204 -0.6300  0.2200  0.1119
  481TIP3   OH222933   3.032   6.038  12.432 -0.2726  0.1668 -0.2377
  481TIP3    H122934   3.056   6.080  12.514 -0.2840 -3.5985  1.7739
  481TIP3    H222935   3.108   6.052  12.375  0.7373  0.7310  1.2228
  482TIP3   OH222936   3.094   5.840   1.254 -0.0025  0.3369  0.6818
  482TIP3    H122937   3.069   5.785   1.179  1.2415  0.8058 -0.0782
  482TIP3    H222938   3.142   5.781   1.312  0.4657  0.3833  0.3371
  483TIP3   OH222939   5.338   5.796  15.376  0.0377 -0.0031 -0.2904
  483TIP3    H122940   5.412   5.795  15.315 -0.7415 -1.6204 -1.2487
  483TIP3    H222941   5.267   5.839  15.327  0.3525  1.6414  0.6590
  484TIP3   OH222942   5.934   3.931   2.269  0.2712 -0.8441  0.1735
  484TIP3    H122943   5.902   3.841   2.270 -3.6207  0.4351  2.2576
  484TIP3    H222944   5.947   3.953   2.362  0.3043  0.9887 -0.2448
  485TIP3   OH222945   2.276   6.805  12.331 -1.1606 -0.0915  0.1818
  485TIP3    H122946   2.321   6.738  12.383 -0.2659 -0.1258 -0.6287
  485TIP3    H222947   2.196   6.823  12.380 -0.1249  0.2062  1.8099
  486TIP3   OH222948   5.056   5.543   3.483 -0.5214  1.0282 -0.5489
  486TIP3    H122949   4.966   5.555   3.513  0.0044  2.8959  0.3338
  486TIP3    H222950   5.100   5.499   3.556 -0.1176  2.3404  0.0010
  487TIP3   OH222951   1.155   0.041  14.389  0.0619 -0.6927 -0.1793
  487TIP3    H122952   1.108  -0.026  14.340 -1.9851  0.8960 -0.4538
  487TIP3    H222953   1.183   0.104  14.323 -1.5079  0.7403  0.4632
  488TIP3   OH222954   5.265   3.358   5.276 -0.1923  0.5128  0.1371
  488TIP3    H122955   5.265   3.440   5.227 -1.0319  0.1853 -0.4243
  488TIP3    H222956   5.191   3.309   5.240 -0.9113  0.3200  1.8293
  489TIP3   OH222957   2.323   6.083   2.218  0.1460 -0.2251  0.4743
  489TIP3    H122958   2.376   6.005   2.206 -0.4533 -0.5952  0.1899
  489TIP3    H222959   2.362   6.129   2.292 -0.1220 -1.3146  1.2952
  490TIP3   OH222960   2.423   5.765   0.791  0.2400 -0.2974 -1.1337
  490TIP3    H122961   2.359   5.751   0.720  1.1005  0.1494 -2.0085
  490TIP3    H222962   2.502   5.794   0.746 -0.3157  3.7513  0.2801
  491TIP3   OH222963   5.105   2.569  13.510 -0.2170 -0.1554  0.7386
  491TIP3    H122964   5.092   2.567  13.415  1.6275 -0.0347  0.4773
  491TIP3    H222965   5.062   2.650  13.537 -1.2924 -0.4886  0.1136
  492TIP3   OH222966   1.786   1.916  10.922  0.2668  0.2934  0.9509
  492TIP3    H122967   1.873   1.951  10.904 -0.7247  1.8846 -0.9823
  492TIP3    H222968   1.758   1.876  10.839 -0.6480 -0.6481  1.6918
  493TIP3   OH222969   4.062   1.718   0.572 -0.0929  0.0269  0.8338
  493TIP3    H122970   3.967   1.729   0.569 -0.2641 -1.4338  0.8099
  493TIP3    H222971   4.092   1.741   0.484 -0.5749 -0.8130  0.4447
  494TIP3   OH222972   2.153   1.368   0.362  0.4345  0.7341 -0.7427
  494TIP3    H122973   2.244   1.387   0.381  0.6154 -1.5161  0.9381
  494TIP3    H222974   2.106   1.390   0.443 -0.1580 -0.2097 -0.8100
  495TIP3   OH222975   0.877   5.697   1.097  0.2532 -0.2780  0.4965
  495TIP3    H122976   0.887   5.757   1.171 -1.1694 -0.1404  0.5929
  495TIP3    H222977   0.784   5.702   1.075  0.8682  0.5868 -2.0656
  496TIP3   OH222978   2.723   5.608   0.978 -0.2690  0.4752  0.1261
  496TIP3    H122979   2.749   5.559   0.900  0.6258  2.5955 -0.9537
  496TIP3    H222980   2.629   5.623   0.967  0.1983  2.4901 -1.6061
  497TIP3   OH222981   0.940   5.838  12.300 -0.5158  0.0110 -0.1033
  497TIP3    H122982   0.963   5.919  12.253 -0.5586 -0.5606 -1.1151
  497TIP3    H222983   0.966   5.856  12.390 -0.8269  1.2893 -0.2481
  498TIP3   OH222984   0.129   4.513  16.017  0.0370 -0.1552  0.0781
  498TIP3    H122985   0.145   4.479  16.105  0.9196  0.8302  0.3053
  498TIP3    H222986   0.039   4.487  15.997 -0.1393 -0.4368  1.2445
  499TIP3   OH222987   4.834   4.173  12.479  0.1605 -0.3997 -0.1307
  499TIP3    H122988   4.875   4.258  12.464  2.0799 -1.5405 -1.6587
  499TIP3    H222989   4.753   4.176  12.428  1.8268 -0.6276 -2.9111
  500TIP3   OH222990   6.731   1.345  13.001 -0.4558 -0.2546 -0.1184
  500TIP3    H122991   6.823   1.333  12.976 -0.8600  0.8618 -2.2423
  500TIP3    H222992   6.735   1.399  13.079  0.6959 -0.3018 -0.1273
  501TIP3   OH222993   2.794   3.950   2.576  0.2063 -0.2992  0.5561
  501TIP3    H122994   2.771   3.983   2.489  0.4564  1.1130  1.0055
  501TIP3    H222995   2.832   3.864   2.561  1.7841  0.6262 -0.8958
  502TIP3   OH222996   2.386   3.126  16.069  0.1488  0.2448  0.4271
  502TIP3    H122997   2.331   3.116  16.147 -1.6654  1.5881 -0.6377
  502TIP3    H222998   2.418   3.038  16.050 -1.7576 -0.5846  0.9924
  503TIP3   OH222999   2.208   3.011   0.693 -0.1557 -0.3361 -0.3972
  503TIP3    H123000   2.267   2.974   0.759 -1.4309  0.9654  1.5134
  503TIP3    H223001   2.210   3.105   0.709 -1.5712 -0.1388 -1.3059
  504TIP3   OH223002   0.664   4.996   3.382 -0.0207  0.4685 -0.3777
  504TIP3    H123003   0.613   4.947   3.317 -0.6257  0.5893 -0.0035
  504TIP3    H223004   0.755   4.977   3.361 -0.2224  0.2179 -1.0382
  505TIP3   OH223005   6.311   3.065   1.773 -0.4198 -0.2593 -0.5685
  505TIP3    H123006   6.297   3.146   1.822 -2.4915 -0.2264 -1.1488
  505TIP3    H223007   6.289   3.088   1.682 -1.2143 -1.5031 -0.7067
  506TIP3   OH223008   2.523   2.050  13.614 -0.6731 -0.7128  0.3150
  506TIP3    H123009   2.444   1.998  13.601 -1.0483  0.4324 -2.2093
  506TIP3    H223010   2.491   2.137  13.636 -0.0988 -0.4661  0.1749
  507TIP3   OH223011   1.199   1.518   1.702 -0.3806  0.0906 -0.6154
  507TIP3    H123012   1.195   1.605   1.741 -1.3271 -0.8908  1.5482
  507TIP3    H223013   1.292   1.495   1.705 -0.3011  0.4821  0.0498
  508TIP3   OH223014   1.623   5.855   4.070  0.0037  0.0962  0.1377
  508TIP3    H123015   1.718   5.855   4.055  0.0207  1.2629  0.2515
  508TIP3    H223016   1.601   5.946   4.089 -0.9508 -0.3701  1.3592
  509TIP3   OH223017   6.710   6.580   4.848  0.1143  0.3197  0.4379
  509TIP3    H123018   6.710   6.654   4.787  1.1879  1.3111  1.6132
  509TIP3    H223019   6.801   6.554   4.855 -0.0513 -0.0749  1.2560
  510TIP3   OH223020   1.103   1.241  11.227 -0.0745  0.3824 -0.6318
  510TIP3    H123021   1.187   1.280  11.201  1.0764 -2.2993 -1.1339
  510TIP3    H223022   1.065   1.304  11.289  1.3248  2.6188 -1.9949
  511TIP3   OH223023   2.216   3.987  14.966 -0.1796 -0.7799  0.2108
  511TIP3    H123024   2.162   4.064  14.983 -0.1964 -0.8100  0.2967
  511TIP3    H223025   2.305   4.022  14.956 -0.4409 -0.5717 -1.4488
  512TIP3   OH223026   5.595   0.292  11.991  0.2382  0.3318  0.0130
  512TIP3    H123027   5.663   0.267  12.054 -1.0971 -0.1762  1.2713
  512TIP3    H223028   5.552   0.210  11.967 -0.4843  0.7473 -0.1423
  513TIP3   OH223029   1.326   5.222   1.078  0.8553 -1.0382 -0.6873
  513TIP3    H123030   1.326   5.170   0.997  0.7562 -0.9943 -0.7154
  513TIP3    H223031   1.234   5.245   1.092  0.9667 -0.4120 -0.9761
  514TIP3   OH223032   0.867   3.212   0.997 -0.5240 -0.3576  0.0476
  514TIP3    H123033   0.791   3.242   1.048  2.0409  2.8957  2.1639
  514TIP3    H223034   0.929   3.180   1.063  0.4254 -1.9239 -1.5624
  515TIP3   OH223035   6.426   6.490  15.338 -0.0513  1.1923 -0.4741
  515TIP3    H123036   6.366   6.526  15.402  0.6499  1.5485 -0.0092
  515TIP3    H223037   6.390   6.405  15.315 -0.7496  1.4256 -0.2287
  516TIP3   OH223038   3.019   3.575   2.875  0.0165  0.2457  0.1856
  516TIP3    H123039   3.038   3.522   2.797  0.7077  1.0895 -0.2269
  516TIP3    H223040   2.939   3.535   2.912 -1.6284  1.2041 -2.2051
  517TIP3   OH223041   4.063   2.548   1.221  0.1354 -0.1791 -0.0838
  517TIP3    H123042   4.012   2.623   1.251 -0.0669 -0.4099  0.1623
  517TIP3    H223043   4.146   2.584   1.191  0.4068  0.0364  0.9125
  518TIP3   OH223044   0.941   3.225  13.567 -0.2785  0.0216  0.3578
  518TIP3    H123045   0.952   3.208  13.473 -1.8531  1.1127 -0.0502
  518TIP3    H223046   0.852   3.261  13.574 -1.0389 -2.2124  2.5609
  519TIP3   OH223047   6.375   1.155   0.017  0.3733 -0.4193 -0.7170
  519TIP3    H123048   6.365   1.108   0.100  3.1186  0.6368  0.2867
  519TIP3    H223049   6.313   1.227   0.022  1.0313  0.0680  0.7775
  520TIP3   OH223050   2.914   3.623  13.961 -1.0674  0.1375  0.1270
  520TIP3    H123051   2.833   3.572  13.962 -1.4499  0.7225 -0.5346
  520TIP3    H223052   2.951   3.611  14.049 -2.4709  0.8217  0.8360
  521TIP3   OH223053   0.903   5.920   1.653  0.7140 -1.0503  0.6257
  521TIP3    H123054   0.826   5.893   1.603 -0.4189  1.0355  1.1930
  521TIP3    H223055   0.956   5.840   1.660 -2.1951 -2.9814  1.6961
  522TIP3   OH223056   0.596   0.745   0.850  0.2023  0.0575 -0.3355
  522TIP3    H123057   0.528   0.738   0.784  0.7199 -0.5290 -0.8164
  522TIP3    H223058   0.668   0.791   0.807  0.1694  0.5509  0.1249
  523TIP3   OH223059   3.422   1.849   5.699 -0.1531  0.3672  0.6432
  523TIP3    H123060   3.380   1.763   5.703 -0.6182  0.6037  0.8652
  523TIP3    H223061   3.398   1.892   5.782 -1.5567  1.4536 -0.2819
  524TIP3   OH223062   4.164   5.283  10.660  0.4312 -0.6326  0.8286
  524TIP3    H123063   4.122   5.241  10.735  0.2830 -0.1739  1.0020
  524TIP3    H223064   4.131   5.372  10.661  0.2476 -0.6942  0.0718
  525TIP3   OH223065   2.075   3.068   1.496 -0.1667 -0.0027  0.2280
  525TIP3    H123066   2.108   3.046   1.583  0.9412 -2.3315 -0.7342
  525TIP3    H223067   2.123   3.147   1.471  0.7506 -0.2968  1.0355
  526TIP3   OH223068   6.489   6.302  17.133  0.2332 -0.1817 -0.2001
  526TIP3    H123069   6.432   6.266  17.200 -0.2366  1.0238  0.0669
  526TIP3    H223070   6.446   6.281  17.050 -0.8533  1.1060  0.0146
  527TIP3   OH223071   2.290   6.323   5.019  0.6843 -0.2576 -0.0335
  527TIP3    H123072   2.335   6.246   4.986  1.1102 -0.6204  1.3637
  527TIP3    H223073   2.202   6.319   4.980  0.3031 -2.0905  0.9964
  528TIP3   OH223074   5.171   3.514  14.760  0.0529 -0.0726 -0.7474
  528TIP3    H123075   5.118   3.564  14.822  0.0372  1.9690 -2.3685
  528TIP3    H223076   5.231   3.463  14.815 -0.7103  0.8525  0.9674
  529TIP3   OH223077   4.979   5.790  14.245  0.1802 -0.6576  0.1734
  529TIP3    H123078   4.910   5.748  14.194  0.8448 -2.0133  0.3720
  529TIP3    H223079   4.983   5.740  14.327  1.7129 -0.8962 -0.0334
  530TIP3   OH223080   4.872   1.168  16.640 -0.3791 -0.2441 -0.1868
  530TIP3    H123081   4.833   1.119  16.713 -1.1161  0.0339 -0.3923
  530TIP3    H223082   4.904   1.100  16.580 -0.4144 -0.4733  0.0548
  531TIP3   OH223083   6.511   3.213  11.805 -0.5268 -0.7135  0.5149
  531TIP3    H123084   6.554   3.156  11.868  0.4487 -0.9972 -0.3827
  531TIP3    H223085   6.438   3.161  11.770 -0.6989 -0.7705  0.9627
  532TIP3   OH223086   3.727   0.740   2.810  0.1720 -0.6095 -0.7013
  532TIP3    H123087   3.785   0.792   2.754 -0.7803 -0.0994 -1.2534
  532TIP3    H223088   3.784   0.700   2.875  1.0101  0.6094 -0.6756
  533TIP3   OH223089   6.693   6.244  13.735 -0.0682 -0.3872 -1.0577
  533TIP3    H123090   6.715   6.330  13.700 -1.3144  0.2200 -0.4166
  533TIP3    H223091   6.735   6.182  13.676  2.0803  0.6672 -0.6856
  534TIP3   OH223092   6.194   2.285   2.892 -0.1542  0.2818 -0.4261
  534TIP3    H123093   6.267   2.341   2.916 -0.7176  1.1680 -0.7605
  534TIP3    H223094   6.145   2.335   2.826 -1.0960 -0.2683 -0.1648
  535TIP3   OH223095   0.702   3.537   3.108  0.5059  0.4722  0.3176
  535TIP3    H123096   0.705   3.515   3.201 -0.5922  0.7045  0.4153
  535TIP3    H223097   0.776   3.596   3.094  0.1266  1.1695  1.2406
  536TIP3   OH223098   3.872   0.007  12.297  0.3500 -0.1134  0.1647
  536TIP3    H123099   3.926  -0.036  12.231 -1.2278 -1.1212 -0.5071
  536TIP3    H223100   3.873   0.099  12.273 -1.2442 -0.6365 -2.0646
  537TIP3   OH223101   4.609   2.633  16.037 -0.0631 -0.5822 -0.1743
  537TIP3    H123102   4.603   2.538  16.029  0.7662 -0.7122  0.6182
  537TIP3    H223103   4.703   2.650  16.043 -0.1971  0.3104 -0.6092
  538TIP3   OH223104   5.998   2.477   4.995  0.2614 -0.4964  0.4357
  538TIP3    H123105   6.092   2.490   5.010  0.1253  2.0411 -0.5341
  538TIP3    H223106   5.959   2.477   5.083  1.0253 -0.1294  0.7794
  539TIP3   OH223107   0.818   6.290   5.271  1.0710  0.1501 -0.2252
  539TIP3    H123108   0.896   6.238   5.249  1.6136  1.4465 -1.4258
  539TIP3    H223109   0.852   6.367   5.316  0.4728  0.6784 -0.6670
  540TIP3   OH223110   0.023   1.124   5.252  0.4430  0.6145  0.2006
  540TIP3    H123111   0.092   1.184   5.224  0.6754  0.9326  1.4090
  540TIP3    H223112   0.041   1.109   5.345  0.0159 -0.8208  0.0696
  541TIP3   OH223113   0.960   4.917   2.571  1.1200 -0.1539 -0.3820
  541TIP3    H123114   0.939   4.923   2.664  1.0586 -0.1539 -0.3960
  541TIP3    H223115   0.927   4.832   2.544 -0.6348  0.6704 -0.8617
  542TIP3   OH223116   3.364   1.136  11.177  0.0387  0.2884 -0.7325
  542TIP3    H123117   3.317   1.062  11.215  0.3032  0.2320 -0.5060
  542TIP3    H223118   3.298   1.204  11.164  0.1589  0.7841  1.0416
  543TIP3   OH223119   3.476   0.920  16.699  0.0579  0.3948  0.0488
  543TIP3    H123120   3.452   1.005  16.736 -0.2823  0.7309 -0.9308
  543TIP3    H223121   3.445   0.857  16.764 -0.2828  0.9809  0.4744
  544TIP3   OH223122   6.269   5.871  13.304 -0.4902  0.0639 -0.6032
  544TIP3    H123123   6.185   5.909  13.330 -0.8989 -0.3929 -1.2245
  544TIP3    H223124   6.249   5.779  13.286  0.1218 -0.0227 -0.8668
  545TIP3   OH223125   5.313   3.746  14.848  0.3192 -0.0090  0.2232
  545TIP3    H123126   5.407   3.750  14.867  0.2520 -1.8476  1.0672
  545TIP3    H223127   5.305   3.678  14.782 -0.3940  0.3074 -0.0153
  546TIP3   OH223128   0.639   6.011  16.376 -0.2311 -0.6377 -0.0014
  546TIP3    H123129   0.608   6.101  16.388 -0.1966 -0.6152 -0.0813
  546TIP3    H223130   0.581   5.975  16.309 -0.1009 -0.6035 -0.1329
  547TIP3   OH223131   1.764   6.168  11.017 -0.4867  0.0135 -0.3315
  547TIP3    H123132   1.848   6.140  10.980 -0.6531 -0.8571 -0.0600
  547TIP3    H223133   1.705   6.095  11.002 -1.2277  0.6603 -0.5980
  548TIP3   OH223134   3.184   4.276   3.970 -0.2785 -0.1780 -1.0123
  548TIP3    H123135   3.276   4.254   3.982 -0.3667  0.0378  0.0934
  548TIP3    H223136   3.180   4.312   3.882  0.6671 -0.3367 -1.1290
  549TIP3   OH223137   3.091   6.209  14.685  0.4106  0.1673 -0.3388
  549TIP3    H123138   3.066   6.140  14.624  2.6670  0.7009 -1.9242
  549TIP3    H223139   3.180   6.232  14.660  0.8066  1.5024  2.1769
  550TIP3   OH223140   4.045   6.045  15.761  0.2557 -0.6773 -0.3581
  550TIP3    H123141   4.072   6.130  15.796  1.0216 -0.9394 -0.2859
  550TIP3    H223142   4.011   5.998  15.837 -1.6097  0.1191 -0.6944
  551TIP3   OH223143   4.389   4.585  16.268 -0.2842  0.3808 -0.1718
  551TIP3    H123144   4.338   4.563  16.190 -0.6244  1.0930 -0.1458
  551TIP3    H223145   4.475   4.546  16.252  0.3582  2.4266 -1.8948
  552TIP3   OH223146   3.803   4.341  10.813 -0.1574  0.3998 -0.3387
  552TIP3    H123147   3.778   4.274  10.748 -1.1966 -0.0881  0.5594
  552TIP3    H223148   3.896   4.324  10.829 -0.1781 -0.2239 -0.8255
  553TIP3   OH223149   0.868   4.737   6.163 -0.4463 -0.5345 -0.0700
  553TIP3    H123150   0.916   4.656   6.145 -0.4207 -0.4401 -0.4152
  553TIP3    H223151   0.828   4.721   6.249 -0.0848 -0.7459  0.0627
  554TIP3   OH223152   0.892   2.295  15.818  0.3234  0.0862 -0.7430
  554TIP3    H123153   0.834   2.234  15.773  0.5890  0.8084 -2.0915
  554TIP3    H223154   0.941   2.337  15.747  1.4779  0.5000  0.2942
  555TIP3   OH223155   1.153   0.085   4.646 -0.3140  0.0352 -0.4062
  555TIP3    H123156   1.240   0.122   4.629 -1.0393  2.8362  1.6437
  555TIP3    H223157   1.168  -0.010   4.652  2.0542  0.1659 -3.1553
  556TIP3   OH223158   3.213   3.638  15.833 -0.5184  0.0797  0.2182
  556TIP3    H123159   3.264   3.671  15.907 -0.3752  0.2847  0.0273
  556TIP3    H223160   3.138   3.697  15.828 -0.6525 -0.0781  0.3493
  557TIP3   OH223161   3.346   5.224  13.897 -0.3804 -0.3937  0.0454
  557TIP3    H123162   3.254   5.198  13.904 -1.0876  1.9269 -0.3445
  557TIP3    H223163   3.359   5.288  13.966  0.8529 -0.3918 -0.1630
  558TIP3   OH223164   6.177   4.493   6.407 -0.3970 -0.2519  0.3672
  558TIP3    H123165   6.170   4.586   6.429 -2.1411 -0.4121  0.5616
  558TIP3    H223166   6.270   4.473   6.415  0.2147  1.8599 -1.2379
  559TIP3   OH223167   1.337   3.289   3.099  0.3903 -0.1874 -0.3384
  559TIP3    H123168   1.372   3.293   3.010  0.6851 -2.6916 -0.3580
  559TIP3    H223169   1.262   3.349   3.098  1.7957  1.6060 -1.5950
  560TIP3   OH223170   0.163   0.164   4.899 -0.5922 -0.1971 -0.6571
  560TIP3    H123171   0.251   0.185   4.932 -1.5579  0.9387  1.2628
  560TIP3    H223172   0.121   0.118   4.971 -2.1351  0.7267 -0.9556
  561TIP3   OH223173   2.529   4.613  11.097 -0.0300  0.1059 -0.0369
  561TIP3    H123174   2.575   4.696  11.093 -1.5415  0.9641  0.1327
  561TIP3    H223175   2.486   4.605  11.011  0.0426 -0.4563 -0.0257
  562TIP3   OH223176   3.259   3.369   3.334 -0.1755  0.3047  0.2724
  562TIP3    H123177   3.333   3.351   3.276  0.4727 -1.4099  1.5744
  562TIP3    H223178   3.295   3.429   3.400 -0.0298 -0.2575  0.7084
  563TIP3   OH223179   1.293   6.036   6.107 -0.1486  0.2270  0.0530
  563TIP3    H123180   1.306   5.983   6.185  1.2240  2.0854  1.1007
  563TIP3    H223181   1.375   6.082   6.094 -0.4697  0.2150 -2.3058
  564TIP3   OH223182   0.637   5.339   0.056 -0.5304  0.4041  0.2601
  564TIP3    H123183   0.689   5.417   0.034  0.3972 -0.1045  0.6251
  564TIP3    H223184   0.699   5.281   0.101 -1.2282 -0.5332  0.0228
  565TIP3   OH223185   0.249   6.710   1.994  0.0110  0.0378 -0.0000
  565TIP3    H123186   0.291   6.795   1.982  0.3490 -0.1160  0.0880
  565TIP3    H223187   0.156   6.731   2.004 -0.0595  0.3065 -1.1797
  566TIP3   OH223188   1.755   5.168  13.434  0.3476  0.2824  0.4218
  566TIP3    H123189   1.799   5.201  13.512  0.0503  0.0665  0.6849
  566TIP3    H223190   1.823   5.166  13.366  0.9977 -1.0131  1.0922
  567TIP3   OH223191   0.505   2.353   4.939  0.1361 -0.4324 -0.4139
  567TIP3    H123192   0.469   2.333   5.026  1.9563  1.7550  0.9077
  567TIP3    H223193   0.580   2.294   4.930  0.2670 -0.2921 -0.2567
  568TIP3   OH223194   0.917   4.440  11.831  0.4278 -0.1617 -0.0448
  568TIP3    H123195   0.925   4.523  11.785  1.2093  0.1805  0.7135
  568TIP3    H223196   0.979   4.445  11.903 -0.7497 -0.7176  1.0428
  569TIP3   OH223197   0.822   1.589  12.379 -0.2289 -0.0706 -0.7074
  569TIP3    H123198   0.765   1.664  12.365  2.2060  1.2908 -4.0166
  569TIP3    H223199   0.776   1.516  12.339 -0.4822  0.6563 -1.7622
  570TIP3   OH223200   6.743   4.371  10.781 -0.2469  0.1011  0.2403
  570TIP3    H123201   6.817   4.311  10.783  0.1028  0.4665 -1.3580
  570TIP3    H223202   6.783   4.458  10.778 -0.7514  0.4201  1.9626
  571TIP3   OH223203   4.655   4.293  15.820  0.6899  0.0510  0.1496
  571TIP3    H123204   4.742   4.290  15.860  1.2995 -0.4227 -1.1643
  571TIP3    H223205   4.665   4.246  15.737 -0.8312 -0.0395 -0.0059
  572TIP3   OH223206   6.544   5.151   0.873 -0.0217 -0.1693  0.3624
  572TIP3    H123207   6.580   5.239   0.876 -1.4192  0.4519 -0.6770
  572TIP3    H223208   6.621   5.093   0.877  0.9336  1.0895  0.3543
  573TIP3   OH223209   5.557   0.289   1.353 -0.4792 -0.3144 -0.4956
  573TIP3    H123210   5.611   0.234   1.297  0.6496 -0.3585  0.6192
  573TIP3    H223211   5.589   0.377   1.339  0.1433 -0.3840  0.4445
  574TIP3   OH223212   4.380   6.726  16.077  0.0441 -0.3488  0.0832
  574TIP3    H123213   4.442   6.775  16.131 -0.8813  0.5187  0.3862
  574TIP3    H223214   4.298   6.731  16.126 -0.4010 -0.9957 -0.5914
  575TIP3   OH223215   2.371   6.818  16.818  0.1599 -0.7907  0.5903
  575TIP3    H123216   2.411   6.773  16.893 -0.1836 -0.6485  0.8634
  575TIP3    H223217   2.444   6.839  16.760  0.3404 -1.5649  0.5330
  576TIP3   OH223218   4.876   5.762  11.870  0.0410  0.3820 -0.0940
  576TIP3    H123219   4.941   5.833  11.869  1.6107 -1.0353 -1.0380
  576TIP3    H223220   4.835   5.766  11.783 -1.2695  1.3639  0.5494
  577TIP3   OH223221   1.174   2.198   6.104 -0.2723  0.0633  0.7573
  577TIP3    H123222   1.206   2.193   6.014  0.5055  1.0761  0.9672
  577TIP3    H223223   1.202   2.284   6.135  1.0876 -0.9889  2.5649
  578TIP3   OH223224   3.599   1.659   3.108  0.1126  0.4072 -0.5591
  578TIP3    H123225   3.621   1.566   3.110  1.4526  0.7185 -0.0716
  578TIP3    H223226   3.626   1.688   3.021  0.4965  0.5235 -0.4023
  579TIP3   OH223227   0.726   4.826   0.995 -0.0082 -0.1253  0.6967
  579TIP3    H123228   0.815   4.792   1.001  0.8714  2.2459  1.9970
  579TIP3    H223229   0.732   4.916   1.029 -2.5590  0.6975 -0.8316
  580TIP3   OH223230   4.136   1.212  12.325  0.4293 -0.0025  0.4269
  580TIP3    H123231   4.118   1.213  12.231  1.3714  0.4175  0.2518
  580TIP3    H223232   4.231   1.216  12.332  0.5004 -2.3233  1.3651
  581TIP3   OH223233   0.494   3.733  16.552  0.1513  0.4461 -0.8138
  581TIP3    H123234   0.416   3.786  16.532  0.4457  1.0043 -0.5011
  581TIP3    H223235   0.542   3.786  16.616  0.0920 -0.5321  0.0510
  582TIP3   OH223236   5.023   6.079  16.933  0.3398 -0.0518  0.0899
  582TIP3    H123237   5.063   6.047  17.014  0.2003 -0.3929  0.0265
  582TIP3    H223238   5.082   6.048  16.864 -0.6046 -1.4819 -0.0833
  583TIP3   OH223239   4.039   0.577   3.830  0.0279  0.0277 -0.6420
  583TIP3    H123240   4.099   0.541   3.765 -0.6443 -1.4595 -0.4463
  583TIP3    H223241   4.072   0.545   3.914 -0.6050 -0.1822 -0.4691
  584TIP3   OH223242   2.780   6.009   2.002 -0.5875 -0.1846  0.6104
  584TIP3    H123243   2.737   5.940   1.952 -1.5859  1.3910 -0.7759
  584TIP3    H223244   2.869   6.013   1.967 -0.9966  0.2648 -0.4081
  585TIP3   OH223245   6.763   6.358  15.392 -0.1105 -0.5491 -0.1244
  585TIP3    H123246   6.707   6.324  15.323  0.6723  0.5992 -1.3718
  585TIP3    H223247   6.844   6.307  15.385  0.6121  0.7044 -1.2095
  586TIP3   OH223248   4.938   0.968   0.722 -0.6012 -0.1582 -0.3672
  586TIP3    H123249   4.981   1.054   0.717 -0.1362 -0.3490  0.2247
  586TIP3    H223250   4.945   0.933   0.633  0.3576 -0.1273 -0.3122
  587TIP3   OH223251   0.314   0.527   3.803  0.0792  0.0259  0.6328
  587TIP3    H123252   0.294   0.620   3.793 -1.5816 -0.5112 -1.2839
  587TIP3    H223253   0.248   0.494   3.863 -0.7627 -0.3796 -0.5027
  588TIP3   OH223254   5.843   3.804  10.990 -0.3960  0.5358  0.0511
  588TIP3    H123255   5.937   3.820  10.981 -0.0874 -1.1829  0.0902
  588TIP3    H223256   5.838   3.720  11.036 -1.9545  0.9487  0.6483
  589TIP3   OH223257   4.522   2.055   2.721 -0.2020 -0.0989  0.6467
  589TIP3    H123258   4.600   2.013   2.685  0.0393 -1.9751  3.2224
  589TIP3    H223259   4.459   2.055   2.648  1.3342 -0.8604 -0.7136
  590TIP3   OH223260   6.386   5.790   1.025  0.2815 -0.4230 -0.0649
  590TIP3    H123261   6.374   5.754   0.937 -5.1171  0.4282  0.1305
  590TIP3    H223262   6.365   5.717   1.083  0.0901  0.0526  0.4605
  591TIP3   OH223263   2.545   2.946  12.687 -0.3401  0.1694 -0.2277
  591TIP3    H123264   2.486   2.953  12.762 -0.6046 -0.2412 -0.4045
  591TIP3    H223265   2.631   2.971  12.723 -0.5486  0.4193  0.1035
  592TIP3   OH223266   6.464   6.061  17.013  0.0420 -0.0452  0.0148
  592TIP3    H123267   6.518   5.983  17.002  0.8731  0.7669 -1.7505
  592TIP3    H223268   6.381   6.027  17.046  0.4605 -1.6516 -0.5267
  593TIP3   OH223269   1.311   3.509   0.605  0.9832  0.1726 -0.4369
  593TIP3    H123270   1.321   3.591   0.556 -1.9766  1.0093  0.2749
  593TIP3    H223271   1.243   3.528   0.669  1.1146 -2.5067  0.5345
  594TIP3   OH223272   4.317   6.695  10.720 -0.3645 -0.0682  0.4909
  594TIP3    H123273   4.222   6.708  10.710 -0.2571  0.5325  0.2550
  594TIP3    H223274   4.332   6.703  10.814 -0.4893  0.2647  0.4846
  595TIP3   OH223275   1.078   4.505   5.656 -0.0236 -0.5132  0.4815
  595TIP3    H123276   1.055   4.587   5.612  1.9181 -1.1114 -1.7802
  595TIP3    H223277   1.084   4.441   5.585  1.3883 -1.9562  1.8682
  596TIP3   OH223278   4.128   1.224  10.698 -0.2523  0.3518  0.2419
  596TIP3    H123279   4.081   1.156  10.747 -0.9295  1.2884  0.9103
  596TIP3    H223280   4.199   1.251  10.755 -0.6208  0.9514  0.4189
  597TIP3   OH223281   0.774   5.645   0.081 -0.6342 -0.1940 -0.4060
  597TIP3    H123282   0.804   5.635  -0.010 -1.2457  0.8531 -0.7264
  597TIP3    H223283   0.826   5.580   0.130  2.0859  1.4441 -0.9812
  598TIP3   OH223284   1.748   1.934  11.804 -0.5959  0.7984 -0.0493
  598TIP3    H123285   1.687   1.966  11.737 -1.5108  0.8857  0.8187
  598TIP3    H223286   1.702   1.860  11.844  0.5484 -0.1624 -0.4841
  599TIP3   OH223287   1.963   6.763  14.310 -0.7091  0.2546 -0.3015
  599TIP3    H123288   1.933   6.853  14.296  2.6678  2.0191  2.8522
  599TIP3    H223289   1.926   6.738  14.395 -0.7414 -0.9039 -0.6561
  600TIP3   OH223290   3.402   6.751  15.589 -0.1725 -0.1243 -0.3303
  600TIP3    H123291   3.341   6.813  15.630  0.7458  1.0313 -0.6666
  600TIP3    H223292   3.399   6.772  15.496 -1.2997 -1.9040 -0.7233
  601TIP3   OH223293   6.012   0.762   4.058 -0.4384  0.1460  0.2572
  601TIP3    H123294   6.061   0.825   4.111 -1.9255  0.7446  0.9214
  601TIP3    H223295   5.945   0.727   4.117 -1.0129 -0.4565 -0.7338
  602TIP3   OH223296   6.162   6.621  13.479  0.3440  0.5154 -0.2171
  602TIP3    H123297   6.190   6.701  13.434  0.7187 -0.3181 -1.5113
  602TIP3    H223298   6.184   6.551  13.417 -0.0907 -0.5718  0.8532
  603TIP3   OH223299   4.784   3.608   4.229 -0.3243  0.0565 -0.4401
  603TIP3    H123300   4.836   3.528   4.239 -0.0067  0.0835 -1.7570
  603TIP3    H223301   4.765   3.612   4.135 -0.7763  1.2628 -0.3014
  604TIP3   OH223302   4.238   2.279  15.601  0.4900  0.0619 -0.0357
  604TIP3    H123303   4.289   2.281  15.520  0.1135 -0.1383 -0.2788
  604TIP3    H223304   4.157   2.326  15.579 -0.0999 -0.9712 -0.1060
  605TIP3   OH223305   0.660   4.300   1.695 -0.8705 -0.0333  0.4161
  605TIP3    H123306   0.578   4.343   1.720 -0.7293  0.0686  0.7001
  605TIP3    H223307   0.728   4.362   1.718 -0.7360  0.0274 -0.1558
  606TIP3   OH223308   0.708   5.120   2.849  0.0064  0.2841 -0.5166
  606TIP3    H123309   0.695   5.112   2.944 -1.0225  0.0489 -0.6702
  606TIP3    H223310   0.755   5.203   2.838  1.0540 -0.1864  0.2679
  607TIP3   OH223311   1.726   5.928   3.505 -0.6289  0.0909  0.2756
  607TIP3    H123312   1.638   5.958   3.529 -0.1935 -0.2049  2.3253
  607TIP3    H223313   1.745   5.974   3.423 -2.8956 -0.2425 -0.4722
  608TIP3   OH223314   4.490   4.959   5.792 -0.2092  0.6379  0.5167
  608TIP3    H123315   4.527   5.047   5.788  2.1644 -0.2297  2.0452
  608TIP3    H223316   4.428   4.962   5.865 -0.6184  1.2262  0.1421
  609TIP3   OH223317   6.350   4.324  15.328  0.1646  0.2622  0.5810
  609TIP3    H123318   6.411   4.256  15.357  0.6699  1.2766  2.0005
  609TIP3    H223319   6.406   4.395  15.298 -0.3592  0.1160 -0.7960
  610TIP3   OH223320   2.024   6.338   1.677 -0.0922  0.4603 -0.2943
  610TIP3    H123321   2.108   6.295   1.659  0.6100  1.8918 -0.5291
  610TIP3    H223322   2.047   6.417   1.727 -1.3401  0.6426  0.0216
  611TIP3   OH223323   6.233   3.158   0.687 -0.9891  0.3586 -0.6949
  611TIP3    H123324   6.178   3.203   0.751  0.5745  0.0221  0.9403
  611TIP3    H223325   6.254   3.074   0.728 -0.4954 -0.1280 -1.9324
  612TIP3   OH223326   3.367   5.882  12.572 -1.0440 -0.0733 -0.4355
  612TIP3    H123327   3.427   5.918  12.507 -0.1295  0.0083  0.4614
  612TIP3    H223328   3.386   5.930  12.653 -0.0470 -2.3004  0.6890
  613TIP3   OH223329   2.669   0.597  12.151 -0.1418 -0.5609 -0.1797
  613TIP3    H123330   2.656   0.691  12.151 -1.0323 -0.6824 -0.2302
  613TIP3    H223331   2.685   0.574  12.059  1.1542 -0.3215 -0.0271
  614TIP3   OH223332   2.864   0.635  14.770 -0.1036 -0.2489  0.3555
  614TIP3    H123333   2.776   0.608  14.795 -0.2377  1.3095  1.6655
  614TIP3    H223334   2.922   0.578  14.820 -0.3746 -0.5023  0.3778
  615TIP3   OH223335   0.625   2.844  15.009  0.1361 -0.3974  0.5409
  615TIP3    H123336   0.587   2.904  14.945 -1.5801 -1.9702  0.0590
  615TIP3    H223337   0.591   2.758  14.985  1.4332 -1.3733  2.0840
  616TIP3   OH223338   1.467   4.410   1.692  0.2282 -0.0589 -0.2578
  616TIP3    H123339   1.527   4.466   1.642  0.5905  0.3472  0.6213
  616TIP3    H223340   1.411   4.472   1.740 -0.0703 -0.4466 -0.1046
  617TIP3   OH223341   1.048   1.623   2.577  0.1958  0.5269 -0.4453
  617TIP3    H123342   1.102   1.561   2.626 -1.5769 -0.1157  0.7518
  617TIP3    H223343   1.085   1.623   2.488  2.3322  0.3658  0.4266
  618TIP3   OH223344   5.944   6.681   5.636  0.1533  0.1084 -0.2120
  618TIP3    H123345   6.030   6.723   5.635  0.4852 -0.5003  1.4028
  618TIP3    H223346   5.936   6.641   5.550  0.9644  1.2122 -0.8129
  619TIP3   OH223347   6.658   3.112  14.523 -0.2526  0.2074  0.4040
  619TIP3    H123348   6.725   3.141  14.461  0.6969 -1.4234  0.6260
  619TIP3    H223349   6.686   3.148  14.607 -0.5321  0.8627  0.2223
  620TIP3   OH223350   5.304   0.168  11.952  0.0797 -0.0622 -0.1009
  620TIP3    H123351   5.231   0.146  11.894 -0.0259 -0.0338  0.0195
  620TIP3    H223352   5.383   0.150  11.901 -0.0120 -0.1801 -0.1991
  621TIP3   OH223353   0.419   6.134   5.138  0.3993 -0.0495 -0.4485
  621TIP3    H123354   0.490   6.198   5.141 -0.4372  0.8474  2.3846
  621TIP3    H223355   0.356   6.166   5.202 -0.4519 -3.2450  0.4145
  622TIP3   OH223356   2.989   1.018  16.366 -0.1922 -0.9077 -0.6705
  622TIP3    H123357   2.984   1.111  16.387  0.4278 -0.7674 -1.1093
  622TIP3    H223358   3.070   0.989  16.407  0.0981 -1.0341 -1.3254
  623TIP3   OH223359   4.401   6.791   2.972 -0.6465 -0.1157  0.1854
  623TIP3    H123360   4.440   6.781   3.059 -1.6263 -1.5576  0.4822
  623TIP3    H223361   4.470   6.767   2.911 -0.0044  0.7450  0.5659
  624TIP3   OH223362   0.645   4.395   1.391 -0.0186  0.4173  0.1299
  624TIP3    H123363   0.730   4.424   1.358  0.6006 -0.3547  0.9896
  624TIP3    H223364   0.663   4.368   1.481 -0.5274 -2.6038 -0.6204
  625TIP3   OH223365   2.382   4.748   0.549  0.3820 -0.0092 -0.4033
  625TIP3    H123366   2.469   4.787   0.545  0.4927  0.0250  1.6830
  625TIP3    H223367   2.393   4.669   0.602 -0.8078 -0.1002 -0.2694
  626TIP3   OH223368   2.114   5.175   1.016  0.5942 -0.3475  0.2627
  626TIP3    H123369   2.100   5.109   1.084  1.1068  1.3784  2.1379
  626TIP3    H223370   2.052   5.153   0.947 -0.0320 -2.1047  1.3424
  627TIP3   OH223371   1.765   0.905  15.794 -0.1009 -0.5863 -0.5489
  627TIP3    H123372   1.849   0.937  15.828  0.4687 -0.8212 -1.7268
  627TIP3    H223373   1.765   0.811  15.815  0.3742 -0.7883 -1.4334
  628TIP3   OH223374   3.059   2.150   0.633  0.3521 -0.1013 -0.3257
  628TIP3    H123375   2.982   2.208   0.638  0.1730 -0.3489 -0.2435
  628TIP3    H223376   3.133   2.211   0.631  0.1546  0.1406 -0.4548
  629TIP3   OH223377   2.158   1.269   1.364 -0.7574 -1.1381 -0.0677
  629TIP3    H123378   2.218   1.208   1.407 -1.0386 -1.0206  0.4859
  629TIP3    H223379   2.209   1.349   1.353  0.1661 -1.9988 -2.3179
  630TIP3   OH223380   4.402   5.492  14.938 -0.1239 -0.7528 -0.0269
  630TIP3    H123381   4.393   5.552  15.012  0.7096 -0.1309 -0.4296
  630TIP3    H223382   4.483   5.443  14.956  0.7078  0.2039 -1.0914
  631TIP3   OH223383   1.422   4.304  12.972 -0.0550  0.3993 -0.8337
  631TIP3    H123384   1.368   4.229  12.948  1.1215 -1.4411  2.1433
  631TIP3    H223385   1.359   4.376  12.982 -1.7528 -1.2347  0.6165
  632TIP3   OH223386   3.878   0.343  12.153  0.1344  0.9840  0.0901
  632TIP3    H123387   3.929   0.418  12.183  0.6222  0.5684  0.3294
  632TIP3    H223388   3.905   0.331  12.061  0.1747  1.0060  0.0991
  633TIP3   OH223389   4.358   6.637  13.889  0.4755  0.1181 -0.2971
  633TIP3    H123390   4.410   6.576  13.838 -1.8892 -1.0353 -1.3991
  633TIP3    H223391   4.279   6.652  13.837 -0.3406  1.7921  1.3261
  634TIP3   OH223392   0.576   1.902   6.466  0.1280  0.2581  0.0055
  634TIP3    H123393   0.526   1.821   6.453 -0.8896  1.0540 -1.1726
  634TIP3    H223394   0.611   1.894   6.555 -2.5943 -0.0505  1.1094
  635TIP3   OH223395   6.808   6.336  15.107 -0.2875  0.2806 -0.0725
  635TIP3    H123396   6.724   6.373  15.135 -1.3971 -1.7158 -0.7162
  635TIP3    H223397   6.872   6.402  15.133 -2.2106  2.7143 -1.2399
  636TIP3   OH223398   0.628   4.449  14.585  0.5236 -0.4168 -0.3875
  636TIP3    H123399   0.680   4.438  14.665  0.3461  2.2147  0.1203
  636TIP3    H223400   0.556   4.506  14.611 -0.1690 -0.4581 -2.1752
  637TIP3   OH223401   3.136   0.915  14.001  0.6368 -0.0396 -0.2736
  637TIP3    H123402   3.185   0.974  13.945 -1.0147  0.7289 -0.9378
  637TIP3    H223403   3.203   0.865  14.048  2.0301  0.3066 -1.8601
  638TIP3   OH223404   1.376   0.491  16.693 -0.3783  0.3529 -0.4242
  638TIP3    H123405   1.308   0.557  16.682  0.1941  1.2097  1.0174
  638TIP3    H223406   1.371   0.437  16.614 -1.1660  1.8334 -1.4036
  639TIP3   OH223407   0.773   3.014  16.771  0.5688  0.1617 -0.4347
  639TIP3    H123408   0.867   3.004  16.755  0.0783 -0.8608 -2.8925
  639TIP3    H223409   0.745   2.927  16.801 -0.1052 -0.3641 -2.5378
  640TIP3   OH223410   6.413   2.706  13.960 -0.1699  0.4568 -0.0698
  640TIP3    H123411   6.335   2.754  13.988 -1.0781 -1.3191  0.4662
  640TIP3    H223412   6.385   2.659  13.881  0.2807 -0.3673  0.2554
  641TIP3   OH223413   1.106   6.213   4.363 -0.4406 -0.3705 -0.1310
  641TIP3    H123414   1.042   6.190   4.431 -1.3347 -0.5421 -1.0065
  641TIP3    H223415   1.189   6.220   4.409 -0.7625 -1.9549  0.7443
  642TIP3   OH223416   1.259   5.507   1.561  0.0287 -0.2124 -0.3839
  642TIP3    H123417   1.226   5.428   1.518 -1.2260  0.2515 -0.3057
  642TIP3    H223418   1.250   5.488   1.655  1.4928 -0.6975 -0.3314
  643TIP3   OH223419   1.877   2.515  16.907 -0.3339  1.0719 -0.4259
  643TIP3    H123420   1.896   2.494  16.816  1.0973 -0.5180  0.2138
  643TIP3    H223421   1.805   2.578  16.903  0.3311  1.7342 -2.6748
  644TIP3   OH223422   3.209   5.835  10.940 -0.1689 -0.5970  0.3331
  644TIP3    H123423   3.192   5.816  10.848 -1.6477 -1.1275  0.7101
  644TIP3    H223424   3.277   5.772  10.965 -1.5817 -2.1616  0.2778
  645TIP3   OH223425   1.676   0.011  15.130 -0.2485  0.6476 -0.7477
  645TIP3    H123426   1.763  -0.005  15.092  0.2048  1.2268  0.0396
  645TIP3    H223427   1.621  -0.058  15.092  0.5103  0.3878 -1.3974
  646TIP3   OH223428   2.562   4.977   4.236 -0.0299  0.1847  0.1180
  646TIP3    H123429   2.579   4.920   4.311 -0.4561  1.4413  1.1894
  646TIP3    H223430   2.649   5.005   4.207  0.1991 -1.1721 -0.5729
  647TIP3   OH223431   2.510   0.201   5.289 -0.2934 -0.4222 -0.8750
  647TIP3    H123432   2.460   0.264   5.237 -1.1408 -2.1727 -2.2589
  647TIP3    H223433   2.443   0.153   5.338  0.4474  0.7213  1.3312
  648TIP3   OH223434   6.497   2.654   4.992  0.0229  0.2793  0.1498
  648TIP3    H123435   6.483   2.625   4.902  0.1953 -0.2208  0.2800
  648TIP3    H223436   6.544   2.582   5.033 -0.3883  0.3428  0.7459
  649TIP3   OH223437   6.471   1.599  14.047  0.0588  0.2130  0.0690
  649TIP3    H123438   6.424   1.567  14.124  0.5202 -0.2437  0.1665
  649TIP3    H223439   6.518   1.676  14.078 -2.1532  1.8117 -0.5065
  650TIP3   OH223440   6.577   5.913   3.106 -0.4578 -0.1891  0.1175
  650TIP3    H123441   6.514   5.978   3.136 -0.9593 -0.9985  0.8190
  650TIP3    H223442   6.634   5.961   3.045  0.4315  1.4115  2.1514
  651TIP3   OH223443   1.220   6.669   2.863  0.2334  0.4573 -0.4550
  651TIP3    H123444   1.130   6.643   2.842 -1.3838  2.2877  3.6962
  651TIP3    H223445   1.249   6.606   2.928  1.6040  0.5413 -0.9579
  652TIP3   OH223446   5.381   5.113   1.671  0.5257  0.0321  0.3382
  652TIP3    H123447   5.419   5.200   1.662 -1.4193  0.9066  0.2057
  652TIP3    H223448   5.451   5.059   1.707  2.1087  1.3748 -0.6634
  653TIP3   OH223449   4.872   0.019  11.722 -0.4450 -0.0385 -0.6199
  653TIP3    H123450   4.836  -0.069  11.708 -1.3188  0.2550 -0.2214
  653TIP3    H223451   4.846   0.041  11.811  0.9037  0.0953 -0.2450
  654TIP3   OH223452   5.419   6.767   4.372  0.0419  0.5469  0.3613
  654TIP3    H123453   5.343   6.740   4.423  1.2245  0.4124  2.1204
  654TIP3    H223454   5.401   6.857   4.345 -0.0559  1.0760  2.1468
  655TIP3   OH223455   3.159   6.698   4.521  0.1991 -0.5457 -0.4837
  655TIP3    H123456   3.153   6.701   4.617 -0.2405  1.0122 -0.5575
  655TIP3    H223457   3.247   6.733   4.502 -0.1608  0.2389 -0.7082
  656TIP3   OH223458   6.320   5.376   2.497  0.2704 -0.2121 -0.3035
  656TIP3    H123459   6.355   5.287   2.488  1.9519  0.2613  1.0454
  656TIP3    H223460   6.287   5.399   2.411  2.3308 -1.1522 -1.3778
  657TIP3   OH223461   5.856   1.197  13.489  0.1176  0.1317 -0.1083
  657TIP3    H123462   5.929   1.199  13.427 -0.0306  0.9628 -0.2675
  657TIP3    H223463   5.783   1.237  13.442 -0.3832 -0.5138  0.1233
  658TIP3   OH223464   5.954   1.096   0.128 -0.0116 -0.6088  0.0724
  658TIP3    H123465   5.913   1.025   0.179 -0.4381 -1.1359 -0.9786
  658TIP3    H223466   5.912   1.176   0.160  0.2488 -0.8639  1.0568
  659TIP3   OH223467   2.747   4.946   0.546 -0.0380  0.3976  0.2822
  659TIP3    H123468   2.757   4.894   0.466 -2.1343 -0.2251  0.4017
  659TIP3    H223469   2.716   4.883   0.612  1.6327  0.9052  1.6024
  660TIP3   OH223470   4.673   5.939  17.187  0.5509 -0.5162 -0.1654
  660TIP3    H123471   4.657   5.912  17.096  3.2977 -0.0033 -0.8581
  660TIP3    H223472   4.604   6.003  17.205  1.3184  1.1266 -2.7421
  661TIP3   OH223473   5.288   5.914  12.639 -0.6291  0.7180  0.1681
  661TIP3    H123474   5.219   5.896  12.574 -0.8010 -0.3635  0.6327
  661TIP3    H223475   5.369   5.896  12.592 -0.7534 -0.0749  0.2442
  662TIP3   OH223476   2.618   3.153  15.299 -0.3729 -0.3396 -0.4950
  662TIP3    H123477   2.633   3.226  15.359  1.0237  0.8437 -2.2312
  662TIP3    H223478   2.579   3.193  15.221 -0.4216 -1.5603 -1.1242
  663TIP3   OH223479   4.207   0.017  16.903 -0.4848 -0.4003 -0.0928
  663TIP3    H123480   4.230  -0.071  16.933  0.0016 -0.3963 -0.4363
  663TIP3    H223481   4.239   0.075  16.971 -1.7651 -0.5547  0.6467
  664TIP3   OH223482   3.888   1.571   3.274 -0.0160  0.2564  0.1049
  664TIP3    H123483   3.951   1.567   3.346  1.6375 -0.8266 -1.3652
  664TIP3    H223484   3.862   1.663   3.270  0.6516  0.5067  1.4244
  665TIP3   OH223485   3.264   4.968   3.342  0.2358 -0.3102  0.1655
  665TIP3    H123486   3.350   4.931   3.324  1.4615  1.4708  2.2037
  665TIP3    H223487   3.274   5.062   3.328 -1.6886 -0.1917 -0.6697
  666TIP3   OH223488   2.547   5.590  16.785 -0.1882 -0.2461  0.5871
  666TIP3    H123489   2.491   5.533  16.732 -0.0146 -0.4973  0.6722
  666TIP3    H223490   2.489   5.628  16.850 -0.5996  0.7935 -0.3623
  667TIP3   OH223491   3.106   6.409  14.966 -0.4775  1.0635  0.9117
  667TIP3    H123492   3.077   6.414  14.874  0.3493 -1.4394  0.4666
  667TIP3    H223493   3.172   6.478  14.974  1.9312 -0.8506 -1.3914
  668TIP3   OH223494   6.472   4.787   3.255  0.0285 -0.4725 -0.3784
  668TIP3    H123495   6.564   4.764   3.240 -0.1466 -1.7789  0.4110
  668TIP3    H223496   6.466   4.800   3.350  0.0642  2.7519 -0.7715
  669TIP3   OH223497   3.995   6.487  13.819  0.6769  0.0646 -0.5049
  669TIP3    H123498   3.996   6.467  13.726 -2.3632 -1.4498 -0.2936
  669TIP3    H223499   4.030   6.409  13.861  0.2733 -0.0038 -0.2919
  670TIP3   OH223500   5.984   4.785   1.490 -0.2193  0.6761 -0.2914
  670TIP3    H123501   5.909   4.801   1.433 -1.8986 -1.2258  1.2729
  670TIP3    H223502   5.955   4.715   1.548  2.5422  0.3913  0.8352
  671TIP3   OH223503   3.747   2.480   4.093 -0.2577 -0.1898  0.3846
  671TIP3    H123504   3.655   2.488   4.069 -0.6754 -0.6412  1.7800
  671TIP3    H223505   3.748   2.414   4.162  1.0770  0.0239  0.5828
  672TIP3   OH223506   3.317   4.817   2.167  0.2892 -0.1964 -0.0659
  672TIP3    H123507   3.286   4.756   2.100 -1.2356  0.0373  0.4109
  672TIP3    H223508   3.239   4.867   2.192  0.7498 -0.5097  2.1215
  673TIP3   OH223509   4.519   1.358   5.651 -0.6194  0.6640  0.3302
  673TIP3    H123510   4.533   1.446   5.614 -1.1959  1.2878  1.5722
  673TIP3    H223511   4.433   1.363   5.692 -1.2169 -0.8920 -0.6946
  674TIP3   OH223512   6.763   4.846  15.440  0.2706 -0.4399  0.3722
  674TIP3    H123513   6.788   4.785  15.370  2.9137 -0.6156  1.4086
  674TIP3    H223514   6.730   4.790  15.510 -2.4853 -0.2576 -0.6972
  675TIP3   OH223515   5.254   3.023  14.448 -0.0976 -0.0287 -0.2401
  675TIP3    H123516   5.167   3.032  14.408  0.4748 -0.2998 -1.5613
  675TIP3    H223517   5.309   3.082  14.398  0.9311 -1.4058 -0.7437
  676TIP3   OH223518   4.160   4.202  11.620 -0.3655 -0.4779 -0.0615
  676TIP3    H123519   4.252   4.183  11.605 -0.5647 -1.7818  0.2729
  676TIP3    H223520   4.159   4.289  11.658  0.7726 -0.7174  0.5267
  677TIP3   OH223521   4.303   3.126  12.070  0.6979 -0.3145  0.2795
  677TIP3    H123522   4.290   3.174  11.988 -0.6942  0.3418  0.8745
  677TIP3    H223523   4.345   3.190  12.128  0.4070 -0.3453  0.5235
  678TIP3   OH223524   5.280   0.870  12.271 -0.0645 -0.0801 -0.2657
  678TIP3    H123525   5.218   0.891  12.340  2.4101  1.9665  1.4196
  678TIP3    H223526   5.329   0.795  12.305 -0.8683 -1.0027 -1.1240
  679TIP3   OH223527   3.069   6.104   0.854 -0.4236  0.2186 -0.1468
  679TIP3    H123528   2.997   6.048   0.825  2.4263 -3.0976 -1.2105
  679TIP3    H223529   3.110   6.133   0.773  0.8783  0.0566  0.4537
  680TIP3   OH223530   5.911   0.366  16.428  0.0661  0.6943 -0.1390
  680TIP3    H123531   5.873   0.409  16.351  1.0335  0.4342 -0.7736
  680TIP3    H223532   6.004   0.388  16.424  0.4096 -0.6743  0.0519
  681TIP3   OH223533   1.908   5.276  13.628 -0.4596  0.0132 -0.1559
  681TIP3    H123534   1.966   5.330  13.682  0.2701 -1.7707  0.8825
  681TIP3    H223535   1.952   5.191  13.624 -1.6127 -0.5190 -1.7297
  682TIP3   OH223536   1.565   5.223   3.508 -0.6503  0.0557 -0.0244
  682TIP3    H123537   1.625   5.277   3.560  0.6097 -1.5306  0.1881
  682TIP3    H223538   1.591   5.241   3.417 -1.0772  0.7606 -0.0152
  683TIP3   OH223539   3.913   4.703  16.760 -0.0406 -0.3789 -0.0834
  683TIP3    H123540   3.962   4.726  16.839  0.5141 -0.3033 -0.4493
  683TIP3    H223541   3.931   4.610  16.747  0.2274 -0.2849 -0.3759
  684TIP3   OH223542   6.118   3.211  17.277  0.4602 -0.7966  0.7090
  684TIP3    H123543   6.087   3.238  17.190  0.4869 -0.0509  0.9229
  684TIP3    H223544   6.146   3.121  17.265  2.4982 -0.0226 -0.5977
  685TIP3   OH223545   3.391   0.170  12.298  0.0118  0.5084 -0.3433
  685TIP3    H123546   3.382   0.166  12.394 -2.6253  1.7562 -0.5058
  685TIP3    H223547   3.482   0.193  12.284  0.0811  1.7660  1.9103
  686TIP3   OH223548   3.112   2.313   3.922 -0.6224 -0.0779  0.1126
  686TIP3    H123549   3.093   2.221   3.938  0.7151 -0.2113  1.0753
  686TIP3    H223550   3.107   2.323   3.827  0.1748 -1.3624 -0.0742
  687TIP3   OH223551   3.421   2.723   4.948  0.1789 -0.4233 -0.0393
  687TIP3    H123552   3.509   2.697   4.923  0.7177  0.7975  0.5677
  687TIP3    H223553   3.400   2.667   5.024  0.8964  0.1240  0.5662
  688TIP3   OH223554   1.063   6.189  15.077  0.3406  0.4960  0.4446
  688TIP3    H123555   0.988   6.215  15.130 -0.8766 -0.4526 -0.7703
  688TIP3    H223556   1.046   6.227  14.991  1.3089  0.3655  0.1877
  689TIP3   OH223557   4.993   2.823  17.119 -0.5143  0.4721 -0.4396
  689TIP3    H123558   5.026   2.808  17.031  1.7741  1.5750  0.2039
  689TIP3    H223559   4.993   2.737  17.160  1.6755  0.4646 -0.4298
  690TIP3   OH223560   2.633   3.613  15.193  0.4158 -0.3146 -0.4120
  690TIP3    H123561   2.683   3.691  15.217  0.1700 -0.1173 -0.5459
  690TIP3    H223562   2.578   3.641  15.120  1.0380 -0.8729 -1.0916
  691TIP3   OH223563   0.636   6.340   3.973  0.4383 -0.1699  0.4121
  691TIP3    H123564   0.613   6.335   3.880  0.6332  5.0188 -0.0515
  691TIP3    H223565   0.727   6.309   3.977  0.1152 -1.3240 -0.9510
  692TIP3   OH223566   2.522   4.903  12.529 -0.8659 -0.5390  0.6702
  692TIP3    H123567   2.553   4.818  12.495 -1.5603 -1.0634  1.3443
  692TIP3    H223568   2.443   4.922  12.479 -0.7834 -0.3466  0.6105
  693TIP3   OH223569   6.382   2.789   4.073 -0.4760  0.1670 -0.0661
  693TIP3    H123570   6.421   2.741   4.000 -1.1783  1.7038 -1.4785
  693TIP3    H223571   6.305   2.737   4.097 -0.2775 -0.3192 -0.4717
  694TIP3   OH223572   0.564   0.224  15.255  0.4382 -1.0711  0.0092
  694TIP3    H123573   0.471   0.208  15.274  0.5448 -2.3074 -0.4458
  694TIP3    H223574   0.571   0.214  15.160  1.0664 -1.1410  0.0635
  695TIP3   OH223575   3.420   3.068  14.647  0.4105 -0.3857  0.3667
  695TIP3    H123576   3.432   3.065  14.552 -0.6407  0.2577  0.2021
  695TIP3    H223577   3.487   3.129  14.678 -0.0373  0.3560 -0.1079
  696TIP3   OH223578   5.613   3.469  13.679  0.3116  0.1613  0.3088
  696TIP3    H123579   5.552   3.488  13.750  0.0836 -1.0405  0.4376
  696TIP3    H223580   5.634   3.376  13.688  1.8619  0.4614  0.0273
  697TIP3   OH223581   2.350   1.658   0.079  0.0451 -0.6066  0.2104
  697TIP3    H123582   2.353   1.724   0.147  0.3460  0.1591 -0.5365
  697TIP3    H223583   2.394   1.698   0.004 -0.2534 -1.4423 -0.4279
  698TIP3   OH223584   2.786   5.220  13.302  0.3269  0.1558 -0.2970
  698TIP3    H123585   2.723   5.275  13.256  0.2233  0.9716  0.7967
  698TIP3    H223586   2.755   5.130  13.288 -0.7410  0.5148 -0.2742
  699TIP3   OH223587   2.262   3.884   6.174  0.4567 -0.1466 -0.5986
  699TIP3    H123588   2.314   3.864   6.096  1.5818 -1.4071  0.4513
  699TIP3    H223589   2.199   3.811   6.180 -0.3052  0.4781 -0.8905
  700TIP3   OH223590   3.064   2.566   4.097 -0.0702  0.1876 -0.1958
  700TIP3    H123591   3.106   2.545   4.014  0.3263  1.0816 -0.2256
  700TIP3    H223592   3.134   2.558   4.162 -0.5998 -1.4725  0.1991
  701TIP3   OH223593   5.932   5.275   3.343  0.1317 -0.1907 -0.5863
  701TIP3    H123594   5.942   5.180   3.352 -1.7397 -0.4509 -1.0467
  701TIP3    H223595   6.022   5.309   3.348  0.9075 -2.0499 -1.2830
  702TIP3   OH223596   5.964   3.442  12.309  0.4103  0.2413  0.0627
  702TIP3    H123597   6.000   3.427  12.396 -0.2701 -2.7256 -0.1006
  702TIP3    H223598   6.040   3.444  12.251  0.7910  1.2280  0.5858
  703TIP3   OH223599   4.597   6.795  10.243 -0.1390  0.6079  0.7561
  703TIP3    H123600   4.692   6.805  10.247  0.0980 -0.6884 -1.0251
  703TIP3    H223601   4.567   6.873  10.199  0.4654 -0.5231 -1.7542
  704TIP3   OH223602   4.661   3.201   1.450  0.2466  0.5681 -0.0065
  704TIP3    H123603   4.636   3.208   1.358 -1.6558  1.9283  0.5830
  704TIP3    H223604   4.597   3.255   1.496  1.9921  1.0000  1.9836
  705TIP3   OH223605   6.335   1.104   1.502  0.1564  0.8481 -0.0678
  705TIP3    H123606   6.262   1.044   1.519  1.0505 -0.4222 -0.6642
  705TIP3    H223607   6.293   1.189   1.489 -1.4352 -0.2596 -2.6443
  706TIP3   OH223608   4.683   1.016  14.878 -0.0085 -0.3833 -0.2992
  706TIP3    H123609   4.735   0.957  14.931 -0.2278 -0.1557  0.1668
  706TIP3    H223610   4.727   1.100  14.884 -0.2796 -0.2539 -0.1232
  707TIP3   OH223611   2.608   2.464   0.581  0.0369  0.1299 -0.1861
  707TIP3    H123612   2.529   2.419   0.611 -0.5656  0.7936 -0.7401
  707TIP3    H223613   2.575   2.532   0.522  1.1060 -0.3197 -1.3117
  708TIP3   OH223614   0.665   0.137  12.855  0.7673 -0.1904 -0.0463
  708TIP3    H123615   0.626   0.129  12.943 -0.2486  4.4261  0.0396
  708TIP3    H223616   0.759   0.133  12.870  0.5979  0.5590  1.2692
  709TIP3   OH223617   2.604   4.024   2.792  0.1281  0.3424  0.1093
  709TIP3    H123618   2.686   4.004   2.747 -0.0931  1.2126 -0.6843
  709TIP3    H223619   2.536   3.983   2.738 -0.0660  0.6613  0.1115
  710TIP3   OH223620   6.267   1.149   3.341  0.4636  0.7697  0.4051
  710TIP3    H123621   6.309   1.090   3.404  1.9054  1.9443  0.5647
  710TIP3    H223622   6.212   1.206   3.394 -1.1654 -0.5890  0.2227
  711TIP3   OH223623   5.673   5.552   2.302  0.3431 -0.3242  0.0244
  711TIP3    H123624   5.768   5.556   2.286  0.3462 -1.3156 -0.3036
  711TIP3    H223625   5.664   5.490   2.375 -0.0475 -0.2258  0.0582
  712TIP3   OH223626   4.862   0.433  14.865 -0.4430  0.2373  0.0336
  712TIP3    H123627   4.922   0.372  14.820  0.3664  2.1888 -1.6331
  712TIP3    H223628   4.780   0.425  14.817  0.0347  1.3431 -1.0098
  713TIP3   OH223629   6.794   6.588  13.016 -0.1925 -0.0676  0.7981
  713TIP3    H123630   6.707   6.558  12.989 -0.6280  1.5251  0.3616
  713TIP3    H223631   6.794   6.579  13.112 -0.8044 -0.1482  0.7934
  714TIP3   OH223632   0.774   0.751   2.725  0.6555  0.3420  0.0057
  714TIP3    H123633   0.816   0.666   2.712  0.8258  0.5675 -1.0025
  714TIP3    H223634   0.684   0.739   2.693  0.3093  0.1961  1.0280
  715TIP3   OH223635   0.623   0.764  14.896  0.2555  0.3276 -0.0451
  715TIP3    H123636   0.528   0.761  14.891  0.2763 -0.5828  0.1103
  715TIP3    H223637   0.644   0.858  14.893 -0.6804  0.5625  0.5520
  716TIP3   OH223638   0.521   4.020   5.040  0.7767 -0.4775 -0.0828
  716TIP3    H123639   0.562   3.998   5.124  1.0725 -1.3720 -0.4524
  716TIP3    H223640   0.439   3.970   5.040 -0.2891  1.2350  0.6160
  717TIP3   OH223641   0.062   4.936   6.317  0.8669  0.6027 -0.3730
  717TIP3    H123642   0.140   4.976   6.358  0.5937  0.7807 -0.0236
  717TIP3    H223643   0.087   4.924   6.226  0.8705  1.8230 -0.5521
  718TIP3   OH223644   1.534   3.939   4.701  0.0548  0.0060  0.4582
  718TIP3    H123645   1.521   3.848   4.728 -0.4873 -0.2382 -0.6129
  718TIP3    H223646   1.447   3.978   4.706  0.6935  1.1743  3.4080
  719TIP3   OH223647   1.518   0.540   0.723 -0.0871 -0.5614 -0.4101
  719TIP3    H123648   1.430   0.578   0.729  0.1405  0.3462 -2.2662
  719TIP3    H223649   1.576   0.617   0.721  0.8603 -1.1782  2.1520
  720TIP3   OH223650   4.625   3.519   5.490  0.0331 -0.1326  0.4598
  720TIP3    H123651   4.574   3.594   5.521  0.2080  0.0038  0.4180
  720TIP3    H223652   4.711   3.531   5.530  0.6615  0.7541 -1.1269
  721TIP3   OH223653   1.211   5.744   4.411 -0.1641 -0.0161 -0.0296
  721TIP3    H123654   1.250   5.725   4.325  0.2683 -1.8454  0.5392
  721TIP3    H223655   1.200   5.839   4.412  2.0613  0.2852 -1.1522
  722TIP3   OH223656   5.920   1.660   1.270 -0.3078  0.6753 -0.5585
  722TIP3    H123657   5.868   1.707   1.205  1.7320  2.4361 -0.9551
  722TIP3    H223658   5.950   1.582   1.224 -0.6949  0.8012 -1.0330
  723TIP3   OH223659   2.594   1.335  15.073 -0.1235 -0.2428  0.6657
  723TIP3    H123660   2.553   1.251  15.053  1.3369 -0.7146 -0.4920
  723TIP3    H223661   2.529   1.400  15.048 -0.1374 -0.9714 -1.2599
  724TIP3   OH223662   6.531   0.966  16.402 -0.1420 -0.0810 -0.4035
  724TIP3    H123663   6.504   1.047  16.445 -1.3731 -1.3227  1.2211
  724TIP3    H223664   6.609   0.939  16.450  1.0972  0.8307 -1.8376
  725TIP3   OH223665   1.137   5.468   4.609  0.3412 -0.1711  0.3723
  725TIP3    H123666   1.099   5.409   4.544 -2.0865  3.1890 -1.3962
  725TIP3    H223667   1.212   5.507   4.564  0.0658  0.4089  0.4135
  726TIP3   OH223668   1.098   3.927  15.339 -0.3407  0.0101 -0.3449
  726TIP3    H123669   1.187   3.955  15.360 -0.1851 -0.2947 -0.5836
  726TIP3    H223670   1.108   3.872  15.261 -0.4172 -2.2100  1.1536
  727TIP3   OH223671   3.570   6.427  15.913 -0.1007  0.0750 -0.0521
  727TIP3    H123672   3.490   6.435  15.965 -0.0067  0.6900  0.0106
  727TIP3    H223673   3.540   6.413  15.823 -0.3009  1.1946 -0.1732
  728TIP3   OH223674   3.516   4.041   1.784  0.0957 -0.6626  0.8313
  728TIP3    H123675   3.490   4.133   1.793 -1.9526 -1.2847  1.6540
  728TIP3    H223676   3.570   4.023   1.860  1.9002  0.2886 -0.1908
  729TIP3   OH223677   5.768   5.259   3.070  0.0638 -0.6268  0.0039
  729TIP3    H123678   5.677   5.246   3.045 -0.2725 -2.2967  1.9798
  729TIP3    H223679   5.774   5.225   3.159  2.3629  0.5192  0.3386
  730TIP3   OH223680   0.914   6.449  15.483  0.3616 -0.0258 -0.1041
  730TIP3    H123681   0.956   6.422  15.401  2.8458  0.6590  0.9096
  730TIP3    H223682   0.938   6.541  15.493 -2.5625  0.7992 -0.1543
  731TIP3   OH223683   0.209   4.843  13.973 -0.6668  0.1483 -0.5568
  731TIP3    H123684   0.291   4.853  13.925 -0.2582 -0.2772  0.0448
  731TIP3    H223685   0.219   4.760  14.019 -2.0564 -0.6661 -1.6995
  732TIP3   OH223686   4.047   4.531   3.850  0.9325 -0.1232 -0.1784
  732TIP3    H123687   4.019   4.569   3.766  0.9486 -1.9271 -1.0356
  732TIP3    H223688   4.032   4.600   3.914  0.0221  0.9661 -1.5348
  733TIP3   OH223689   5.421   3.471   4.116 -0.1851  0.0664  0.0340
  733TIP3    H123690   5.510   3.500   4.137  0.1044 -0.6822 -0.1399
  733TIP3    H223691   5.418   3.470   4.020 -0.0103 -1.0228  0.0396
  734TIP3   OH223692   2.531   2.094   4.827  0.0439  0.3183 -0.0790
  734TIP3    H123693   2.508   2.187   4.831 -1.2231  0.0449 -0.7980
  734TIP3    H223694   2.544   2.068   4.918  0.4069  1.1905  0.1243
  735TIP3   OH223695   5.154   0.678  16.600 -0.2925 -0.6485 -0.0549
  735TIP3    H123696   5.127   0.690  16.509  2.3521 -0.2494 -0.8195
  735TIP3    H223697   5.245   0.707  16.602  0.0157 -1.6907  2.4978
  736TIP3   OH223698   4.790   1.426  15.536  0.1484  0.2048 -0.0051
  736TIP3    H123699   4.701   1.392  15.527  1.1405 -2.3461 -0.7263
  736TIP3    H223700   4.805   1.428  15.631  0.3848 -2.4119  0.0557
  737TIP3   OH223701   3.404   3.185  10.369  0.2981 -0.1462  0.1878
  737TIP3    H123702   3.324   3.236  10.383  0.6269  0.0537  1.3790
  737TIP3    H223703   3.427   3.202  10.278  0.0831  1.3756  0.3979
  738TIP3   OH223704   5.669   3.512  15.971 -0.4046  0.3270  0.0304
  738TIP3    H123705   5.703   3.532  16.058 -0.3368 -3.6131  1.0091
  738TIP3    H223706   5.578   3.485  15.986 -0.4350 -0.2804 -1.1181
  739TIP3   OH223707   0.613   5.543  14.786  0.1252 -0.3450 -0.3591
  739TIP3    H123708   0.611   5.626  14.835  1.9946 -0.4376 -0.0778
  739TIP3    H223709   0.559   5.484  14.837  0.8417 -0.0041  0.8268
  740TIP3   OH223710   1.818   4.392   4.714  0.4887  0.2381 -0.2434
  740TIP3    H123711   1.896   4.338   4.704  1.3231  1.4287 -0.2879
  740TIP3    H223712   1.822   4.455   4.642 -1.6093 -1.0012 -1.4805
  741TIP3   OH223713   4.342   4.412   5.140 -0.0038 -0.3405 -0.1356
  741TIP3    H123714   4.405   4.410   5.068  0.5196 -1.5823  0.3334
  741TIP3    H223715   4.257   4.397   5.098  0.1978 -0.2368 -0.5867
  742TIP3   OH223716   0.755   5.741  11.132  0.2306  0.6486  0.2126
  742TIP3    H123717   0.675   5.712  11.089  2.1305 -0.5216 -2.7152
  742TIP3    H223718   0.786   5.814  11.078  3.5250 -1.8838 -1.5553
  743TIP3   OH223719   4.358   4.175  12.350  0.3475  0.7479  0.3482
  743TIP3    H123720   4.308   4.251  12.379  0.6121  0.1321  2.4742
  743TIP3    H223721   4.293   4.104  12.345  0.9231  0.0075  2.8715
  744TIP3   OH223722   2.207   4.837  11.745  0.3892 -0.2285  0.6719
  744TIP3    H123723   2.164   4.865  11.664  2.0038 -0.9388 -0.4455
  744TIP3    H223724   2.165   4.754  11.767  0.0595 -0.1118  0.4964
  745TIP3   OH223725   0.978   5.564   2.592 -0.4553  0.6242  0.1644
  745TIP3    H123726   0.903   5.539   2.646 -1.0672  1.1839 -0.4205
  745TIP3    H223727   1.047   5.502   2.617 -0.8646  0.5920  1.2669
  746TIP3   OH223728   1.791   3.337  16.061 -0.1141 -0.5429 -0.5526
  746TIP3    H123729   1.834   3.417  16.092  0.3637 -1.3933  1.0477
  746TIP3    H223730   1.777   3.352  15.968  0.2081  1.3037 -0.3272
  747TIP3   OH223731   4.025   6.045   2.834  0.0441 -0.4926 -0.0088
  747TIP3    H123732   4.106   6.051   2.784  1.0726 -1.1697  1.5372
  747TIP3    H223733   3.960   6.091   2.780  1.3630 -0.2269 -1.4128
  748TIP3   OH223734   5.098   1.021   4.822 -0.3827  0.6921  0.3408
  748TIP3    H123735   5.064   1.037   4.734 -1.4776 -0.7331  0.4915
  748TIP3    H223736   5.190   1.000   4.808 -0.4646  0.8184 -0.4354
  749TIP3   OH223737   5.868   4.605   2.750 -0.4454 -0.5501 -0.4465
  749TIP3    H123738   5.911   4.687   2.771  0.0150 -0.6298 -1.0469
  749TIP3    H223739   5.867   4.603   2.654  1.2390 -2.1124 -0.4608
  750TIP3   OH223740   4.796   0.517   5.828 -0.4777 -0.2919 -0.1299
  750TIP3    H123741   4.720   0.466   5.855 -0.8739 -0.2390 -1.1094
  750TIP3    H223742   4.780   0.536   5.736  0.2549  0.5617 -0.0847
  751TIP3   OH223743   5.921   2.893   2.112 -0.3295 -0.1044 -0.4371
  751TIP3    H123744   5.846   2.904   2.171 -0.1430 -0.0631 -0.2061
  751TIP3    H223745   5.901   2.813   2.063 -2.0691  1.6238 -2.6913
  752TIP3   OH223746   3.206   0.367   6.124  0.2721 -0.4696  0.7444
  752TIP3    H123747   3.248   0.394   6.206  0.4754 -0.4207  0.6245
  752TIP3    H223748   3.159   0.445   6.094 -1.2436 -0.9947  1.7121
  753TIP3   OH223749   2.351   6.069  13.192 -0.7340 -0.0937  0.4130
  753TIP3    H123750   2.428   6.119  13.164 -0.7184  0.2916  1.1237
  753TIP3    H223751   2.387   5.989  13.229 -0.7011 -0.1359  0.2903
  754TIP3   OH223752   4.659   1.782  12.643  0.4668 -0.5958  0.4312
  754TIP3    H123753   4.575   1.738  12.638  0.6118 -0.9340  0.9127
  754TIP3    H223754   4.691   1.783  12.553 -1.4901  2.4124 -0.3076
  755TIP3   OH223755   1.073   1.769  14.292  0.2078 -0.1429 -0.4215
  755TIP3    H123756   0.988   1.779  14.336  0.9192  0.1948  0.8890
  755TIP3    H223757   1.060   1.808  14.205 -2.0089 -3.1307 -1.5526
  756TIP3   OH223758   1.976   5.761  14.203  0.7598 -0.1832  0.2110
  756TIP3    H123759   2.003   5.721  14.121  0.0067  0.2476 -0.2595
  756TIP3    H223760   2.000   5.697  14.270  0.4047 -1.0110 -0.4400
  757TIP3   OH223761   4.201   2.415   4.987 -0.2292 -0.5366 -0.3087
  757TIP3    H123762   4.230   2.419   4.896  1.5732  0.9810  0.3069
  757TIP3    H223763   4.237   2.494   5.027 -2.2160 -0.4432  1.3872
  758TIP3   OH223764   2.091   3.804  13.752  0.3969 -0.2085  0.1840
  758TIP3    H123765   2.174   3.848  13.736 -0.2275  0.4042 -1.4309
  758TIP3    H223766   2.054   3.788  13.665 -0.2137 -2.3532  0.7914
  759TIP3   OH223767   4.061   1.746   0.951 -0.0288 -0.3442 -0.4083
  759TIP3    H123768   4.076   1.801   0.873 -1.1679 -0.7448 -0.9118
  759TIP3    H223769   4.011   1.671   0.918 -0.2690 -0.6556  0.6636
  760TIP3   OH223770   0.506   2.983   4.194  0.2265  0.4943 -0.5164
  760TIP3    H123771   0.517   2.901   4.145  1.0409  0.8136 -0.8928
  760TIP3    H223772   0.425   2.972   4.242  0.3434 -0.5487 -0.5449
  761TIP3   OH223773   2.440   5.024   2.217  0.1923  0.1849 -0.1269
  761TIP3    H123774   2.407   5.064   2.137  1.1494 -1.4417 -1.3697
  761TIP3    H223775   2.478   4.941   2.188  1.2546 -0.0607  1.9093
  762TIP3   OH223776   4.863   5.380   1.338 -0.1724  0.5844  0.4708
  762TIP3    H123777   4.887   5.289   1.352  0.5247  0.5925 -0.6287
  762TIP3    H223778   4.862   5.418   1.426  1.3431 -0.0415  0.7737
  763TIP3   OH223779   5.071   0.108   5.071 -0.0257 -0.0478 -0.0296
  763TIP3    H123780   4.999   0.150   5.119  0.7129  0.6105  0.5312
  763TIP3    H223781   5.128   0.181   5.045  1.4135 -0.7125  1.1737
  764TIP3   OH223782   4.349   4.906   4.378  0.0149  0.0533  0.0195
  764TIP3    H123783   4.402   4.828   4.365 -0.5957 -0.1784 -1.1488
  764TIP3    H223784   4.289   4.883   4.448 -1.8164 -1.4173 -1.9731
  765TIP3   OH223785   3.749   0.852   3.507 -0.4421  0.2518  0.6032
  765TIP3    H123786   3.777   0.916   3.573 -1.0340  1.0362  0.1028
  765TIP3    H223787   3.777   0.767   3.542 -0.8497  0.6501  1.9113
  766TIP3   OH223788   3.555   4.401   2.153  0.1833  0.1331  0.0060
  766TIP3    H123789   3.497   4.471   2.183 -0.3268  0.6024 -2.0578
  766TIP3    H223790   3.611   4.383   2.229 -1.3222  1.0449  1.3710
  767TIP3   OH223791   1.459   0.276   3.541 -0.4298 -0.2159  1.2129
  767TIP3    H123792   1.384   0.335   3.547 -0.0799  0.3418  0.1436
  767TIP3    H223793   1.453   0.222   3.620 -0.9377  1.0257  2.0525
  768TIP3   OH223794   3.173   4.213   2.124 -0.1549 -0.1534 -0.5063
  768TIP3    H123795   3.125   4.142   2.168  0.5343 -0.1509  0.2622
  768TIP3    H223796   3.139   4.293   2.164  1.7044 -0.2154  1.3309
  769TIP3   OH223797   0.654   4.020  12.630 -0.1315 -0.2962  0.0785
  769TIP3    H123798   0.686   3.937  12.665 -0.9468 -1.4110 -1.7633
  769TIP3    H223799   0.560   4.019  12.649 -0.2290 -0.0174 -0.3913
  770TIP3   OH223800   2.876   4.489   3.935 -0.1692 -0.2821 -0.1745
  770TIP3    H123801   2.938   4.508   4.006 -0.4156  0.2234 -0.0945
  770TIP3    H223802   2.895   4.555   3.869 -0.0035 -0.6959 -0.5390
  771TIP3   OH223803   5.685   5.366   4.300 -0.4501  0.2727 -0.9325
  771TIP3    H123804   5.636   5.443   4.271 -0.1455  0.0521 -2.0427
  771TIP3    H223805   5.725   5.332   4.221  1.8774  0.7140  0.0310
  772TIP3   OH223806   0.886   2.017   1.150 -0.0054  0.4813 -0.1172
  772TIP3    H123807   0.896   2.071   1.227 -2.1711  0.8947 -0.1013
  772TIP3    H223808   0.952   2.050   1.088 -1.4768  3.3672 -0.2312
  773TIP3   OH223809   6.068   1.802   3.542 -0.2629  0.4869 -0.4463
  773TIP3    H123810   6.096   1.721   3.586 -0.0694  0.9073  0.2159
  773TIP3    H223811   6.075   1.782   3.449  1.5003  0.3179 -0.3046
  774TIP3   OH223812   0.134   4.267   4.106  0.1615 -0.5086 -0.4284
  774TIP3    H123813   0.171   4.303   4.186 -0.2052  0.0966 -0.5308
  774TIP3    H223814   0.070   4.332   4.077  2.2318  0.6472 -2.6914
  775TIP3   OH223815   5.080   4.969  12.818 -0.1449  0.2460 -0.4311
  775TIP3    H123816   5.081   5.026  12.895  1.9183 -2.0473  1.2986
  775TIP3    H223817   5.127   5.018  12.751  0.7879  0.9720  0.7456
  776TIP3   OH223818   3.731   6.140   3.999  0.0429 -0.2070  0.2794
  776TIP3    H123819   3.736   6.223   3.951 -0.4194  0.5528  1.5102
  776TIP3    H223820   3.787   6.080   3.950 -1.2141  0.2516 -1.7781
  777TIP3   OH223821   3.517   0.538   5.008  0.3249  0.0170  0.0240
  777TIP3    H123822   3.499   0.622   5.050  1.0269 -1.7193  4.0879
  777TIP3    H223823   3.606   0.516   5.037  0.0148 -2.2532 -0.6763
  778TIP3   OH223824   3.257   6.363   3.712 -0.2369  0.1065 -0.1095
  778TIP3    H123825   3.199   6.307   3.764 -1.0421  1.5150  0.5506
  778TIP3    H223826   3.339   6.367   3.761 -0.8336  1.0420  0.8354
  779TIP3   OH223827   5.816   5.196   2.194  0.3272 -0.1731  0.3155
  779TIP3    H123828   5.839   5.272   2.141 -1.0889  1.1400  1.5224
  779TIP3    H223829   5.880   5.196   2.265  1.2287 -0.9899 -0.4788
  780TIP3   OH223830   3.795   6.323  15.405 -0.2815 -0.1213 -0.2432
  780TIP3    H123831   3.707   6.286  15.397  0.5811 -2.4906  0.9463
  780TIP3    H223832   3.799   6.355  15.495  0.0861  0.0222 -0.3098
  781TIP3   OH223833   1.625   2.224  11.826  0.3703 -0.0539  0.0689
  781TIP3    H123834   1.531   2.245  11.820  0.2037 -0.9880 -0.6993
  781TIP3    H223835   1.645   2.234  11.919 -0.8388 -1.2699  0.4839
  782TIP3   OH223836   5.461   3.623   5.917 -0.2277  0.6010  0.7341
  782TIP3    H123837   5.394   3.650   5.854 -0.9234 -2.3953  0.0777
  782TIP3    H223838   5.424   3.645   6.002 -1.1018  0.9341  0.2814
  783TIP3   OH223839   1.131   1.744   1.872  0.0619  0.6909 -0.0633
  783TIP3    H123840   1.215   1.780   1.900  0.6465  0.3547 -1.3809
  783TIP3    H223841   1.077   1.748   1.951  1.5806  0.1024  1.0400
  784TIP3   OH223842   1.204   2.677   0.181 -0.3582  0.4271 -0.7966
  784TIP3    H123843   1.240   2.589   0.193 -0.2684  0.6843  0.9760
  784TIP3    H223844   1.114   2.670   0.213 -0.7742  0.6774 -1.8754
  785TIP3   OH223845   0.944   5.052   6.420 -0.1098 -0.1956  0.1554
  785TIP3    H123846   0.901   4.973   6.451  0.1235 -0.0069  0.9482
  785TIP3    H223847   0.888   5.123   6.450  0.4640  0.0218  0.7050
  786TIP3   OH223848   2.239   2.297  15.209 -0.2516  0.7997 -0.1369
  786TIP3    H123849   2.301   2.352  15.161 -0.5738  1.5856  0.3441
  786TIP3    H223850   2.163   2.353  15.223 -1.3675 -0.3749 -1.3278
  787TIP3   OH223851   5.411   6.642  16.865  0.7289 -0.1827 -0.2716
  787TIP3    H123852   5.491   6.689  16.841  0.1804  1.4448  0.9875
  787TIP3    H223853   5.341   6.706  16.855 -0.2318 -1.1428  0.1193
  788TIP3   OH223854   3.156   3.365   2.720  0.1225 -0.3308 -0.0342
  788TIP3    H123855   3.187   3.347   2.809 -0.4344 -1.8826 -0.1498
  788TIP3    H223856   3.236   3.367   2.667  0.5943  1.8286  0.6613
  789TIP3   OH223857   5.798   3.843   3.470  0.2708 -0.6467  0.4041
  789TIP3    H123858   5.853   3.866   3.394  0.1748  0.9918  0.8294
  789TIP3    H223859   5.716   3.811   3.431 -0.0793  0.9363 -0.1763
  790TIP3   OH223860   6.148   3.507  15.399  0.8663 -0.3965  0.1926
  790TIP3    H123861   6.199   3.586  15.419  1.2817 -0.9766  1.4887
  790TIP3    H223862   6.184   3.440  15.458  0.2011 -1.4267 -0.5666
  791TIP3   OH223863   1.250   4.459  13.663  0.6219 -0.6659 -0.1026
  791TIP3    H123864   1.232   4.365  13.666  0.8987 -0.6901  1.9927
  791TIP3    H223865   1.175   4.498  13.708  0.7227  0.0824 -0.5877
  792TIP3   OH223866   0.147   3.537   1.589  0.4523 -0.1285  0.0905
  792TIP3    H123867   0.193   3.517   1.507 -0.7849 -1.1161 -0.3872
  792TIP3    H223868   0.073   3.476   1.590 -0.5373  1.0619  1.0940
  793TIP3   OH223869   5.398   3.988  13.078  0.4097  0.5251  0.2935
  793TIP3    H123870   5.422   3.926  13.148 -2.0236 -1.5907 -0.6736
  793TIP3    H223871   5.389   4.072  13.123  0.5592 -0.4725  2.2464
  794TIP3   OH223872   0.863   2.672  13.417  0.0893 -0.3819  0.0099
  794TIP3    H123873   0.791   2.716  13.371 -0.4009 -1.4959 -0.3104
  794TIP3    H223874   0.850   2.579  13.397  1.2476 -0.6448  0.4830
  795TIP3   OH223875   1.836   0.666  16.165  0.0255  0.5638 -0.1052
  795TIP3    H123876   1.866   0.666  16.256  0.2287 -0.8897 -0.1544
  795TIP3    H223877   1.781   0.587  16.158 -0.9305  1.2877 -0.9414
  796TIP3   OH223878   0.057   0.847  13.980  0.7182 -0.0831 -0.1048
  796TIP3    H123879   0.103   0.801  14.051  0.5410  1.3282  0.9323
  796TIP3    H223880   0.114   0.835  13.903 -0.1015 -3.4292 -0.3011
  797TIP3   OH223881   1.823   5.369   1.237 -0.7248 -0.1212 -0.3200
  797TIP3    H123882   1.748   5.423   1.265 -0.4626 -0.4723  1.0793
  797TIP3    H223883   1.845   5.316   1.314  0.2489 -0.8442 -1.0812
  798TIP3   OH223884   2.916   4.786   2.903  0.2177 -0.2098 -0.3786
  798TIP3    H123885   2.902   4.852   2.835 -1.1219  0.1603  0.2235
  798TIP3    H223886   2.844   4.723   2.890 -0.3284  0.1220  0.9752
  799TIP3   OH223887   2.214   5.535  12.778  0.0924  0.1727  0.1250
  799TIP3    H123888   2.296   5.512  12.823  0.5073 -0.3637 -0.8753
  799TIP3    H223889   2.169   5.452  12.766 -1.5120  0.6769  2.3504
  800TIP3   OH223890   6.419   4.308  13.999 -0.4595  0.5173 -0.1779
  800TIP3    H123891   6.346   4.352  14.043 -0.3202  0.9907 -0.4092
  800TIP3    H223892   6.427   4.224  14.044  0.1829  1.3126  1.2272
  801TIP3   OH223893   3.305   3.867   1.864  0.1797 -0.1607 -0.1261
  801TIP3    H123894   3.363   3.923   1.812 -0.4741  0.8222  0.1752
  801TIP3    H223895   3.296   3.787   1.813  0.7718  0.1950 -0.7913
  802TIP3   OH223896   3.150   1.611   3.062  0.1245 -0.4650 -0.6334
  802TIP3    H123897   3.158   1.700   3.096 -0.1871 -0.1326 -1.4126
  802TIP3    H223898   3.062   1.583   3.088  0.4893 -0.8168  0.2353
  803TIP3   OH223899   4.107   2.047   0.739  0.3059 -0.2588  0.1297
  803TIP3    H123900   4.105   2.142   0.743  0.0701 -0.2570 -0.0456
  803TIP3    H223901   4.015   2.021   0.743  0.2857 -0.4289 -1.2435
  804TIP3   OH223902   2.362   2.068  11.769  0.3794  0.0295 -0.2306
  804TIP3    H123903   2.269   2.077  11.750  0.7979  1.9512 -1.4940
  804TIP3    H223904   2.389   1.991  11.720 -0.0657  0.8494 -1.8082
  805TIP3   OH223905   5.258   0.395  17.243 -0.9185 -0.5078 -0.2263
  805TIP3    H123906   5.321   0.461  17.213 -0.2308 -0.7253  0.7060
  805TIP3    H223907   5.296   0.312  17.214 -1.4942 -0.5412 -0.8953
  806TIP3   OH223908   1.428   1.481  15.087  0.4761 -0.0688 -0.4045
  806TIP3    H123909   1.520   1.481  15.113  0.3912  2.8942  0.0639
  806TIP3    H223910   1.396   1.395  15.114  3.0553 -1.0910 -0.4293
  807TIP3   OH223911   3.749   1.459   5.618  0.2306  0.2400  0.3310
  807TIP3    H123912   3.673   1.499   5.659 -0.1581 -0.5947  0.4405
  807TIP3    H223913   3.731   1.365   5.620  1.5484 -0.0201  0.9628
  808TIP3   OH223914   2.389   2.941   6.636 -0.3656  0.2459  0.2378
  808TIP3    H123915   2.358   2.883   6.706  0.2166  1.5458  1.6161
  808TIP3    H223916   2.480   2.960   6.659 -0.5137  1.5886 -0.2375
  809TIP3   OH223917   5.873   0.366  13.959  0.5620  0.3791 -0.5231
  809TIP3    H123918   5.887   0.346  13.867  1.8682  1.9893 -0.7072
  809TIP3    H223919   5.848   0.459  13.960  0.3569  0.3213  0.7222
  810TIP3   OH223920   3.257   1.843  13.063 -0.3682 -0.2781 -0.0151
  810TIP3    H123921   3.202   1.810  12.992  0.1797  0.2165 -0.6789
  810TIP3    H223922   3.196   1.882  13.125 -0.9193 -1.4562  0.1889
  811TIP3   OH223923   0.799   5.093  13.378  0.2970  0.0372 -0.2443
  811TIP3    H123924   0.857   5.152  13.329 -0.6345  1.1874  0.0088
  811TIP3    H223925   0.853   5.016  13.396  1.5461  0.8165 -0.5692
  812TIP3   OH223926   0.350   5.289  15.203  0.3699  0.4501  0.0497
  812TIP3    H123927   0.348   5.384  15.207 -1.4822  0.4139  0.2269
  812TIP3    H223928   0.258   5.262  15.202  0.8594 -1.3265 -0.2397
  813TIP3   OH223929   5.692   1.001   0.576  0.7192 -1.0065  0.2898
  813TIP3    H123930   5.665   1.010   0.485  0.2825  0.6697  0.5723
  813TIP3    H223931   5.650   0.920   0.606  0.6989 -1.4566 -0.9267
  814TIP3   OH223932   0.229   1.699  15.587 -0.3920  0.1788  0.2665
  814TIP3    H123933   0.246   1.636  15.517 -0.4093 -0.7957  1.1394
  814TIP3    H223934   0.134   1.710  15.587 -0.3397  0.6875 -0.2961
  815TIP3   OH223935   3.115   1.096   2.872  0.3025 -0.0064  0.0359
  815TIP3    H123936   3.174   1.128   2.803 -2.0928  0.5934 -1.7924
  815TIP3    H223937   3.096   1.173   2.925 -0.7149  0.3278 -0.8019
  816TIP3   OH223938   0.440   4.916  16.724  0.5545 -0.1201  0.3390
  816TIP3    H123939   0.398   4.889  16.805  0.5402  0.7470  0.6235
  816TIP3    H223940   0.528   4.879  16.729 -0.4100 -2.6694 -0.6493
  817TIP3   OH223941   3.081   4.522   4.097 -0.4343 -0.3266 -0.5576
  817TIP3    H123942   3.138   4.451   4.065  0.0800 -0.1403 -0.0747
  817TIP3    H223943   3.130   4.602   4.077 -0.3788 -0.1819  0.1555
  818TIP3   OH223944   0.064   5.359   5.847  0.4912  0.7439 -0.7731
  818TIP3    H123945   0.011   5.313   5.782  1.9302 -1.9795 -0.0568
  818TIP3    H223946  -0.000   5.399   5.907 -0.8301 -3.7960  1.0133
  819TIP3   OH223947   0.384   4.615  10.600 -0.0820 -0.5658 -0.6173
  819TIP3    H123948   0.345   4.692  10.641  1.3608 -0.0125 -0.2424
  819TIP3    H223949   0.314   4.577  10.547 -1.2278  0.1658  0.3586
  820TIP3   OH223950   2.559   1.268   5.752 -0.4960  0.1146  0.0610
  820TIP3    H123951   2.650   1.255   5.777 -0.2666  2.1066  0.3870
  820TIP3    H223952   2.515   1.187   5.775  0.9708 -0.4295  0.9876
  821TIP3   OH223953   6.428   6.051  12.445 -0.7293  0.2074  0.1488
  821TIP3    H123954   6.393   6.034  12.358 -0.4321 -0.0091  0.0741
  821TIP3    H223955   6.353   6.034  12.504 -1.0430  0.7485 -0.0924
  822TIP3   OH223956   2.611   0.103  16.697 -0.0252  0.3915  0.6031
  822TIP3    H123957   2.695   0.059  16.689  0.1053  0.7486 -0.0134
  822TIP3    H223958   2.597   0.145  16.612 -1.3374 -0.5535  0.3355
  823TIP3   OH223959   6.395   2.333  13.983  0.2682  0.4847 -0.1307
  823TIP3    H123960   6.300   2.328  13.988  0.2721  1.3639  0.9635
  823TIP3    H223961   6.425   2.246  14.009 -0.2230  0.3723  0.0629
  824TIP3   OH223962   1.873   0.143   0.828 -0.0773  0.4257 -0.4088
  824TIP3    H123963   1.945   0.092   0.791 -0.9622 -0.8806 -0.3419
  824TIP3    H223964   1.881   0.229   0.785  3.0342  1.1474  1.4833
  825TIP3   OH223965   4.386   3.758   2.673 -0.3646 -0.2849  0.1590
  825TIP3    H123966   4.463   3.794   2.716 -0.1903 -1.5186  0.9014
  825TIP3    H223967   4.419   3.685   2.621 -0.7986  0.2289 -0.8355
  826TIP3   OH223968   5.113   0.147  11.750 -0.2302  0.5406 -0.7535
  826TIP3    H123969   5.044   0.083  11.766  1.1313 -0.3983  1.5089
  826TIP3    H223970   5.142   0.129  11.660 -1.6999 -0.2296 -1.0772
  827TIP3   OH223971   5.324   6.186   0.773 -0.4738 -0.3040  0.3591
  827TIP3    H123972   5.413   6.155   0.787 -0.1999  1.2676  2.3290
  827TIP3    H223973   5.269   6.108   0.784  0.5267 -0.9733  0.6517
  828TIP3   OH223974   3.293   2.947  12.986 -0.5172 -0.1518 -0.3122
  828TIP3    H123975   3.229   2.879  12.966 -0.3476 -0.0215 -1.2864
  828TIP3    H223976   3.267   3.022  12.933  0.8773 -0.3359 -1.2965
  829TIP3   OH223977   4.997   4.012  13.093  0.0166  0.5427  0.1520
  829TIP3    H123978   5.014   4.078  13.160 -2.0039  2.4074 -1.1072
  829TIP3    H223979   4.948   4.058  13.025 -0.7679 -2.0668 -1.1313
  830TIP3   OH223980   0.193   4.850  15.041  0.0448  0.2291 -0.6616
  830TIP3    H123981   0.163   4.924  14.989 -1.5424 -0.6624 -1.0518
  830TIP3    H223982   0.152   4.773  15.001  1.5686 -0.8593 -0.1969
  831TIP3   OH223983   6.192   3.495  11.436 -0.4152 -0.5595  0.5857
  831TIP3    H123984   6.288   3.488  11.431 -0.5176 -0.8334 -0.9892
  831TIP3    H223985   6.171   3.574  11.385 -1.2480 -1.9980 -1.3249
  832TIP3   OH223986   3.265   2.246   2.287 -0.1228 -0.0289  0.6432
  832TIP3    H123987   3.245   2.187   2.359 -2.3613 -0.7066 -0.4940
  832TIP3    H223988   3.185   2.249   2.235  0.3478  3.0447 -0.0216
  833TIP3   OH223989   4.836   5.486   5.085 -0.3463 -0.2524  0.1515
  833TIP3    H123990   4.897   5.472   5.157 -0.3024  0.7911  0.3219
  833TIP3    H223991   4.889   5.475   5.006 -0.3712 -1.2902  0.2713
  834TIP3   OH223992   5.710   3.607  16.753 -0.3720  0.1028  0.1954
  834TIP3    H123993   5.677   3.621  16.664  2.9480 -0.3989 -1.2129
  834TIP3    H223994   5.764   3.684  16.770 -0.8935  0.1281  1.7291
  835TIP3   OH223995   5.475   0.524   5.263  0.3128 -0.2562  0.0078
  835TIP3    H123996   5.420   0.446   5.261 -0.1006 -0.0131  1.2987
  835TIP3    H223997   5.522   0.523   5.179  1.0075 -2.3834  0.3917
  836TIP3   OH223998   0.540   4.909  15.565  0.3066  0.5026 -0.1554
  836TIP3    H123999   0.451   4.935  15.544  0.1429  0.2707  0.2445
  836TIP3    H224000   0.530   4.832  15.621  0.7749 -0.6850 -1.6388
  837TIP3   OH224001   6.350   6.429  16.461 -0.1459 -0.0642  0.1243
  837TIP3    H124002   6.265   6.385  16.458  0.3945 -1.3377  2.7053
  837TIP3    H224003   6.400   6.381  16.526  2.2564  1.2542 -0.6829
  838TIP3   OH224004   5.786   3.732  10.260 -0.5992  0.7750  0.1320
  838TIP3    H124005   5.694   3.746  10.282 -0.4533  1.5043  0.2962
  838TIP3    H224006   5.793   3.638  10.241 -1.1539  0.5135  1.1942
  839TIP3   OH224007   5.548   1.287   4.671  0.5157  0.2386 -0.1778
  839TIP3    H124008   5.460   1.259   4.698  0.9886 -0.7512  0.3662
  839TIP3    H224009   5.557   1.253   4.581  0.6311 -0.3404  0.0485
  840TIP3   OH224010   4.588   1.830   4.438  0.7199 -0.2197  0.2811
  840TIP3    H124011   4.547   1.772   4.374 -1.3371  1.2541  0.2388
  840TIP3    H224012   4.617   1.905   4.388 -0.1938  0.5803  0.9247
  841TIP3   OH224013   0.997   3.891   6.621  0.1310  0.5371 -0.5444
  841TIP3    H124014   1.033   3.802   6.622  0.3904  0.6423  0.4347
  841TIP3    H224015   0.911   3.883   6.661 -0.3050  0.5380 -1.4920
  842TIP3   OH224016   5.003   0.806   4.338 -0.4731 -0.6957  0.1747
  842TIP3    H124017   5.027   0.732   4.394 -0.3572 -0.1809  0.8203
  842TIP3    H224018   5.051   0.791   4.256  0.3463 -0.8074  0.6680
  843TIP3   OH224019   1.031   5.103  11.209 -0.0320 -0.1055 -0.1542
  843TIP3    H124020   0.978   5.136  11.282  1.3056 -1.0092  1.2578
  843TIP3    H224021   1.004   5.012  11.199  0.4049 -0.2308 -0.2048
  844TIP3   OH224022   2.493   4.582  14.620  0.3455  0.2156 -0.2337
  844TIP3    H124023   2.483   4.641  14.545  2.7660 -0.3209 -1.0083
  844TIP3    H224024   2.409   4.535  14.624  0.8408 -1.1643 -3.8845
  845TIP3   OH224025   4.835   0.783  14.327  0.9765  0.0395 -0.1692
  845TIP3    H124026   4.857   0.707  14.273  2.6751  1.3386 -1.3853
  845TIP3    H224027   4.745   0.768  14.354  1.8252 -3.2777  1.1131
  846TIP3   OH224028   3.248   1.617  14.997 -0.0210 -0.0153 -0.0497
  846TIP3    H124029   3.331   1.587  15.032 -1.6043 -2.3449  1.8535
  846TIP3    H224030   3.201   1.651  15.073 -1.9404 -1.3836 -0.6044
  847TIP3   OH224031   1.283   6.655   1.659 -0.4941  0.5109 -0.2750
  847TIP3    H124032   1.251   6.743   1.681  0.5896  0.6229  0.9371
  847TIP3    H224033   1.378   6.661   1.668 -0.5531 -1.4218  2.3521
  848TIP3   OH224034   5.928   3.454   1.747 -0.0279 -0.5660  0.0613
  848TIP3    H124035   5.888   3.532   1.787  1.3597 -0.7876  1.9868
  848TIP3    H224036   5.996   3.489   1.689 -1.3647 -0.2657 -1.3325
  849TIP3   OH224037   3.748   1.210  14.468  0.0265 -0.0255  0.4675
  849TIP3    H124038   3.772   1.297  14.500 -1.0055  0.2063  0.6553
  849TIP3    H224039   3.801   1.149  14.520  0.5620  0.4812  0.5152
  850TIP3   OH224040   2.590   2.420   2.988  0.3512  0.1720  0.5947
  850TIP3    H124041   2.499   2.412   2.959 -0.0263 -0.4234  1.9225
  850TIP3    H224042   2.594   2.369   3.069  1.8416  0.2850  0.6049
  851TIP3   OH224043   4.043   4.255  11.105 -0.2447 -0.1304  0.1350
  851TIP3    H124044   3.949   4.264  11.089 -0.2903  0.1784  0.5438
  851TIP3    H224045   4.049   4.236  11.199 -0.0487 -2.8499 -0.3868
  852TIP3   OH224046   1.089   2.030  14.643  0.4815  0.3132 -0.2577
  852TIP3    H124047   1.055   2.097  14.584  0.1925  1.2191  0.9333
  852TIP3    H224048   1.168   1.998  14.599 -0.0319  0.5802 -1.4035
  853TIP3   OH224049   1.316   4.526   3.917 -0.0896  0.4194  0.2887
  853TIP3    H124050   1.378   4.565   3.856 -0.6149 -0.1672 -0.6483
  853TIP3    H224051   1.297   4.439   3.880 -1.0977  0.4041  0.8083
  854TIP3   OH224052   1.335   4.442  11.336 -0.0043  0.0114 -0.1946
  854TIP3    H124053   1.365   4.371  11.280 -0.6085 -1.6776  1.5783
  854TIP3    H224054   1.258   4.407  11.380 -0.1418  1.6717  0.9275
  855TIP3   OH224055   4.542   6.408   4.686  0.6144 -0.0429 -0.2649
  855TIP3    H124056   4.502   6.489   4.719 -1.3281 -0.5615 -1.2685
  855TIP3    H224057   4.556   6.424   4.593 -0.9903 -1.2948 -0.7504
  856TIP3   OH224058   2.105   2.334   1.455  0.1888  0.0184  0.0426
  856TIP3    H124059   2.131   2.300   1.370  1.1694 -0.7259  0.6375
  856TIP3    H224060   2.145   2.421   1.459  1.4239 -0.5570  0.3666
  857TIP3   OH224061   5.828   3.169   3.762  0.3649 -0.3495  0.1442
  857TIP3    H124062   5.888   3.184   3.835  0.2605 -1.4411  0.4679
  857TIP3    H224063   5.790   3.255   3.744  0.2551 -0.0991  1.4958
  858TIP3   OH224064   6.206   6.649   5.836 -0.2602  0.0438  0.2288
  858TIP3    H124065   6.285   6.636   5.783 -1.7409  0.5525 -2.1709
  858TIP3    H224066   6.161   6.565   5.834 -0.7981  0.3410 -0.1050
  859TIP3   OH224067   2.258   2.754   4.461 -0.0444  0.1314 -0.0892
  859TIP3    H124068   2.309   2.835   4.470  1.3807 -0.7291 -0.4436
  859TIP3    H224069   2.308   2.688   4.509 -0.9825 -0.6551 -0.1718
  860TIP3   OH224070   4.466   2.713  12.192 -0.2912  0.3008 -0.3897
  860TIP3    H124071   4.425   2.736  12.276  1.2376 -0.3149  0.5604
  860TIP3    H224072   4.426   2.772  12.128 -2.0283  0.2592  0.6515
  861TIP3   OH224073   6.121   4.961   3.746 -0.1703 -0.4979  0.7204
  861TIP3    H124074   6.029   4.937   3.762  0.3735 -1.4123  2.5375
  861TIP3    H224075   6.136   4.933   3.655 -2.0521  0.8840 -0.0636
  862TIP3   OH224076   2.382   1.123   4.248 -0.2723 -0.6183 -0.1113
  862TIP3    H124077   2.459   1.128   4.192 -0.5304  1.2914 -0.3294
  862TIP3    H224078   2.346   1.212   4.248 -2.0071 -1.2881  0.6500
  863TIP3   OH224079   3.482   5.659  12.022 -0.3805 -0.1648  0.3948
  863TIP3    H124080   3.539   5.610  12.081  1.6744  0.6699 -0.8467
  863TIP3    H224081   3.499   5.622  11.935  1.8283  3.1728 -0.7099
  864TIP3   OH224082   1.520   5.941  12.163 -0.4399  0.0869  0.3299
  864TIP3    H124083   1.511   5.934  12.068 -0.7864  0.5211  0.3290
  864TIP3    H224084   1.611   5.968  12.176 -0.7577  1.3262  0.0507
  865TIP3   OH224085   0.026   3.487  11.613  0.5419 -0.5536  0.7080
  865TIP3    H124086  -0.012   3.400  11.602  1.4567 -0.7423 -1.1158
  865TIP3    H224087   0.062   3.487  11.702 -1.7081 -1.1309  1.6479
  866TIP3   OH224088   6.338   5.031   5.399  0.3598 -0.0439 -0.0528
  866TIP3    H124089   6.260   5.043   5.344 -0.9779  0.1568  1.8205
  866TIP3    H224090   6.304   4.991   5.480  2.6231 -2.6780 -0.3241
  867TIP3   OH224091   1.252   1.982   2.840  0.0867 -0.0948  0.5303
  867TIP3    H124092   1.298   2.066   2.834 -0.7623  0.5666  2.6408
  867TIP3    H224093   1.162   2.003   2.816  0.0043 -0.5315  0.4589
  868TIP3   OH224094   1.234   0.522   0.484  0.7996  0.1023  0.2267
  868TIP3    H124095   1.270   0.541   0.397 -0.6640  0.1808 -0.3827
  868TIP3    H224096   1.298   0.464   0.524  1.3629 -0.1530 -1.0166
  869TIP3   OH224097   5.072   1.184  12.930 -0.0314  0.1900 -0.0648
  869TIP3    H124098   5.130   1.116  12.961  2.0107  1.1691 -1.5948
  869TIP3    H224099   5.084   1.184  12.835 -1.8783  1.0024 -0.3229
  870TIP3   OH224100   3.763   4.313  13.627  0.6180 -0.1766  0.4761
  870TIP3    H124101   3.775   4.223  13.597  1.9928 -0.1011  0.7887
  870TIP3    H224102   3.845   4.335  13.672  0.9105  1.7512 -0.9374
  871TIP3   OH224103   2.689   4.239  13.236  0.3467  0.6776  0.0146
  871TIP3    H124104   2.742   4.319  13.239 -0.9085  1.5408 -0.5342
  871TIP3    H224105   2.617   4.260  13.177 -0.9621 -0.2749  1.2434
  872TIP3   OH224106   3.641   4.299   3.285  0.5348 -0.2138  0.2648
  872TIP3    H124107   3.632   4.316   3.379  1.2845 -1.2562  0.5334
  872TIP3    H224108   3.681   4.213   3.280 -0.7304 -0.7464 -1.0321
  873TIP3   OH224109   5.269   2.278  16.559 -0.0771  0.5862 -0.4663
  873TIP3    H124110   5.325   2.270  16.636 -1.7947  0.4503  0.7960
  873TIP3    H224111   5.329   2.273  16.485  1.8980  3.0393  0.8999
  874TIP3   OH224112   1.782   4.049   4.503  0.5901 -0.1921  0.2772
  874TIP3    H124113   1.855   3.995   4.533  1.7970  1.1968 -0.1294
  874TIP3    H224114   1.809   4.080   4.416  0.0653  1.3561  0.6605
  875TIP3   OH224115   6.432   4.496  10.899  0.0557  1.3349  0.0698
  875TIP3    H124116   6.524   4.514  10.919  0.1372  1.6059 -0.5525
  875TIP3    H224117   6.389   4.581  10.909  0.3590  1.8234 -2.3936
  876TIP3   OH224118   6.420   2.943  16.947 -0.0677  0.3139 -0.2330
  876TIP3    H124119   6.513   2.966  16.953 -0.3393  1.9882 -1.8990
  876TIP3    H224120   6.396   2.963  16.857 -2.0644 -0.0289  0.1950
  877TIP3   OH224121   5.065   2.661   0.982  0.0907 -0.1329 -0.8055
  877TIP3    H124122   4.999   2.630   1.043  1.0257  0.5649  0.5956
  877TIP3    H224123   5.143   2.611   1.003  1.2798  2.2406  0.6809
  878TIP3   OH224124   0.965   2.150   2.061  0.5691  0.2987  0.1680
  878TIP3    H124125   0.931   2.101   2.136  0.0439  0.7023  0.1991
  878TIP3    H224126   0.956   2.242   2.086 -3.2005  0.6009 -1.8574
  879TIP3   OH224127   2.615   1.381   3.085  0.1512  0.0237  0.1139
  879TIP3    H124128   2.646   1.295   3.113  0.8358 -0.0621 -0.8967
  879TIP3    H224129   2.520   1.370   3.078  0.4373 -1.2442 -2.0082
  880TIP3   OH224130   2.213   0.858   2.076 -0.1594 -0.6264  0.0061
  880TIP3    H124131   2.224   0.863   2.171 -0.1607 -0.3850 -0.0056
  880TIP3    H224132   2.167   0.939   2.053 -0.6730 -0.9537 -0.1302
  881TIP3   OH224133   5.392   3.316   3.006 -0.3154 -0.3354  0.0595
  881TIP3    H124134   5.435   3.367   2.938 -1.6784 -0.6071 -1.0509
  881TIP3    H224135   5.438   3.232   3.006 -0.1256 -0.2328 -0.3552
  882TIP3   OH224136   3.497   4.267  13.019  0.2481  0.1710 -0.4843
  882TIP3    H124137   3.588   4.284  12.997  0.1925  0.7226 -0.2901
  882TIP3    H224138   3.464   4.213  12.947  0.6178  0.3021 -0.7499
  883TIP3   OH224139   1.896   1.791  13.581  0.1018 -0.6405  0.1125
  883TIP3    H124140   1.807   1.756  13.590 -0.3423  0.4992  0.2933
  883TIP3    H224141   1.945   1.751  13.652 -0.0128 -2.0172 -0.5505
  884TIP3   OH224142   6.401   6.642   4.942 -0.1705 -0.2781 -0.7224
  884TIP3    H124143   6.391   6.653   4.847  0.3607 -0.1245 -0.7630
  884TIP3    H224144   6.467   6.707   4.966 -2.5106  1.7925  0.2457
  885TIP3   OH224145   6.640   1.453   5.871 -0.9929 -0.2631 -0.1876
  885TIP3    H124146   6.550   1.419   5.870 -0.7503 -0.9554  0.9926
  885TIP3    H224147   6.649   1.493   5.958 -0.4844  0.6947 -0.6787
  886TIP3   OH224148   1.887   0.287   4.212 -0.5676  0.0304 -0.2935
  886TIP3    H124149   1.841   0.244   4.284 -0.0064  0.1642  0.1512
  886TIP3    H224150   1.965   0.233   4.197  0.2441  0.9948  0.4041
  887TIP3   OH224151   4.444   5.895   5.445 -0.3908  0.0658  0.3034
  887TIP3    H124152   4.381   5.957   5.481  0.8894  1.3321  0.3776
  887TIP3    H224153   4.437   5.818   5.502 -1.3527  0.4574  0.7324
  888TIP3   OH224154   4.037   3.254   5.572  0.5040  0.1303  0.4012
  888TIP3    H124155   3.996   3.172   5.545  0.3352  0.1185  0.6842
  888TIP3    H224156   4.066   3.295   5.491 -2.2865  1.3193 -0.0439
  889TIP3   OH224157   3.065   0.223  16.456 -0.0401 -0.4743  0.7880
  889TIP3    H124158   3.115   0.300  16.480 -0.3498 -0.2159  0.6106
  889TIP3    H224159   3.053   0.229  16.361  1.2926 -1.5607  0.5353
  890TIP3   OH224160   4.139   1.744  15.312 -0.1275  0.0021  0.7550
  890TIP3    H124161   4.097   1.821  15.274  0.6543 -0.9359 -2.1538
  890TIP3    H224162   4.221   1.776  15.349 -0.1820  0.6877  0.2819
  891TIP3   OH224163   0.159   4.417   5.555  0.0922 -0.0597  0.0637
  891TIP3    H124164   0.093   4.359   5.594  0.5746  0.4586  1.6924
  891TIP3    H224165   0.127   4.433   5.466 -1.1446 -1.0945  0.3004
  892TIP3   OH224166   5.640   0.007  12.669  0.6841 -0.1466  0.3146
  892TIP3    H124167   5.607   0.097  12.664  1.1126 -0.0123 -0.1185
  892TIP3    H224168   5.678  -0.009  12.583  0.0086 -0.9784  0.1582
  893TIP3   OH224169   0.780   2.787   2.898  0.0435  0.7773 -0.2629
  893TIP3    H124170   0.775   2.795   2.993  1.2294 -0.6957 -0.0704
  893TIP3    H224171   0.725   2.712   2.877  1.3257 -0.0939 -0.5449
  894TIP3   OH224172   6.161   1.009   6.182 -0.3780  0.3744  0.3630
  894TIP3    H124173   6.072   0.980   6.205 -0.0650  0.1213  1.2964
  894TIP3    H224174   6.210   1.001   6.264  0.7323 -0.3369 -0.3583
  895TIP3   OH224175   3.401   1.683   0.660 -0.0856  0.4166 -0.6200
  895TIP3    H124176   3.319   1.720   0.628 -0.5188 -1.8063 -2.1830
  895TIP3    H224177   3.469   1.731   0.613 -0.5534  0.8773 -0.8300
  896TIP3   OH224178   4.100   6.001   4.352 -0.4461  0.4115  0.0334
  896TIP3    H124179   4.062   6.056   4.421  0.9111  0.8569  0.4326
  896TIP3    H224180   4.189   5.982   4.381 -0.5974 -1.2740 -0.5359
  897TIP3   OH224181   1.511   1.018   3.483 -0.0793  0.5095 -0.3094
  897TIP3    H124182   1.481   1.055   3.400  0.1985  2.3438  0.3823
  897TIP3    H224183   1.473   0.930   3.485 -2.8953  1.6421 -0.8439
  898TIP3   OH224184   3.496   0.529  12.356  0.1511  0.3284 -0.7799
  898TIP3    H124185   3.491   0.624  12.347 -1.2207  0.2510 -1.0142
  898TIP3    H224186   3.586   0.511  12.382  0.6594  1.6166 -1.6546
  899TIP3   OH224187   5.881   4.990  14.855  0.1461  0.6652  0.2232
  899TIP3    H124188   5.891   5.008  14.762  1.1769 -0.5070  0.0880
  899TIP3    H224189   5.793   4.953  14.863 -0.3913  1.8695 -0.1011
  900TIP3   OH224190   0.425   0.554  16.296 -0.4687  0.1156 -0.3480
  900TIP3    H124191   0.518   0.559  16.272 -0.4237  0.4438 -0.0960
  900TIP3    H224192   0.393   0.643  16.289 -0.6602  0.0748 -0.0045
  901TIP3   OH224193   3.017   4.020  16.937 -0.1577  0.7640  0.5048
  901TIP3    H124194   3.014   4.115  16.948 -0.2513  0.6583  1.3602
  901TIP3    H224195   2.929   3.997  16.905  0.8377  1.3535 -2.9244
  902TIP3   OH224196   4.232   5.447   5.628  0.3275 -1.0674  0.3100
  902TIP3    H124197   4.322   5.448   5.662  0.4380 -2.6663  0.1044
  902TIP3    H224198   4.242   5.466   5.534  0.2870  0.3592  0.5757
  903TIP3   OH224199   6.496   1.753  14.992  0.0513 -0.3766 -0.4819
  903TIP3    H124200   6.509   1.835  14.945  0.0977 -1.4714 -2.4650
  903TIP3    H224201   6.566   1.696  14.959 -0.0304 -1.2248  0.8051
  904TIP3   OH224202   5.172   4.037   2.947  0.0537 -0.7392 -0.4340
  904TIP3    H124203   5.230   3.969   2.913  0.5282 -0.3499 -0.4010
  904TIP3    H224204   5.086   3.994   2.953  0.5162 -1.5632  0.3207
  905TIP3   OH224205   4.199   4.800   4.585 -0.5261 -0.1330  0.0914
  905TIP3    H124206   4.170   4.782   4.674  1.1985  0.0040  0.6986
  905TIP3    H224207   4.187   4.717   4.539 -1.7648 -0.1026  0.3482
  906TIP3   OH224208   0.050   3.451  12.390 -0.0501 -0.2562  0.3446
  906TIP3    H124209   0.042   3.482  12.480 -1.0174  2.5680 -0.6563
  906TIP3    H224210   0.113   3.380  12.394 -0.7035 -0.7169  3.3771
  907TIP3   OH224211   1.381   1.362   2.938  0.1163 -0.1136  0.5976
  907TIP3    H124212   1.440   1.367   2.863  0.2348 -2.2602  0.5104
  907TIP3    H224213   1.438   1.347   3.013  0.0319  2.4571  1.2208
  908TIP3   OH224214   6.123   1.415  12.307 -0.4771  0.2401  0.4315
  908TIP3    H124215   6.196   1.371  12.263 -1.8113  0.9307 -2.5891
  908TIP3    H224216   6.156   1.503  12.325  0.1577 -0.1165  1.0209
  909TIP3   OH224217   3.320   5.230  15.969  0.7529  0.1949 -0.7526
  909TIP3    H124218   3.370   5.200  16.045  2.2611 -0.0717 -1.8474
  909TIP3    H224219   3.327   5.159  15.905 -0.6952  0.3251 -1.0779
  910TIP3   OH224220   4.825   6.746   0.454  0.3991  0.8473  0.4855
  910TIP3    H124221   4.843   6.748   0.548  0.7465  0.9909  0.4197
  910TIP3    H224222   4.732   6.728   0.447 -0.2060  3.5963  0.9117
  911TIP3   OH224223   4.115   4.176   5.399  0.5470  0.2253  0.2988
  911TIP3    H124224   4.022   4.159   5.384  0.3827  0.9938  0.4557
  911TIP3    H224225   4.137   4.124   5.476 -0.0051  0.8654  0.8967
  912TIP3   OH224226   4.465   5.146  13.426 -0.2474  0.5100  0.1391
  912TIP3    H124227   4.466   5.121  13.518 -1.5428  1.0023  0.3059
  912TIP3    H224228   4.445   5.240  13.427 -0.1217  0.5482 -0.6355
  913TIP3   OH224229   3.237   0.513   0.352  0.2013  0.1837 -0.4855
  913TIP3    H124230   3.235   0.539   0.260  2.1504  0.6185 -0.4269
  913TIP3    H224231   3.316   0.554   0.387  0.9722 -2.1929  0.7067
  914TIP3   OH224232   3.816   3.868  17.073  0.3749  0.2184 -0.0370
  914TIP3    H124233   3.842   3.832  17.157  0.4508  1.1450  0.3406
  914TIP3    H224234   3.858   3.810  17.008 -0.8991 -1.3883  0.5354
  915TIP3   OH224235   2.761   1.294   2.080 -0.5454  0.3730 -0.2863
  915TIP3    H124236   2.695   1.308   2.148  1.6332  0.2579  1.9092
  915TIP3    H224237   2.767   1.199   2.071  2.0015  0.2179  2.3057
  916TIP3   OH224238   3.418   0.173   6.677  0.7739  0.0971  0.9852
  916TIP3    H124239   3.428   0.134   6.764 -0.0814 -0.1368  0.9846
  916TIP3    H224240   3.324   0.168   6.659  0.6760  2.0043  0.9056
  917TIP3   OH224241   3.986   0.958   1.192  0.2272 -0.0340 -0.3636
  917TIP3    H124242   4.054   0.948   1.125  0.3423 -0.1070 -0.2333
  917TIP3    H224243   4.017   1.030   1.247 -0.5307  0.9866 -1.2228
  918TIP3   OH224244   0.607   5.773   0.932  0.5137 -0.2928 -0.5037
  918TIP3    H124245   0.549   5.791   1.006  0.7561 -0.2845 -0.3114
  918TIP3    H224246   0.569   5.821   0.859 -0.1860 -0.9684 -0.5890
  919TIP3   OH224247   6.335   1.621   3.541  0.0568 -0.2122 -0.3027
  919TIP3    H124248   6.332   1.606   3.446 -1.5076  2.2723 -0.7179
  919TIP3    H224249   6.376   1.707   3.549 -1.9281  0.6337  1.1123
  920TIP3   OH224250   0.263   0.839   1.998 -0.4147 -0.0609  0.3492
  920TIP3    H124251   0.299   0.811   1.914  0.9548  4.0168 -0.5416
  920TIP3    H224252   0.309   0.787   2.063  0.5700 -1.2631 -1.2746
  921TIP3   OH224253   4.717   4.302   3.912 -0.0523  0.7382 -0.2225
  921TIP3    H124254   4.794   4.266   3.957 -0.0694  1.0190  0.0328
  921TIP3    H224255   4.649   4.236   3.926  0.9284 -0.9261 -2.9541
  922TIP3   OH224256   1.251   1.005  11.178 -0.6207  0.3393 -0.2884
  922TIP3    H124257   1.287   1.093  11.189  0.6576 -0.2081  0.0175
  922TIP3    H224258   1.209   1.006  11.092 -0.9026  1.3327 -0.1473
  923TIP3   OH224259   3.192   3.010  10.528 -0.0264  0.0104  0.5363
  923TIP3    H124260   3.154   3.073  10.590 -0.9192 -0.5034  0.5134
  923TIP3    H224261   3.241   3.064  10.466  0.0817  0.6022  1.1268
  924TIP3   OH224262   0.410   5.543  16.398  0.0084 -0.4043  0.0006
  924TIP3    H124263   0.413   5.639  16.398 -1.4623 -0.3456  0.1680
  924TIP3    H224264   0.489   5.516  16.352  1.7165  0.8394  2.1108
  925TIP3   OH224265   0.360   1.957  13.521 -0.7971  0.0427 -0.0693
  925TIP3    H124266   0.294   2.026  13.513 -1.5168 -0.4842  1.2283
  925TIP3    H224267   0.441   1.999  13.494 -0.8162  2.0738  2.8467
  926TIP3   OH224268   1.592   6.446  14.041 -0.2282  0.0871  0.9313
  926TIP3    H124269   1.664   6.487  13.993 -1.0340  1.2355  0.6794
  926TIP3    H224270   1.634   6.379  14.095  0.7418 -0.9519 -1.0615
  927TIP3   OH224271   0.775   6.694   2.966  0.1116 -0.4043 -0.2834
  927TIP3    H124272   0.788   6.787   2.984  3.5490 -0.7675 -0.4988
  927TIP3    H224273   0.699   6.691   2.909 -2.0369  1.9701  2.2871
  928TIP3   OH224274   0.247   2.461   5.137  0.1165  0.5549  0.2224
  928TIP3    H124275   0.266   2.525   5.069 -0.0694 -3.3746 -3.7055
  928TIP3    H224276   0.332   2.421   5.157 -0.0983  0.5433  1.1402
  929TIP3   OH224277   4.557   6.817  15.215  0.5369  0.0200  0.3524
  929TIP3    H124278   4.620   6.748  15.192  1.6438  0.8235  0.9370
  929TIP3    H224279   4.523   6.791  15.301 -0.4792 -0.7845 -0.2757
  930TIP3   OH224280   5.448   6.763  15.626 -0.2665  0.0791 -0.3194
  930TIP3    H124281   5.425   6.856  15.636 -2.1546 -0.5551  1.6730
  930TIP3    H224282   5.455   6.731  15.716  1.0096 -1.5612 -0.9970
  931TIP3   OH224283   1.563   0.587   2.782  0.1696  0.3194 -0.1049
  931TIP3    H124284   1.554   0.493   2.768 -0.1347  0.1924  0.9226
  931TIP3    H224285   1.611   0.595   2.864 -1.2656  1.0560  0.6875
  932TIP3   OH224286   2.054   6.181   2.002  0.1832 -0.1286  0.2060
  932TIP3    H124287   2.127   6.121   2.019  0.0764  0.1606  1.7077
  932TIP3    H224288   2.090   6.246   1.942  0.8801 -0.5310  0.1824
  933TIP3   OH224289   2.585   0.813  15.238  0.6051  0.4612 -0.3343
  933TIP3    H124290   2.615   0.733  15.282  0.3987  0.4669 -0.1800
  933TIP3    H224291   2.606   0.800  15.146  1.6561  0.7271 -0.1462
  934TIP3   OH224292   0.737   1.482  14.014 -0.0723  0.8129 -0.2241
  934TIP3    H124293   0.819   1.482  14.063  0.1887 -1.7454 -0.5903
  934TIP3    H224294   0.678   1.427  14.065 -0.1192 -1.0648 -2.2007
  935TIP3   OH224295   4.615   1.739   4.725 -0.3091  0.5420 -0.1318
  935TIP3    H124296   4.520   1.741   4.736 -0.3564  0.4442 -0.5130
  935TIP3    H224297   4.628   1.738   4.630 -0.0136 -2.6599 -0.1083
  936TIP3   OH224298   1.057   5.603   4.852 -0.4828  0.2281 -0.1804
  936TIP3    H124299   1.139   5.635   4.890  0.5499 -1.0007 -1.3427
  936TIP3    H224300   1.084   5.553   4.775 -2.4550  1.6035 -1.8248
  937TIP3   OH224301   3.163   0.438   1.972  0.2480  0.1362  0.3235
  937TIP3    H124302   3.188   0.347   1.956  0.1882  0.0453  0.7586
  937TIP3    H224303   3.245   0.487   1.961 -0.3015  0.4290 -3.0828
  938TIP3   OH224304   4.993   5.130  16.753 -0.0787  0.3435  0.0694
  938TIP3    H124305   5.060   5.136  16.685  0.3347 -1.4750  0.2803
  938TIP3    H224306   5.038   5.148  16.835 -0.3654  1.5071 -0.0144
  939TIP3   OH224307   5.324   0.435  14.987 -0.3857 -0.0959 -0.2335
  939TIP3    H124308   5.243   0.426  15.036 -0.1107  2.4373  0.7928
  939TIP3    H224309   5.323   0.526  14.957  1.3229 -0.4900 -1.5638
  940TIP3   OH224310   0.985   1.467  12.553  0.0770  0.7670 -0.1153
  940TIP3    H124311   0.926   1.515  12.495  0.8052  1.0160 -0.6650
  940TIP3    H224312   1.036   1.535  12.597  0.1360  0.5460  0.1603
  941TIP3   OH224313   3.848   6.640  11.582 -0.1008 -0.1876  0.0658
  941TIP3    H124314   3.764   6.626  11.625  0.0406  0.7050  0.6432
  941TIP3    H224315   3.913   6.620  11.648  0.1194  0.9867  0.2232
  942TIP3   OH224316   6.558   2.675   4.343  0.1396 -0.3032 -1.0030
  942TIP3    H124317   6.537   2.674   4.249 -0.5022  2.0037 -0.9108
  942TIP3    H224318   6.553   2.767   4.368 -1.3421 -1.0482  1.6807
  943TIP3   OH224319   0.903   3.762   6.155 -0.5975 -0.1380  0.6630
  943TIP3    H124320   0.857   3.737   6.235 -1.0220  0.4500  0.6095
  943TIP3    H224321   0.977   3.814   6.185 -1.1174  0.6157  0.6389
  944TIP3   OH224322   6.364   1.427   5.897 -0.0712 -0.1841  0.3408
  944TIP3    H124323   6.375   1.337   5.927  1.9134 -0.2818 -0.5968
  944TIP3    H224324   6.312   1.421   5.818  1.5630 -0.7023 -0.7174
  945TIP3   OH224325   2.160   6.555   0.582  0.3682 -0.2255  0.5063
  945TIP3    H124326   2.098   6.522   0.517 -2.2551  2.1857  1.6736
  945TIP3    H224327   2.238   6.577   0.531 -0.0449 -2.4315 -1.1590
  946TIP3   OH224328   3.341   1.477  12.404  0.4062  0.7508  0.0373
  946TIP3    H124329   3.365   1.384  12.397  2.7969  1.3549 -0.3283
  946TIP3    H224330   3.260   1.485  12.353 -0.3598 -1.3137  0.8806
  947TIP3   OH224331   6.750   3.709   5.608  0.0209  0.3067  0.1568
  947TIP3    H124332   6.822   3.747   5.660  0.5374 -1.5748  0.8755
  947TIP3    H224333   6.747   3.618   5.636 -0.1336 -0.5923 -2.6718
  948TIP3   OH224334   0.238   2.058  15.159  0.0063 -0.6995 -0.4585
  948TIP3    H124335   0.332   2.065  15.141 -0.0143 -1.3583 -0.8611
  948TIP3    H224336   0.233   2.009  15.241  0.0297 -0.1436 -0.1250
  949TIP3   OH224337   0.494   3.398   3.459  0.2376 -0.0514 -0.0394
  949TIP3    H124338   0.487   3.325   3.520  1.1122  0.3123  0.5067
  949TIP3    H224339   0.439   3.373   3.385 -1.8066  0.0230  1.3902
  950TIP3   OH224340   1.570   1.886  17.121  0.4853  0.0671  0.1769
  950TIP3    H124341   1.515   1.938  17.062  0.4054  0.9856  1.0622
  950TIP3    H224342   1.577   1.939  17.200  1.7210 -0.5519  0.4859
  951TIP3   OH224343   5.053   1.994  13.212 -0.0420 -0.2195  0.6144
  951TIP3    H124344   5.046   1.957  13.124 -0.0810 -0.9778  0.9306
  951TIP3    H224345   5.013   2.081  13.205 -1.1334 -0.7492  0.1667
  952TIP3   OH224346   6.239   0.910  15.272 -0.1400 -0.6929 -0.5903
  952TIP3    H124347   6.214   0.967  15.345 -1.6769 -1.8839 -0.1712
  952TIP3    H224348   6.315   0.861  15.304  0.5620  0.3749 -0.5951
  953TIP3   OH224349   2.716   3.124   5.340  0.3787  0.8241 -0.2514
  953TIP3    H124350   2.637   3.088   5.379  1.4760 -0.3000  0.9705
  953TIP3    H224351   2.776   3.050   5.332  1.7266  1.8562 -0.0680
  954TIP3   OH224352   3.450   3.812   0.493  0.5551  0.5203  0.3206
  954TIP3    H124353   3.510   3.783   0.562 -0.0055  0.7943  0.9232
  954TIP3    H224354   3.494   3.787   0.411  1.1764  0.1128  0.7756
  955TIP3   OH224355   3.980   4.480  14.141 -0.5497  0.1391  0.3985
  955TIP3    H124356   3.897   4.432  14.140  0.5955 -1.9577  2.4153
  955TIP3    H224357   3.988   4.517  14.053 -2.1606 -2.1625 -0.7400
  956TIP3   OH224358   2.816   1.062  11.614  0.5107 -0.0343  0.3254
  956TIP3    H124359   2.766   1.139  11.640 -0.0106 -0.2920  0.0924
  956TIP3    H224360   2.861   1.035  11.694 -0.4568 -0.3453  0.7780
  957TIP3   OH224361   4.510   3.624   4.694  0.1103  0.2634 -0.4930
  957TIP3    H124362   4.541   3.603   4.782 -1.2427  1.4078  0.2572
  957TIP3    H224363   4.468   3.543   4.664 -1.1280  0.4674  0.6631
  958TIP3   OH224364   4.444   2.648   2.579  0.3021 -0.1099  0.4014
  958TIP3    H124365   4.436   2.675   2.670 -0.9697  0.6701  0.0599
  958TIP3    H224366   4.440   2.552   2.582 -1.4986 -0.0274  1.0001
  959TIP3   OH224367   0.609   5.478  16.224 -0.4837  0.3834 -0.4440
  959TIP3    H124368   0.605   5.514  16.135  0.0910  0.3993 -0.4681
  959TIP3    H224369   0.636   5.387  16.212 -0.4553  0.3708 -0.2876
  960TIP3   OH224370   5.987   0.150  11.842 -0.5394  0.0241  0.0182
  960TIP3    H124371   5.953   0.195  11.765  1.3424  0.0218 -0.8279
  960TIP3    H224372   6.071   0.191  11.859 -0.3822 -0.8058  1.3588
  961TIP3   OH224373   2.699   6.655   0.895 -0.7514 -0.3824 -0.0690
  961TIP3    H124374   2.642   6.720   0.936  0.8436  0.6494  0.5722
  961TIP3    H224375   2.760   6.629   0.965  0.5180 -0.3377 -1.1519
  962TIP3   OH224376   5.203   3.987  14.901 -0.6766  0.9624  0.5180
  962TIP3    H124377   5.256   3.910  14.880  1.0072  1.8130  1.5257
  962TIP3    H224378   5.164   4.013  14.817 -0.0348 -0.0698 -0.1122
  963TIP3   OH224379   1.599   3.937   3.572 -0.5773  0.0584 -0.0428
  963TIP3    H124380   1.639   4.022   3.552 -0.9425  0.6043  1.4959
  963TIP3    H224381   1.651   3.875   3.521  0.0351  1.1439 -0.7762
  964TIP3   OH224382   0.520   6.503   0.293  0.0675 -0.5477  0.0617
  964TIP3    H124383   0.603   6.457   0.307 -0.0847 -0.7949  0.1389
  964TIP3    H224384   0.472   6.449   0.231  0.0123 -0.3435 -0.0734
  965TIP3   OH224385   6.316   6.257   0.950  0.0328 -0.0527  0.1405
  965TIP3    H124386   6.310   6.163   0.967 -1.0324  0.2030  1.2264
  965TIP3    H224387   6.343   6.295   1.034 -0.1005  0.6733 -0.1434
  966TIP3   OH224388   1.807   4.661  11.354  0.3254 -0.2868  0.0609
  966TIP3    H124389   1.715   4.633  11.349  0.6250 -1.3628  0.3509
  966TIP3    H224390   1.824   4.702  11.269 -0.4075 -0.1304 -0.0153
  967TIP3   OH224391   1.830   4.618   0.035  0.2893 -0.0961 -0.0826
  967TIP3    H124392   1.922   4.632   0.059  0.3151  0.9387 -0.7208
  967TIP3    H224393   1.784   4.690   0.079 -0.0066  0.2570 -0.9597
  968TIP3   OH224394   1.678   5.141  13.955 -0.0502 -0.0901 -0.3818
  968TIP3    H124395   1.753   5.083  13.969  0.2933  0.0062 -1.7280
  968TIP3    H224396   1.713   5.229  13.970 -0.1254 -0.1092 -0.0974
  969TIP3   OH224397   1.483   5.434  12.498  0.4432  0.0458 -0.3286
  969TIP3    H124398   1.498   5.496  12.427 -0.3204  2.5267  1.5787
  969TIP3    H224399   1.388   5.429  12.507  0.4422 -2.3945 -1.2381
  970TIP3   OH224400   4.524   0.737   4.903 -0.3591  0.2513 -0.5777
  970TIP3    H124401   4.492   0.648   4.917  1.1854 -0.6157 -2.3441
  970TIP3    H224402   4.570   0.759   4.984  1.2896 -1.4911 -1.0166
  971TIP3   OH224403   5.328   6.172  16.519  0.6170  0.5346  0.2963
  971TIP3    H124404   5.366   6.084  16.516  1.0952  0.7249  0.7750
  971TIP3    H224405   5.333   6.197  16.611  2.0690  1.7702 -0.1170
  972TIP3   OH224406   0.246   1.155  11.609 -0.8529 -0.2220  0.0382
  972TIP3    H124407   0.333   1.155  11.568 -0.6087 -0.8678  0.5560
  972TIP3    H224408   0.188   1.121  11.541 -0.2433 -2.5592  0.6306
  973TIP3   OH224409   2.719   0.669  15.478 -0.4857 -0.1011 -0.0259
  973TIP3    H124410   2.803   0.646  15.438 -0.2811 -0.6148  0.6742
  973TIP3    H224411   2.720   0.764  15.484 -0.0590 -0.0924 -0.2637
  974TIP3   OH224412   2.755   4.322  16.144  0.2861 -0.3894 -0.1798
  974TIP3    H124413   2.778   4.293  16.233  0.1980 -0.1983 -0.0943
  974TIP3    H224414   2.776   4.416  16.144  1.0908 -0.5690 -0.6301
  975TIP3   OH224415   2.720   2.248  12.675 -0.5099  0.2649  0.9172
  975TIP3    H124416   2.640   2.214  12.714  0.6040 -2.6510  0.7655
  975TIP3    H224417   2.791   2.202  12.720  0.9349 -0.0328 -1.5467
  976TIP3   OH224418   0.763   3.518   4.920  0.7687  0.2080 -0.2131
  976TIP3    H124419   0.748   3.429   4.953  0.4221  0.6242  0.7758
  976TIP3    H224420   0.701   3.572   4.969  2.5998  1.3316  0.8855
  977TIP3   OH224421   4.490   0.750  14.567  0.1094 -0.9129 -0.5374
  977TIP3    H124422   4.554   0.818  14.589 -0.7989  0.1027 -1.0076
  977TIP3    H224423   4.541   0.685  14.519  0.9041 -0.3623 -0.4620
  978TIP3   OH224424   4.716   4.599   1.557 -0.0289  0.7617  0.0789
  978TIP3    H124425   4.690   4.650   1.633 -1.7759 -0.2468  0.1931
  978TIP3    H224426   4.771   4.529   1.592  0.7099  1.3903  0.1741
  979TIP3   OH224427   1.424   4.461   0.167  0.5061  0.3883 -0.3250
  979TIP3    H124428   1.509   4.420   0.148 -1.2732 -2.6517 -2.0647
  979TIP3    H224429   1.392   4.491   0.082 -0.6213  0.6520  0.1845
  980TIP3   OH224430   4.971   5.896   2.939 -0.2341 -0.2054  0.0609
  980TIP3    H124431   5.045   5.844   2.911  0.1669  0.6457 -0.4679
  980TIP3    H224432   4.894   5.846   2.910  0.1413 -0.6163 -0.2268
  981TIP3   OH224433   0.258   3.344  14.483  0.4817 -0.0436  1.0841
  981TIP3    H124434   0.339   3.356  14.533  1.0369  0.1849  0.1281
  981TIP3    H224435   0.263   3.410  14.414 -0.2647 -0.4019  0.6898
  982TIP3   OH224436   4.006   5.967  13.951 -0.8805  0.4519 -0.3424
  982TIP3    H124437   4.007   5.889  14.007  0.1496 -0.8172 -2.0807
  982TIP3    H224438   4.099   5.988  13.938 -1.0954  0.5019 -1.8795
  983TIP3   OH224439   1.371   3.851   1.132  0.2079 -0.1272  0.0338
  983TIP3    H124440   1.281   3.879   1.145  0.1877 -0.5214  0.7280
  983TIP3    H224441   1.366   3.777   1.071  0.0021 -0.6555  0.6971
  984TIP3   OH224442   4.589   2.785  15.792  0.3514  0.6174  0.0829
  984TIP3    H124443   4.531   2.718  15.758  1.2171  0.1919 -0.5769
  984TIP3    H224444   4.596   2.766  15.886 -0.9495  0.9698  0.2661
  985TIP3   OH224445   4.743   0.365  15.388  0.3207 -0.1398  0.0011
  985TIP3    H124446   4.786   0.288  15.350  0.6809 -0.6684  1.4462
  985TIP3    H224447   4.652   0.338  15.400  0.5149 -0.4601  0.7969
  986TIP3   OH224448   1.021   6.230   6.121  0.0256 -0.0943 -0.0752
  986TIP3    H124449   1.088   6.288   6.159 -0.0240 -0.0939  0.0123
  986TIP3    H224450   0.991   6.177   6.195 -0.5508  0.3663  0.0277
  987TIP3   OH224451   1.337   0.993  14.388 -0.0085 -0.0442 -0.5462
  987TIP3    H124452   1.308   0.906  14.362 -0.2741  0.0171 -0.4604
  987TIP3    H224453   1.274   1.020  14.455  0.1486  0.1600 -0.4810
  988TIP3   OH224454   6.226   0.877  15.887  0.6024  0.2273  0.0750
  988TIP3    H124455   6.187   0.868  15.800 -0.0101 -0.2251  0.3885
  988TIP3    H224456   6.273   0.794  15.901  2.0247  0.9416 -0.4724
  989TIP3   OH224457   1.552   5.474  14.491  0.3751 -0.2202 -0.5744
  989TIP3    H124458   1.536   5.383  14.516 -0.3601  0.0283 -0.1159
  989TIP3    H224459   1.613   5.507  14.556 -1.0680  0.2495  0.5760
  990TIP3   OH224460   5.110   4.371  13.721  0.4931  0.1249  0.0277
  990TIP3    H124461   5.189   4.354  13.671  0.9288  0.6983  0.5257
  990TIP3    H224462   5.077   4.284  13.744  0.3232 -0.1412 -1.1934
  991TIP3   OH224463   2.342   0.712   5.041  0.0289  0.4234 -0.5766
  991TIP3    H124464   2.289   0.660   4.981 -0.0593 -0.0499 -0.0858
  991TIP3    H224465   2.385   0.777   4.985  0.9370 -0.8064 -1.3358
  992TIP3   OH224466   4.455   3.488  16.110  0.7155  0.3303 -0.0763
  992TIP3    H124467   4.388   3.454  16.169  0.2495  2.3262  0.5798
  992TIP3    H224468   4.406   3.535  16.043  1.4474  2.1391  0.6308
  993TIP3   OH224469   0.424   1.003  15.658  0.0922  0.1315 -0.0949
  993TIP3    H124470   0.369   1.043  15.590 -1.0646  0.3301  0.9430
  993TIP3    H224471   0.486   1.072  15.682 -0.3274  0.5022 -0.0513
  994TIP3   OH224472   1.613   4.741   1.590 -0.4179  0.0937 -0.6935
  994TIP3    H124473   1.693   4.702   1.555  0.3153  2.7960 -2.2239
  994TIP3    H224474   1.635   4.765   1.680  0.0103 -0.4986 -0.6408
  995TIP3   OH224475   6.158   3.911   6.336 -0.1877  0.0672 -0.2081
  995TIP3    H124476   6.177   3.999   6.304  1.3515 -0.1495  0.1024
  995TIP3    H224477   6.067   3.916   6.366 -1.0111  0.8312 -2.6459
  996TIP3   OH224478   0.887   4.546  17.070  0.3461  0.2006  0.5221
  996TIP3    H124479   0.975   4.573  17.042 -0.4841  0.5593 -1.8787
  996TIP3    H224480   0.840   4.628  17.083 -0.5647  0.0245 -1.4111
  997TIP3   OH224481   4.197   2.625  15.948 -0.0134  0.1547 -0.2005
  997TIP3    H124482   4.153   2.699  15.989  2.7706  2.3676 -1.0147
  997TIP3    H224483   4.170   2.630  15.856  0.2197  0.1923 -0.2676
  998TIP3   OH224484   0.327   5.870  15.042 -0.6229 -0.2153  0.6265
  998TIP3    H124485   0.402   5.833  14.994 -0.5490 -1.0928  1.4053
  998TIP3    H224486   0.335   5.833  15.130 -1.8173 -0.0840  0.7884
  999TIP3   OH224487   2.407   0.354   1.543 -0.0729  0.8685 -0.7820
  999TIP3    H124488   2.434   0.362   1.634  1.1623  1.3908 -1.1752
  999TIP3    H224489   2.423   0.262   1.521 -1.2878  0.5109 -0.2019
 1000TIP3   OH224490   3.860   5.144   0.729 -0.2761  0.0776 -0.3551
 1000TIP3    H124491   3.948   5.133   0.765 -0.1506 -2.5324 -1.4168
 1000TIP3    H224492   3.865   5.227   0.682  0.6644  1.5995  2.2876
 1001TIP3   OH224493   1.529   6.772   1.675 -0.5078  0.4656 -0.0411
 1001TIP3    H124494   1.526   6.809   1.587  0.5278 -0.9520 -0.7003
 1001TIP3    H224495   1.618   6.736   1.684 -0.4571  0.9596  1.7377
 1002TIP3   OH224496   1.386   5.604  13.020 -0.2500 -0.8353  1.0591
 1002TIP3    H124497   1.421   5.647  12.942 -0.7863 -0.6843  0.9041
 1002TIP3    H224498   1.291   5.605  13.008 -0.3375 -0.7534  1.7433
 1003TIP3   OH224499   5.807   0.049  11.377 -0.4671 -0.1220  0.2104
 1003TIP3    H124500   5.798   0.051  11.282  0.3925 -2.3979  0.0468
 1003TIP3    H224501   5.843   0.135  11.400 -1.3393  0.6965 -1.4314
 1004TIP3   OH224502   4.333   1.479   5.142  0.1446 -0.0400  1.0884
 1004TIP3    H124503   4.338   1.433   5.225  1.0000 -0.0696  1.0267
 1004TIP3    H224504   4.254   1.534   5.149 -1.2312 -1.9535  0.9259
 1005TIP3   OH224505   2.747   3.163  13.579 -0.0482 -0.4463  0.1466
 1005TIP3    H124506   2.652   3.154  13.589  0.3123 -1.1121  4.3316
 1005TIP3    H224507   2.763   3.257  13.576 -0.8234 -0.3222 -0.0737
 1006TIP3   OH224508   1.873   5.265  15.002  0.7018 -0.1072 -0.2598
 1006TIP3    H124509   1.795   5.232  14.957  0.3073 -0.2411  0.5029
 1006TIP3    H224510   1.885   5.353  14.968 -1.0734  0.7370  1.1824
 1007TIP3   OH224511   4.969   2.029  16.015 -0.7150  0.0084 -0.3873
 1007TIP3    H124512   4.902   2.068  16.072  0.8027  2.0604  0.0277
 1007TIP3    H224513   4.980   2.092  15.944 -0.0744 -0.8988 -1.1047
 1008TIP3   OH224514   5.056   0.283   3.550 -0.0400 -0.5197 -0.2149
 1008TIP3    H124515   5.042   0.217   3.618 -0.5732  1.0215  1.2325
 1008TIP3    H224516   5.100   0.355   3.596  0.5121  0.1348 -1.7420
 1009TIP3   OH224517   2.787   0.893  15.829 -0.2798  0.4752 -0.5845
 1009TIP3    H124518   2.760   0.902  15.737 -2.4135 -0.4524 -0.0744
 1009TIP3    H224519   2.808   0.800  15.839  0.8577  0.7478 -0.3562
 1010TIP3   OH224520   6.480   6.618  16.348 -0.8261 -0.0666  0.5884
 1010TIP3    H124521   6.531   6.579  16.277  2.3964  0.3191  2.5563
 1010TIP3    H224522   6.432   6.545  16.386 -0.3178 -0.8078 -0.1643
 1011TIP3   OH224523   2.451   4.261   4.471  0.2407 -0.1246 -0.0446
 1011TIP3    H124524   2.471   4.220   4.386 -1.2530 -0.6359 -0.1725
 1011TIP3    H224525   2.402   4.194   4.519 -1.4608  1.1804  0.0867
 1012TIP3   OH224526   1.590   2.758   0.226 -0.1272 -0.0233 -0.1118
 1012TIP3    H124527   1.531   2.756   0.150 -0.0227  0.5438 -0.2064
 1012TIP3    H224528   1.599   2.851   0.247  2.2571  0.0561 -1.2911
 1013TIP3   OH224529   5.168   0.698   4.125 -0.8501 -0.3606 -0.2050
 1013TIP3    H124530   5.218   0.772   4.090 -0.5856  0.0628  1.0490
 1013TIP3    H224531   5.233   0.629   4.137 -0.6356  0.0708  1.0886
 1014TIP3   OH224532   4.456   4.271   4.286  0.2259 -0.3952 -0.0711
 1014TIP3    H124533   4.424   4.348   4.239  1.3940 -0.6035 -1.2400
 1014TIP3    H224534   4.386   4.206   4.277 -0.3259  0.1786  0.0439
 1015TIP3   OH224535   1.895   2.745  12.944  0.1308  0.1581  0.1363
 1015TIP3    H124536   1.949   2.804  12.891 -1.3034  1.1864 -0.2195
 1015TIP3    H224537   1.935   2.747  13.031 -0.6129  2.6820  0.4776
 1016TIP3   OH224538   6.659   1.922  11.577  0.4982 -0.5541  0.1721
 1016TIP3    H124539   6.642   1.993  11.639  0.5533  0.8407 -1.3978
 1016TIP3    H224540   6.742   1.885  11.607  0.7440  0.3801  0.6812
 1017TIP3   OH224541   1.177   1.441  13.494  0.4231 -0.9420 -0.0230
 1017TIP3    H124542   1.148   1.517  13.444  0.5993 -1.0849 -0.3490
 1017TIP3    H224543   1.231   1.391  13.432  0.3065 -1.3333  0.1885
 1018TIP3   OH224544   6.068   4.031  13.125  0.4420 -0.4037  0.2820
 1018TIP3    H124545   6.132   4.091  13.163 -1.0379  0.2507  1.8086
 1018TIP3    H224546   6.095   4.023  13.033  1.1231  2.0071  0.2271
 1019TIP3   OH224547   5.549   3.662  15.193 -0.1468  0.1896 -0.6116
 1019TIP3    H124548   5.606   3.632  15.122 -1.5968 -1.3401 -1.1322
 1019TIP3    H224549   5.495   3.730  15.153 -0.1014  0.2094 -0.6396
 1020TIP3   OH224550   2.776   5.753  16.476  0.9278 -0.2803  0.3098
 1020TIP3    H124551   2.821   5.717  16.552  1.9724  1.3965  0.5051
 1020TIP3    H224552   2.732   5.831  16.508  0.6641 -0.0375 -0.6183
 1021TIP3   OH224553   4.924   6.658  15.134  0.2005 -0.5431 -0.3529
 1021TIP3    H124554   4.847   6.676  15.080 -0.2484 -0.4394  0.3191
 1021TIP3    H224555   4.914   6.566  15.159 -0.8120  0.0290  1.4705
 1022TIP3   OH224556   4.232   4.552  15.399 -0.4025 -0.3766  0.2235
 1022TIP3    H124557   4.254   4.645  15.389  1.4516 -1.1825 -4.2471
 1022TIP3    H224558   4.313   4.506  15.376 -1.8783 -3.1580  0.3950
 1023TIP3   OH224559   6.136   3.175   6.730 -0.2489  0.3319  0.1938
 1023TIP3    H124560   6.099   3.247   6.781 -2.4339 -1.2622  0.9634
 1023TIP3    H224561   6.121   3.199   6.639 -0.5012  1.0719  0.4319
 1024TIP3   OH224562   5.556   6.260   0.587  0.0609 -0.3041  0.1872
 1024TIP3    H124563   5.565   6.222   0.674  2.5542  0.7854  0.4423
 1024TIP3    H224564   5.477   6.218   0.551 -2.1073  0.5921  3.6258
 1025TIP3   OH224565   6.710   1.457   2.894  0.1081 -0.5960 -0.2060
 1025TIP3    H124566   6.750   1.425   2.813 -0.5008  0.8171 -1.0824
 1025TIP3    H224567   6.677   1.378   2.937  0.0873 -1.3267 -1.5283
 1026TIP3   OH224568   1.738   5.373  16.259 -0.0229 -0.0535  0.3260
 1026TIP3    H124569   1.665   5.361  16.320  1.1546 -0.5421  1.6748
 1026TIP3    H224570   1.802   5.307  16.286  0.6067 -0.1208 -1.3151
 1027TIP3   OH224571   3.809   4.126  13.986  0.1092  0.3795  0.4429
 1027TIP3    H124572   3.880   4.065  14.003 -0.4862 -0.2919  0.5611
 1027TIP3    H224573   3.804   4.181  14.064  0.6188  0.5468  0.3561
 1028TIP3   OH224574   5.419   1.362  17.279 -0.2745 -0.2479 -0.0482
 1028TIP3    H124575   5.396   1.352  17.186 -0.2511 -0.4774 -0.0286
 1028TIP3    H224576   5.341   1.333  17.326 -0.0925 -0.6410  0.0125
 1029TIP3   OH224577   2.406   6.779   2.812  0.0279 -0.3655  0.1279
 1029TIP3    H124578   2.388   6.832   2.890 -1.5099 -0.7513  0.0548
 1029TIP3    H224579   2.418   6.843   2.741  0.0074 -0.0655  0.3942
 1030TIP3   OH224580   6.560   0.547   2.829  0.2025  0.6063 -0.4010
 1030TIP3    H124581   6.485   0.489   2.842 -0.8572  2.0703  0.0461
 1030TIP3    H224582   6.605   0.510   2.753  0.1351 -1.4083  0.4936
 1031TIP3   OH224583   0.903   5.622  15.677  0.2583  0.1147  0.3353
 1031TIP3    H124584   0.954   5.672  15.613  0.0164  0.8416  0.6976
 1031TIP3    H224585   0.962   5.553  15.707  0.5901  0.1671 -0.1917
 1032TIP3   OH224586   5.665   3.513   3.341 -0.1359  0.8781 -0.6489
 1032TIP3    H124587   5.583   3.465   3.333 -1.7005  3.2357  0.4922
 1032TIP3    H224588   5.640   3.605   3.333  2.6722  1.5891 -2.2194
 1033TIP3   OH224589   6.505   4.808  12.521  0.0019  0.4708  0.3879
 1033TIP3    H124590   6.569   4.792  12.591 -1.0443 -1.5040  0.9152
 1033TIP3    H224591   6.420   4.804  12.564 -0.5752  1.1074 -0.6667
 1034TIP3   OH224592   1.657   4.762   6.433  0.1571  0.3238 -0.1695
 1034TIP3    H124593   1.575   4.745   6.480  0.6821  1.1747  1.0533
 1034TIP3    H224594   1.645   4.718   6.348 -1.8933  1.1579 -0.3330
 1035TIP3   OH224595   6.628   6.445   5.317 -0.1204 -0.2868  0.4116
 1035TIP3    H124596   6.582   6.446   5.233  1.4793  0.4684 -0.4626
 1035TIP3    H224597   6.559   6.429   5.381 -1.8782  2.2291 -0.7397
 1036TIP3   OH224598   5.267   5.072   5.825  0.5437  0.0941 -0.1136
 1036TIP3    H124599   5.308   5.077   5.738  0.2532  3.0570 -0.1434
 1036TIP3    H224600   5.301   5.149   5.872  0.3248 -1.2004  2.2331
 1037TIP3   OH224601   4.172   4.017   0.593 -0.0843  0.3683  0.3761
 1037TIP3    H124602   4.119   4.050   0.520  0.2282 -2.8535 -1.3808
 1037TIP3    H224603   4.108   3.984   0.656 -0.2817 -1.8576 -0.9366
 1038TIP3   OH224604   4.438   2.543   4.056  0.1958  0.1221  0.4179
 1038TIP3    H124605   4.440   2.554   4.152 -0.8917  1.7012  0.2779
 1038TIP3    H224606   4.511   2.484   4.038  1.0904  0.6394  2.1273
 1039TIP3   OH224607   2.127   1.080   5.993 -0.0626 -0.4336  0.0298
 1039TIP3    H124608   2.125   0.999   6.043 -0.2313 -0.0770  0.6021
 1039TIP3    H224609   2.185   1.061   5.919  0.9573 -0.6491  0.8859
 1040TIP3   OH224610   2.325   2.413   4.213 -0.4597  0.1346  0.3244
 1040TIP3    H124611   2.396   2.445   4.269  0.8000 -2.0562  0.0337
 1040TIP3    H224612   2.266   2.366   4.272  0.8673 -2.1715 -0.1094
 1041TIP3   OH224613   5.891   6.243  12.393 -0.2718  0.1647  0.3077
 1041TIP3    H124614   5.958   6.308  12.374 -1.1478  1.6324  2.1479
 1041TIP3    H224615   5.901   6.178  12.323  1.8606  1.2699 -0.4703
 1042TIP3   OH224616   3.630   2.195  10.785 -0.0949  0.0719 -0.3760
 1042TIP3    H124617   3.569   2.229  10.719  0.9198  0.1860 -1.2779
 1042TIP3    H224618   3.578   2.134  10.837 -1.3804  1.4085 -0.1012
 1043TIP3   OH224619   4.160   0.482  12.511 -0.3313 -0.3222  1.1372
 1043TIP3    H124620   4.204   0.439  12.584  0.7021 -1.8579 -0.3667
 1043TIP3    H224621   4.109   0.552  12.552  1.9584  0.2633  3.0947
 1044TIP3   OH224622   3.736   1.451  12.319  0.6599 -0.4428  0.2289
 1044TIP3    H124623   3.682   1.528  12.304  2.8306  1.1129  0.2672
 1044TIP3    H224624   3.739   1.408  12.233  1.0726  0.5816 -0.2768
 1045TIP3   OH224625   6.523   4.288  10.594  0.2845 -0.0753  0.0727
 1045TIP3    H124626   6.583   4.336  10.650  1.6919 -1.2800 -0.3699
 1045TIP3    H224627   6.572   4.272  10.513 -0.4989 -1.3453 -0.1803
 1046TIP3   OH224628   1.344   1.263   0.107  0.1401  0.2054 -0.5845
 1046TIP3    H124629   1.317   1.300   0.191  0.2778  1.5831 -1.1322
 1046TIP3    H224630   1.263   1.257   0.056 -0.2148 -2.1910  0.2133
 1047TIP3   OH224631   4.698   4.485   2.047 -0.2481  0.1604 -0.3070
 1047TIP3    H124632   4.706   4.549   2.118  0.7173 -0.8896  0.5297
 1047TIP3    H224633   4.605   4.461   2.048 -0.2973  0.3549  0.4109
 1048TIP3   OH224634   3.686   3.708   4.160  0.0278 -0.3550  0.1287
 1048TIP3    H124635   3.726   3.715   4.074  2.3627 -0.0471  1.1908
 1048TIP3    H224636   3.688   3.798   4.195 -1.3499 -0.3866  0.3053
 1049TIP3   OH224637   0.217   0.689  12.984  0.1369  0.2867 -0.1440
 1049TIP3    H124638   0.179   0.765  13.028  0.2583 -0.4463  1.2818
 1049TIP3    H224639   0.147   0.623  12.985 -0.2280  0.6393 -2.0720
 1050TIP3   OH224640   3.058   4.948  12.090  0.6640 -0.4596 -0.5704
 1050TIP3    H124641   3.045   4.875  12.150 -0.6462 -0.3322 -0.6787
 1050TIP3    H224642   3.010   5.021  12.129  2.2148  0.4347 -0.3125
 1051TIP3   OH224643   4.458   1.202   1.568  0.1432 -0.0692  0.2446
 1051TIP3    H124644   4.532   1.152   1.533 -0.9309 -1.6363  0.1774
 1051TIP3    H224645   4.490   1.238   1.650  0.7553 -1.3718  0.5924
 1052TIP3   OH224646   4.801   6.367  15.436  0.0193  0.3751 -0.0835
 1052TIP3    H124647   4.767   6.278  15.451  0.6324  0.4069  1.5773
 1052TIP3    H224648   4.776   6.416  15.514  1.1803  1.2080 -0.2141
 1053TIP3   OH224649   6.185   4.983   1.419  0.1719  0.1303 -0.3492
 1053TIP3    H124650   6.206   4.913   1.356  0.4184 -0.0222 -0.0953
 1053TIP3    H224651   6.110   4.949   1.468  1.6768 -0.9084  1.2966
 1054TIP3   OH224652   1.237   4.434   5.208  0.3999  0.1488 -0.6322
 1054TIP3    H124653   1.228   4.521   5.169  1.5541  0.5570 -0.0338
 1054TIP3    H224654   1.294   4.387   5.147 -0.6685 -0.3811 -1.2375
 1055TIP3   OH224655   3.611   0.522  13.157  0.5567  0.1265  0.2260
 1055TIP3    H124656   3.520   0.502  13.176  0.2959 -0.3694 -1.4634
 1055TIP3    H224657   3.612   0.617  13.141  0.0580 -0.1030 -1.2175
 1056TIP3   OH224658   1.823   1.226  17.011 -0.1242 -0.2683  0.9863
 1056TIP3    H124659   1.839   1.138  17.046  2.3992 -0.9983 -1.7678
 1056TIP3    H224660   1.778   1.210  16.928  0.3497  1.0388  0.4714
 1057TIP3   OH224661   0.026   2.902   2.492 -1.0248  0.1147  0.6454
 1057TIP3    H124662   0.075   2.972   2.448 -0.3866 -1.0213 -0.4612
 1057TIP3    H224663  -0.063   2.936   2.498 -0.2386  2.0124  2.2520
 1058TIP3   OH224664   4.294   0.747   5.471  0.3993 -0.1426 -0.0251
 1058TIP3    H124665   4.276   0.826   5.421  0.7526  0.3386  0.5963
 1058TIP3    H224666   4.375   0.767   5.518 -0.9620  0.1576  2.2542
 1059TIP3   OH224667   1.629   2.782   1.898  0.9145 -0.0193  0.3496
 1059TIP3    H124668   1.678   2.703   1.920  0.1744 -0.1534  1.5165
 1059TIP3    H224669   1.653   2.845   1.966  1.6364  0.8329 -0.6755
 1060TIP3   OH224670   6.723   2.503   2.240  0.3068 -0.8740  0.4450
 1060TIP3    H124671   6.791   2.560   2.277  0.1692  0.3592 -1.1884
 1060TIP3    H224672   6.734   2.510   2.145 -1.8248 -1.0209  0.1652
 1061TIP3   OH224673   5.824   3.436   2.169  0.4975  0.3123  0.4025
 1061TIP3    H124674   5.825   3.377   2.094 -3.0565 -1.5656  1.6661
 1061TIP3    H224675   5.859   3.384   2.241 -0.6680  0.4279  1.0671
 1062TIP3   OH224676   0.303   0.139   5.988  0.0712 -0.2973 -0.6730
 1062TIP3    H124677   0.279   0.230   5.975  0.7358 -0.1903 -1.2026
 1062TIP3    H224678   0.397   0.142   6.009 -0.1355 -0.7738  0.3782
 1063TIP3   OH224679   6.609   1.353  12.569 -0.8989  0.1854  0.0441
 1063TIP3    H124680   6.519   1.381  12.586 -0.6514  1.4851 -0.7094
 1063TIP3    H224681   6.640   1.413  12.502  0.6362 -0.0526  0.5240
 1064TIP3   OH224682   5.162   3.445   5.695  0.2536 -0.1461  0.1040
 1064TIP3    H124683   5.128   3.357   5.710 -1.3587  0.1642 -1.5567
 1064TIP3    H224684   5.243   3.432   5.646  0.5348 -0.7349  0.7225
 1065TIP3   OH224685   1.858   5.974  16.014 -0.4867 -0.0315 -0.0754
 1065TIP3    H124686   1.767   6.000  15.997 -0.4868  0.1744  0.2218
 1065TIP3    H224687   1.910   6.046  15.977 -0.4614  0.0465  0.1086
 1066TIP3   OH224688   2.417   5.768  11.761  0.4277 -0.0883 -0.2078
 1066TIP3    H124689   2.398   5.689  11.812  0.6336  1.1205  1.8103
 1066TIP3    H224690   2.331   5.808  11.746  0.6159  1.4166  2.3587
 1067TIP3   OH224691   5.574   3.739  10.441 -0.5738 -0.0307 -0.2792
 1067TIP3    H124692   5.539   3.659  10.480 -1.4178 -0.0727 -1.1244
 1067TIP3    H224693   5.505   3.770  10.382  0.4061  0.4222 -1.2081
 1068TIP3   OH224694   6.493   1.634   4.952 -0.1767 -0.0733 -0.2030
 1068TIP3    H124695   6.470   1.593   5.035 -1.5390  0.9610 -0.0471
 1068TIP3    H224696   6.558   1.700   4.973  0.7078 -0.9206 -0.2108
 1069TIP3   OH224697   0.409   1.065   5.180 -0.0388 -0.1424 -0.3462
 1069TIP3    H124698   0.485   1.111   5.215  0.8522 -0.6747 -1.5511
 1069TIP3    H224699   0.350   1.135   5.151  1.0353  0.2768 -1.5886
 1070TIP3   OH224700   5.908   5.988   3.517  0.3124 -0.1549  0.1421
 1070TIP3    H124701   5.866   5.948   3.593  2.4236 -1.5845  0.5894
 1070TIP3    H224702   5.907   5.920   3.450 -1.3504  1.0328 -1.0776
 1071TIP3   OH224703   3.263   6.318   1.636 -0.2396 -0.6030  0.2504
 1071TIP3    H124704   3.295   6.385   1.696 -0.8185 -0.6132  0.5747
 1071TIP3    H224705   3.318   6.328   1.558 -1.0080  0.9581 -0.1104
 1072TIP3   OH224706   3.416   3.600   0.082 -0.3345 -0.1355  0.1914
 1072TIP3    H124707   3.339   3.646   0.049 -1.3115 -1.6382  0.3019
 1072TIP3    H224708   3.434   3.533   0.015  0.7267  0.0503  0.2845
 1073TIP3   OH224709   0.190   2.749   0.874 -0.1352  0.2779 -0.0621
 1073TIP3    H124710   0.203   2.832   0.920 -0.3408  1.3581 -1.9186
 1073TIP3    H224711   0.269   2.738   0.822  0.8624 -1.8032  1.7836
 1074TIP3   OH224712   1.038   2.718   2.863  0.1606  0.1503  0.5006
 1074TIP3    H124713   0.967   2.768   2.903 -2.1488 -1.9209 -0.9315
 1074TIP3    H224714   1.038   2.746   2.771 -0.8179 -2.0472 -0.1950
 1075TIP3   OH224715   4.114   5.156   6.068  0.3280  0.9709 -0.3543
 1075TIP3    H124716   4.035   5.199   6.035  0.3720 -1.9334 -4.7691
 1075TIP3    H224717   4.186   5.203   6.026  0.5652 -0.5531 -1.7051
 1076TIP3   OH224718   3.786   0.027  12.620 -0.2115 -0.0157  0.1457
 1076TIP3    H124719   3.806  -0.063  12.647 -1.4673 -0.6594 -0.9655
 1076TIP3    H224720   3.836   0.039  12.539 -0.7934 -0.0563 -0.2223
 1077TIP3   OH224721   1.786   2.007  13.404 -0.4011 -0.0564  0.3756
 1077TIP3    H124722   1.768   2.055  13.323  2.7945 -0.4926 -0.6653
 1077TIP3    H224723   1.825   2.071  13.462  1.8350 -0.8199 -0.2286
 1078TIP3   OH224724   5.014   3.487   5.437  0.0811 -0.5175  0.2077
 1078TIP3    H124725   4.964   3.492   5.519  2.1677  1.2065  1.4291
 1078TIP3    H224726   5.086   3.428   5.456  0.4402 -0.3072 -0.4818
 1079TIP3   OH224727   6.355   1.542  16.056 -0.2201  0.5963 -0.3809
 1079TIP3    H124728   6.391   1.454  16.067 -0.3291  0.7088  1.0326
 1079TIP3    H224729   6.396   1.593  16.126 -1.9540  1.0949  0.3001
 1080TIP3   OH224730   2.594   4.549   5.942 -0.5575 -0.0093 -0.3353
 1080TIP3    H124731   2.581   4.583   6.030 -0.9896 -1.7937  0.3270
 1080TIP3    H224732   2.652   4.612   5.900 -0.0544  0.6820  1.3442
 1081TIP3   OH224733   5.874   4.667   2.478  0.0821  0.3926  0.0472
 1081TIP3    H124734   5.831   4.729   2.419  1.1992  0.7027 -0.4567
 1081TIP3    H224735   5.894   4.592   2.422  0.0764  0.2008  0.3050
 1082TIP3   OH224736   3.269   5.978  13.357  0.0269 -0.3188 -0.4141
 1082TIP3    H124737   3.241   6.068  13.372 -0.3437 -0.2508 -1.4702
 1082TIP3    H224738   3.363   5.979  13.376  0.3575  0.6796 -2.0517
 1083TIP3   OH224739   2.178   3.790  13.395 -0.1987  0.7931 -0.3726
 1083TIP3    H124740   2.269   3.821  13.400 -0.5928  1.6959  1.5086
 1083TIP3    H224741   2.135   3.852  13.336  0.1177  1.1096 -0.2746
 1084TIP3   OH224742   5.340   2.159   3.694  0.1681  0.1620 -0.3376
 1084TIP3    H124743   5.311   2.229   3.753  0.2624 -1.6822  1.9909
 1084TIP3    H224744   5.275   2.090   3.706 -0.6994  0.3200 -3.6360
 1085TIP3   OH224745   5.724   1.575  14.454  0.4651  0.6226  0.1063
 1085TIP3    H124746   5.693   1.576  14.545  0.9153  0.5435  0.2602
 1085TIP3    H224747   5.670   1.508  14.412  0.0521  0.8651  0.2414
 1086TIP3   OH224748   3.650   5.250   5.618  0.6791  0.4532  0.9156
 1086TIP3    H124749   3.610   5.178   5.666  0.0337  0.3561  0.2449
 1086TIP3    H224750   3.740   5.220   5.601  0.2977 -0.3735  0.3026
 1087TIP3   OH224751   1.381   1.247  13.477  0.5392 -0.0096 -0.7598
 1087TIP3    H124752   1.431   1.278  13.401  1.1077 -0.3271 -0.5193
 1087TIP3    H224753   1.420   1.292  13.552  1.1545 -1.0392 -0.4490
 1088TIP3   OH224754   0.405   6.540  13.964 -0.3928  0.3045  0.0856
 1088TIP3    H124755   0.376   6.490  13.888 -0.1032 -0.5149  0.5187
 1088TIP3    H224756   0.325   6.552  14.017 -0.2590 -0.6166  0.5063
 1089TIP3   OH224757   6.149   0.867   0.297 -0.3914  0.6930 -0.1653
 1089TIP3    H124758   6.200   0.947   0.283 -0.8527  0.9340 -0.5009
 1089TIP3    H224759   6.058   0.898   0.300 -0.4285  0.4702  1.8977
 1090TIP3   OH224760   1.685   0.800   1.121 -0.4857  0.0736  0.0799
 1090TIP3    H124761   1.735   0.882   1.119  0.0944 -0.2382  1.1904
 1090TIP3    H224762   1.751   0.733   1.103 -0.8626 -0.1902 -0.3043
 1091TIP3   OH224763   2.655   1.129  12.343  0.5415  0.6384  0.7337
 1091TIP3    H124764   2.592   1.098  12.408 -1.7427  0.2327 -1.5766
 1091TIP3    H224765   2.645   1.224  12.343  0.1884  0.6011  0.6271
 1092TIP3   OH224766   2.659   2.249  13.193  0.0027  0.2288 -0.3916
 1092TIP3    H124767   2.709   2.307  13.251 -1.3140  0.2364  0.7497
 1092TIP3    H224768   2.632   2.176  13.249 -0.3748 -0.3029 -1.2549
 1093TIP3   OH224769   1.442   6.733  14.441 -0.3271  0.3776  0.1225
 1093TIP3    H124770   1.347   6.745  14.440 -0.6552 -2.0245 -0.3572
 1093TIP3    H224771   1.461   6.687  14.359  1.1271 -0.0262  0.6838
 1094TIP3   OH224772   5.411   2.466  12.698  0.4825  0.0947  0.1164
 1094TIP3    H124773   5.394   2.486  12.606 -2.4999 -0.7467  0.4338
 1094TIP3    H224774   5.466   2.388  12.696 -1.8635 -1.5717 -0.9553
 1095TIP3   OH224775   0.965   0.678   5.523  0.9295  0.1989  0.0665
 1095TIP3    H124776   0.937   0.675   5.614 -0.4095 -1.1246 -0.3657
 1095TIP3    H224777   1.039   0.617   5.519  1.0421  0.3200  0.2693
 1096TIP3   OH224778   1.492   0.921   0.955  0.1608  0.5890  0.2845
 1096TIP3    H124779   1.497   0.976   1.033 -1.7452  0.0182  0.8421
 1096TIP3    H224780   1.495   0.831   0.990 -1.0396  0.3318 -0.2756
 1097TIP3   OH224781   2.271   0.592   0.677 -0.2475 -0.2741  0.0151
 1097TIP3    H124782   2.321   0.660   0.722 -0.7759 -0.3661  0.7578
 1097TIP3    H224783   2.333   0.520   0.666  0.1925  0.1652 -0.3913
 1098TIP3   OH224784   1.275   3.649   2.958  0.3019 -0.2665  0.2938
 1098TIP3    H124785   1.370   3.657   2.953  0.2171  1.2211  0.6258
 1098TIP3    H224786   1.253   3.669   3.049 -0.3818  0.2135  0.0345
 1099TIP3   OH224787   2.047   5.755  16.059 -0.4848  0.4551 -0.3711
 1099TIP3    H124788   1.972   5.814  16.063  0.6903  1.9119  0.8532
 1099TIP3    H224789   2.059   5.726  16.150  1.6788  1.8453 -0.1930
 1100TIP3   OH224790   4.137   4.012   4.864  0.6711 -0.0162  0.1446
 1100TIP3    H124791   4.088   4.018   4.946  1.0253  2.3849  0.2124
 1100TIP3    H224792   4.077   4.045   4.797  1.5073  1.1190 -0.0612
 1101TIP3   OH224793   0.608   2.214  11.758 -0.2097 -0.2890 -0.2462
 1101TIP3    H124794   0.602   2.307  11.778  0.1197 -0.8010  2.3666
 1101TIP3    H224795   0.517   2.186  11.749 -0.5738 -0.6598  3.7526
 1102TIP3   OH224796   4.850   6.794  15.998  0.2007  0.1626 -0.7630
 1102TIP3    H124797   4.891   6.712  16.027 -0.1538 -0.5678 -2.2736
 1102TIP3    H224798   4.839   6.844  16.078  2.3458 -0.3941 -0.0718
 1103TIP3   OH224799   1.825   2.228  13.571  0.0151  0.4323 -0.3485
 1103TIP3    H124800   1.759   2.294  13.548  1.7658  1.5267 -2.3545
 1103TIP3    H224801   1.888   2.275  13.626  0.5144  0.0593 -0.6054
 1104TIP3   OH224802   2.369   2.846  12.481  0.5871 -0.1920  0.0005
 1104TIP3    H124803   2.421   2.904  12.536  2.6523 -0.2329 -1.8382
 1104TIP3    H224804   2.346   2.772  12.538  2.3264 -0.0333  0.9274
 1105TIP3   OH224805   0.875   5.258  14.371  0.2752 -0.2749 -0.3094
 1105TIP3    H124806   0.790   5.273  14.331  0.1479 -2.6830 -1.0220
 1105TIP3    H224807   0.938   5.288  14.306  0.0001  1.8110  0.3478
 1106TIP3   OH224808   5.689   3.310  15.060  0.1257  0.0958 -0.1794
 1106TIP3    H124809   5.715   3.345  15.145  2.1189 -0.5271 -0.4937
 1106TIP3    H224810   5.653   3.224  15.079 -0.3107  0.3429  0.1197
 1107TIP3   OH224811   6.440   6.217  15.728 -1.0695 -0.7910 -0.2683
 1107TIP3    H124812   6.417   6.125  15.721 -0.3934 -0.9208 -0.8752
 1107TIP3    H224813   6.489   6.223  15.810  1.0507 -1.4589 -1.4309
 1108TIP3   OH224814   2.542   5.592   0.336 -0.1744  0.2102 -0.4240
 1108TIP3    H124815   2.598   5.531   0.383 -0.9233 -0.4453 -0.3746
 1108TIP3    H224816   2.579   5.597   0.249  1.1892  1.3862  0.2109
 1109TIP3   OH224817   3.962   2.951  13.497  0.1711  0.3235  0.4100
 1109TIP3    H124818   3.938   3.043  13.503  0.4113  0.2781  2.9524
 1109TIP3    H224819   4.019   2.936  13.573  1.3891 -1.5494 -0.8311
 1110TIP3   OH224820   5.795   0.404  11.392  0.5943 -0.6433  0.2531
 1110TIP3    H124821   5.747   0.367  11.466 -0.2978  1.4485  0.7665
 1110TIP3    H224822   5.750   0.368  11.315  0.7887 -1.9038  0.7106
 1111TIP3   OH224823   3.029   3.052   5.208 -0.0461 -0.0509  0.0004
 1111TIP3    H124824   3.047   3.127   5.264 -3.0903 -0.1851  1.3031
 1111TIP3    H224825   3.002   3.090   5.124 -1.3028  0.3248  0.5665
 1112TIP3   OH224826   4.398   6.291  15.359 -0.5253  0.3909 -0.1544
 1112TIP3    H124827   4.397   6.379  15.323  1.7455  0.5748  0.1846
 1112TIP3    H224828   4.316   6.284  15.408 -1.8826  1.4288 -2.1964
 1113TIP3   OH224829   0.148   0.877  15.643 -0.4262 -0.2166  0.4845
 1113TIP3    H124830   0.229   0.915  15.678 -0.5068  0.4713 -0.0545
 1113TIP3    H224831   0.091   0.953  15.629 -0.6015 -0.5469 -0.6033
 1114TIP3   OH224832   3.364   3.223   4.854  0.0614 -0.5229  0.5295
 1114TIP3    H124833   3.339   3.213   4.762  1.0041 -2.2979  0.4434
 1114TIP3    H224834   3.316   3.153   4.900  1.2948 -1.0301  1.0523
 1115TIP3   OH224835   1.156   3.376   6.729 -0.0330 -0.8106  0.2131
 1115TIP3    H124836   1.065   3.350   6.737 -0.2255 -0.1181  0.3285
 1115TIP3    H224837   1.199   3.340   6.807 -0.3453 -0.5647  0.4999
 1116TIP3   OH224838   4.636   2.805  16.484 -0.5683  0.0722  0.3647
 1116TIP3    H124839   4.709   2.866  16.496  0.3860 -1.0412  0.2682
 1116TIP3    H224840   4.572   2.833  16.549 -0.1178  1.1422  0.3670
 1117TIP3   OH224841   5.330   4.993   0.699  0.1497  0.0724  0.6013
 1117TIP3    H124842   5.373   4.946   0.628  0.6152  0.4467  0.6355
 1117TIP3    H224843   5.319   4.928   0.768  0.5988 -0.0407  0.5683
 1118TIP3   OH224844   1.493   0.558   4.643 -0.0354  0.2734  0.3150
 1118TIP3    H124845   1.464   0.473   4.677 -0.2065  0.1376 -0.1757
 1118TIP3    H224846   1.434   0.577   4.571  0.1594  0.6969  0.2632
 1119TIP3   OH224847   5.090   1.766  15.611 -0.1600  0.1075 -0.3696
 1119TIP3    H124848   5.172   1.810  15.588 -0.8770  0.2623 -2.6979
 1119TIP3    H224849   5.032   1.836  15.640  0.1985  0.1220  0.3196
 1120TIP3   OH224850   1.555   0.326  15.545  0.1952 -0.2347  0.1597
 1120TIP3    H124851   1.503   0.365  15.475  0.3205 -1.0677 -0.4053
 1120TIP3    H224852   1.600   0.253  15.503 -2.0282 -2.6166  1.7557
 1121TIP3   OH224853   4.912   1.135  12.113 -0.4641  0.7456  0.4237
 1121TIP3    H124854   4.957   1.058  12.077 -3.8937  0.6658 -4.1216
 1121TIP3    H224855   4.895   1.111  12.204  0.7509 -2.8624 -0.1762
 1122TIP3   OH224856   2.074   4.309   4.353  0.2938 -0.0904  0.2651
 1122TIP3    H124857   2.001   4.365   4.380 -0.5597 -1.0747  0.0389
 1122TIP3    H224858   2.139   4.370   4.318 -1.4028  0.6161 -1.7559
 1123TIP3   OH224859   2.044   2.833  14.990 -0.2764 -0.6766 -0.2728
 1123TIP3    H124860   2.100   2.898  14.948  2.4619 -1.4321  2.0793
 1123TIP3    H224861   2.030   2.766  14.922 -1.2338  1.1665 -1.9610
 1124TIP3   OH224862   5.194   5.873   3.594  0.0636  0.4669  0.6084
 1124TIP3    H124863   5.183   5.849   3.686 -0.2262  0.4689  0.5733
 1124TIP3    H224864   5.163   5.963   3.588 -0.5875  0.2259  0.3630
 1125TIP3   OH224865   3.720   0.305  13.295 -0.2426  0.2483  0.1675
 1125TIP3    H124866   3.753   0.337  13.379 -2.5402  0.4118  1.0556
 1125TIP3    H224867   3.671   0.379  13.259 -2.1923 -0.9451  0.3219
 1126TIP3   OH224868   2.340   2.584  13.310  0.5276 -0.0244  0.0697
 1126TIP3    H124869   2.346   2.580  13.405 -0.7419 -4.6264  0.0574
 1126TIP3    H224870   2.431   2.575  13.280  0.7678  0.0056  0.7775
 1127TIP3   OH224871   1.062   6.030  12.856 -0.1732  0.1818  0.1253
 1127TIP3    H124872   1.154   6.019  12.881  0.3460 -0.0363 -1.7572
 1127TIP3    H224873   1.047   6.124  12.861  0.8325  0.4619 -1.7388
 1128TIP3   OH224874   5.897   4.961  15.125  0.0225 -0.1264  0.1210
 1128TIP3    H124875   5.983   4.964  15.167 -0.0393 -0.4824  0.2781
 1128TIP3    H224876   5.913   4.987  15.034  0.1002  0.9925  0.4494
 1129TIP3   OH224877   0.997   1.043  14.215  0.1274  0.2682 -0.1664
 1129TIP3    H124878   1.012   1.001  14.299 -0.3013  2.4019  1.0234
 1129TIP3    H224879   1.050   0.993  14.153 -0.0434 -1.7244  1.2390
 1130TIP3   OH224880   0.416   1.718  17.073  0.4014 -0.3918 -0.2997
 1130TIP3    H124881   0.351   1.665  17.027  0.4033  0.1069 -0.8864
 1130TIP3    H224882   0.364   1.787  17.116  0.3306 -1.2334  0.9938
 1131TIP3   OH224883   2.992   4.365   0.880 -0.0649 -0.0838 -0.1951
 1131TIP3    H124884   3.060   4.424   0.912  0.3579 -0.6208 -0.0968
 1131TIP3    H224885   3.034   4.315   0.811 -1.2207  1.6523 -2.1991
 1132TIP3   OH224886   2.200   3.597   5.916  0.5065 -0.1163  0.0950
 1132TIP3    H124887   2.208   3.691   5.931  0.5944 -0.3712  1.8091
 1132TIP3    H224888   2.179   3.561   6.002 -0.6781 -1.5424 -0.7659
 1133TIP3   OH224889   5.778   2.428  15.686 -0.6210 -0.2977 -0.0432
 1133TIP3    H124890   5.783   2.345  15.733  2.4532 -1.0518 -1.5422
 1133TIP3    H224891   5.732   2.407  15.604  0.6475 -0.6813 -0.6703
 1134TIP3   OH224892   1.909   2.163  14.858  0.0259  0.2835 -0.1997
 1134TIP3    H124893   1.964   2.217  14.915 -1.0461  0.9378  0.2270
 1134TIP3    H224894   1.856   2.110  14.918  0.5263 -0.6962 -0.6083
 1135TIP3   OH224895   2.895   2.530  12.642 -0.1183 -0.4061 -0.1747
 1135TIP3    H124896   2.906   2.459  12.579  0.5475  0.3340 -0.9215
 1135TIP3    H224897   2.944   2.603  12.603 -1.5829  0.7382  0.1023
 1136TIP3   OH224898   2.734   5.805   3.170 -0.3950 -0.4003 -0.5593
 1136TIP3    H124899   2.702   5.847   3.091 -2.4726  0.0619  0.4748
 1136TIP3    H224900   2.709   5.713   3.161 -0.1815 -0.4497 -0.6534
 1137TIP3   OH224901   2.292   5.712  16.424  0.1887 -0.4274  0.0877
 1137TIP3    H124902   2.328   5.630  16.460 -0.4188 -1.7526 -2.2378
 1137TIP3    H224903   2.209   5.686  16.384  0.3490  1.2095 -1.3468
 1138TIP3   OH224904   5.982   4.127  15.620  0.0614 -0.4289  0.3140
 1138TIP3    H124905   5.953   4.145  15.530 -0.0742 -3.1426 -0.2151
 1138TIP3    H224906   5.928   4.054  15.649  0.2074  0.3157  2.5867
 1139TIP3   OH224907   1.317   2.018  13.354  0.1488  0.1379  0.1189
 1139TIP3    H124908   1.326   2.092  13.293  1.9793 -0.5780 -0.5130
 1139TIP3    H224909   1.355   2.050  13.436  0.4437  0.0736  0.0056
 1140TIP3   OH224910   3.374   5.437  11.362 -0.2233 -0.2311 -0.2625
 1140TIP3    H124911   3.298   5.381  11.380 -1.5432  1.5819 -0.0701
 1140TIP3    H224912   3.337   5.513  11.318  1.7797 -0.2656 -2.0372
 1141TIP3   OH224913   3.840   0.733   4.879 -0.1813  0.1251 -0.0363
 1141TIP3    H124914   3.779   0.773   4.941 -0.4274  1.7879 -1.2967
 1141TIP3    H224915   3.784   0.691   4.813  0.0360  0.0690 -0.1864
 1142TIP3   OH224916   1.078   6.418   0.868  0.4434  0.0261  0.0249
 1142TIP3    H124917   1.105   6.470   0.792  0.7853  1.0794  0.8495
 1142TIP3    H224918   0.985   6.437   0.879  1.1556  2.6989  1.9941
 1143TIP3   OH224919   0.349   4.197   0.273 -0.3002  0.1896 -0.6268
 1143TIP3    H124920   0.367   4.136   0.201  1.5298 -1.0968  0.8877
 1143TIP3    H224921   0.292   4.148   0.332 -0.1722  0.5229 -0.2273
 1144TIP3   OH224922   2.440   5.866   2.099  0.1297  0.6100 -0.3390
 1144TIP3    H124923   2.496   5.827   2.032 -0.3475  0.6793 -0.7789
 1144TIP3    H224924   2.477   5.835   2.182 -0.3629 -0.9717 -0.6883
 1145TIP3   OH224925   0.795   1.386  15.114  0.0989 -0.3445  0.1426
 1145TIP3    H124926   0.842   1.361  15.193  0.5186 -0.4231 -0.1302
 1145TIP3    H224927   0.816   1.317  15.051 -0.7633 -0.6384  0.1614
 1146TIP3   OH224928   6.564   3.740  13.492  0.1406 -0.1831 -0.2329
 1146TIP3    H124929   6.524   3.693  13.565 -0.4088 -0.0188 -0.4293
 1146TIP3    H224930   6.580   3.828  13.526 -0.3452 -0.0342 -0.3907
 1147TIP3   OH224931   1.243   6.570  11.527 -0.0670  0.6425 -0.7380
 1147TIP3    H124932   1.333   6.596  11.506  0.1561 -0.1366 -0.7825
 1147TIP3    H224933   1.193   6.591  11.448  0.3463 -0.2315 -1.2378
 1148TIP3   OH224934   1.845   0.331  16.844 -0.3348  0.3384  0.3799
 1148TIP3    H124935   1.886   0.265  16.900 -0.0227  1.5885  1.6346
 1148TIP3    H224936   1.912   0.399  16.834 -0.8328  0.7109 -0.5204
 1149TIP3   OH224937   0.589   6.107   2.422  0.2436  0.3987 -0.3807
 1149TIP3    H124938   0.676   6.113   2.461  0.8688  0.0970 -1.7042
 1149TIP3    H224939   0.600   6.138   2.332 -0.4568 -2.0295 -1.3587
 1150TIP3   OH224940   3.877   3.732   4.558 -0.4254  0.0847  0.0285
 1150TIP3    H124941   3.822   3.688   4.623 -0.0712  0.0576  0.3060
 1150TIP3    H224942   3.966   3.707   4.580 -0.2302  0.8126  0.0945
 1151TIP3   OH224943   0.465   6.553   2.099 -0.0609  0.5150  0.0094
 1151TIP3    H124944   0.418   6.507   2.168 -0.3298 -1.2674 -1.3198
 1151TIP3    H224945   0.396   6.592   2.045  0.1165  1.1381  0.2316
 1152TIP3   OH224946   1.879   4.287  15.607 -0.0451 -0.1024  0.1349
 1152TIP3    H124947   1.818   4.281  15.680  0.2409 -0.2536  0.3620
 1152TIP3    H224948   1.955   4.236  15.635  0.8787  1.4952  0.5527
 1153TIP3   OH224949   1.832   5.787  11.110  0.2711 -0.6469 -0.3736
 1153TIP3    H124950   1.776   5.849  11.064 -0.5688 -1.6094 -0.6525
 1153TIP3    H224951   1.875   5.737  11.040 -1.0744 -2.1730 -0.1374
 1154TIP3   OH224952   5.644   4.138  16.275  0.3570  0.5824 -0.2877
 1154TIP3    H124953   5.570   4.181  16.231 -0.4548  0.0981  0.5990
 1154TIP3    H224954   5.604   4.087  16.345  1.5589  0.5023  0.3450
 1155TIP3   OH224955   1.978   1.633  15.894  0.3404  0.0852 -1.0574
 1155TIP3    H124956   1.978   1.644  15.798 -1.0368 -1.4474 -1.2517
 1155TIP3    H224957   1.905   1.573  15.911  0.8830 -0.0323  0.9164
 1156TIP3   OH224958   1.664   2.974  13.177  0.4355 -0.1829 -0.7178
 1156TIP3    H124959   1.621   3.055  13.204 -1.6228 -1.1655 -0.9497
 1156TIP3    H224960   1.758   2.992  13.185 -0.0342  1.3078  1.8957
 1157TIP3   OH224961   2.546   4.914  13.614  0.7610 -0.5655 -0.0448
 1157TIP3    H124962   2.508   4.940  13.531 -1.4829  0.4464  1.2666
 1157TIP3    H224963   2.569   4.997  13.657  0.5079 -1.0194  0.9805
 1158TIP3   OH224964   2.127   3.168   2.788 -0.4324 -0.3997  0.6497
 1158TIP3    H124965   2.205   3.175   2.734 -0.3861 -0.4814  0.7043
 1158TIP3    H224966   2.160   3.170   2.878 -0.4626 -0.7653  0.6706
 1159TIP3   OH224967   6.760   5.785   0.869 -0.6198 -0.0910  0.3978
 1159TIP3    H124968   6.760   5.767   0.775  2.0620 -2.5595  0.7989
 1159TIP3    H224969   6.738   5.878   0.876  0.3613  0.4114 -2.7206
 1160TIP3   OH224970   2.484   0.886  11.881  0.0975  0.0826 -0.6020
 1160TIP3    H124971   2.398   0.896  11.922  0.7409 -0.6393  0.9871
 1160TIP3    H224972   2.476   0.931  11.798 -1.0312  2.2674  0.6376
 1161TIP3   OH224973   2.041   1.399  16.953 -0.2805  0.2960  0.0302
 1161TIP3    H124974   1.990   1.338  17.007 -0.3524 -0.1280 -0.5176
 1161TIP3    H224975   2.050   1.355  16.869  0.4880  0.6259 -0.0628
 1162TIP3   OH224976   3.833   5.242   4.638 -0.2010  0.5023  0.1539
 1162TIP3    H124977   3.828   5.323   4.688  1.9098 -0.2234  1.5872
 1162TIP3    H224978   3.842   5.173   4.704 -1.1183 -0.8357 -1.0757
 1163TIP3   OH224979   3.884   0.563   0.869  0.5098 -0.2499  0.5993
 1163TIP3    H124980   3.914   0.498   0.933  2.4501  0.2722  0.2472
 1163TIP3    H224981   3.823   0.618   0.917  0.2892 -1.1990  1.4136
 1164TIP3   OH224982   3.844   4.277   3.521  0.1797 -0.0142 -0.2375
 1164TIP3    H124983   3.897   4.211   3.566  0.9039  1.2046  0.7454
 1164TIP3    H224984   3.902   4.311   3.453  1.3387  2.4945  1.8921
 1165TIP3   OH224985   4.568   0.135   4.009  0.2407 -0.0911 -0.1043
 1165TIP3    H124986   4.487   0.169   4.047  1.2598  1.9941  0.3050
 1165TIP3    H224987   4.542   0.055   3.963 -2.0316  0.5249  0.0644
 1166TIP3   OH224988   4.627   6.422   0.587 -0.2495  0.4443 -0.4313
 1166TIP3    H124989   4.720   6.418   0.564  0.0228 -0.6312  0.8135
 1166TIP3    H224990   4.622   6.385   0.675 -1.6450  1.9470  0.1525
 1167TIP3   OH224991   0.326   4.434   0.118  0.0915  0.1735  0.0332
 1167TIP3    H124992   0.407   4.469   0.082  0.7803  0.4455  1.8007
 1167TIP3    H224993   0.354   4.363   0.176 -0.8379  0.9581  1.4715
 1168TIP3   OH224994   6.376   1.144   5.942  0.3305  0.1463  0.1858
 1168TIP3    H124995   6.313   1.080   5.910  1.0163 -0.7247  0.5505
 1168TIP3    H224996   6.461   1.102   5.929  0.7597  0.7829  0.8874
 1169TIP3   OH224997   6.098   1.235  11.276 -0.3853  0.5499 -0.3422
 1169TIP3    H124998   6.040   1.166  11.242 -0.4928  1.3542 -1.7881
 1169TIP3    H224999   6.156   1.256  11.203  0.5060  1.0801  0.5146
 1170TIP3   OH225000   4.395   5.667  12.468 -0.4780  0.1077  0.1756
 1170TIP3    H125001   4.321   5.629  12.515 -0.9698 -0.6841 -1.2102
 1170TIP3    H225002   4.388   5.761  12.485 -1.7859  0.0437  0.0966
 1171TIP3   OH225003   0.865   2.552   2.041 -0.5053 -0.4986 -0.5813
 1171TIP3    H125004   0.817   2.625   2.001 -1.4962 -1.0662 -0.4559
 1171TIP3    H225005   0.816   2.474   2.014 -2.2392 -0.7973  3.1780
 1172TIP3   OH225006   6.137   3.722  15.039 -0.3256  0.4904 -0.3501
 1172TIP3    H125007   6.228   3.750  15.048  0.7721 -2.2131 -2.3918
 1172TIP3    H225008   6.127   3.652  15.103 -0.0122 -1.3037 -2.2020
 1173TIP3   OH225009   2.003   1.074  14.970  0.3276 -0.3375  0.1946
 1173TIP3    H125010   2.025   1.004  15.031 -0.4568 -3.7737 -3.2524
 1173TIP3    H225011   1.908   1.067  14.958  0.4056  0.4960 -1.0898
 1174TIP3   OH225012   3.851   0.105   0.541 -0.0115  0.4286 -0.1372
 1174TIP3    H125013   3.880   0.146   0.622 -0.9751  0.2030  0.3273
 1174TIP3    H225014   3.870   0.012   0.553 -2.9252 -0.0479  1.0771
 1175TIP3   OH225015   3.301   0.467  14.017  0.1035  0.6109 -0.2504
 1175TIP3    H125016   3.285   0.426  13.932  1.4938  1.2668 -0.8530
 1175TIP3    H225017   3.313   0.394  14.078 -0.3449  0.1399 -0.7227
 1176TIP3   OH225018   4.097   2.253  15.852  0.3991  0.5073 -0.1366
 1176TIP3    H125019   4.136   2.293  15.930  0.8158  0.0965 -0.1339
 1176TIP3    H225020   4.155   2.279  15.781  1.5238 -1.3642  0.0917
 1177TIP3   OH225021   0.675   1.391   1.022 -0.1857  0.1812 -0.5462
 1177TIP3    H125022   0.752   1.377   0.968 -0.9991 -1.2824 -1.3519
 1177TIP3    H225023   0.653   1.484   1.010  1.6118  0.6771 -0.0648
 1178TIP3   OH225024   5.304   6.402  16.338 -0.5057  0.1543 -0.2079
 1178TIP3    H125025   5.335   6.329  16.391  2.4466  1.2270 -0.3841
 1178TIP3    H225026   5.365   6.473  16.356 -2.6945  2.2520 -0.8729
 1179TIP3   OH225027   2.921   5.802   5.584  0.4599  0.4126  0.4841
 1179TIP3    H125028   2.882   5.813   5.498 -0.4137  0.1005  0.8378
 1179TIP3    H225029   2.871   5.731   5.624  1.1600  0.2424  1.0730
 1180TIP3   OH225030   6.199   1.308  14.950  0.0537 -0.6038 -0.1789
 1180TIP3    H125031   6.260   1.359  14.897 -0.9084 -0.2581 -0.9695
 1180TIP3    H225032   6.229   1.321  15.040  1.1517 -0.4522 -0.5553
 1181TIP3   OH225033   3.845   0.466  16.597 -0.5152 -0.0907  0.1594
 1181TIP3    H125034   3.867   0.415  16.519 -0.3875 -0.0205  0.1501
 1181TIP3    H225035   3.913   0.443  16.661  0.5814  1.4180 -0.4339
 1182TIP3   OH225036   0.550   5.697  15.727  0.3372 -0.0198 -1.0549
 1182TIP3    H125037   0.583   5.617  15.687  0.3926 -0.8836  0.6730
 1182TIP3    H225038   0.627   5.736  15.769 -0.4775 -1.2716  1.7191
 1183TIP3   OH225039   4.005   6.128   3.678 -0.2862  0.1047  0.2131
 1183TIP3    H125040   4.054   6.205   3.707 -0.9559  0.3436  0.7310
 1183TIP3    H225041   3.950   6.161   3.606 -0.6173  0.1307  0.4751
 1184TIP3   OH225042   1.773   5.086  16.909 -0.4258  0.0926  0.4456
 1184TIP3    H125043   1.815   5.165  16.944  2.5621 -1.2649  0.1106
 1184TIP3    H225044   1.767   5.102  16.815  1.7976 -0.7198  0.1251
 1185TIP3   OH225045   5.916   2.445  16.562 -0.0522 -0.2867 -0.2002
 1185TIP3    H125046   5.923   2.388  16.638 -0.9659 -1.2521 -0.8193
 1185TIP3    H225047   5.965   2.524  16.585  2.7211 -2.0031  0.0068
 1186TIP3   OH225048   6.201   3.619  17.080 -0.2880  0.3937  0.6025
 1186TIP3    H125049   6.252   3.700  17.080 -1.4953  1.1958 -1.2617
 1186TIP3    H225050   6.118   3.644  17.120 -0.6091  0.0299  0.1529
 1187TIP3   OH225051   3.945   4.019   5.621  0.1658  0.2522  0.2136
 1187TIP3    H125052   3.967   4.089   5.683  1.8804  0.7292 -0.9109
 1187TIP3    H225053   3.887   4.061   5.558 -1.0608 -0.0715  1.0961
 1188TIP3   OH225054   4.164   5.734   2.678  0.7285 -0.8142  0.4743
 1188TIP3    H125055   4.253   5.709   2.653  1.5709  0.5550  2.0258
 1188TIP3    H225056   4.137   5.795   2.609  1.1123 -0.9949  0.1611
 1189TIP3   OH225057   1.125   0.635   3.061  0.2856  0.0483 -0.2869
 1189TIP3    H125058   1.216   0.655   3.082  0.0868  0.9335 -0.2854
 1189TIP3    H225059   1.128   0.600   2.972  0.6448 -0.0880 -0.2210
 1190TIP3   OH225060   1.923   5.915   1.859  0.0764  0.0223  0.4079
 1190TIP3    H125061   1.851   5.862   1.892  0.6999 -1.0242  0.1033
 1190TIP3    H225062   1.990   5.909   1.928 -0.3029  1.3788  0.9092
 1191TIP3   OH225063   0.146   3.654  11.446 -0.3006  0.1024 -0.1479
 1191TIP3    H125064   0.112   3.588  11.506 -2.0833 -0.2850 -1.5411
 1191TIP3    H225065   0.209   3.607  11.391  1.2000  0.4181  1.2728
 1192TIP3   OH225066   0.148   4.712   5.318  0.2069  0.7227 -0.3665
 1192TIP3    H125067   0.220   4.668   5.363 -1.9537 -3.2911 -0.5676
 1192TIP3    H225068   0.168   4.700   5.225 -0.3331  0.1602 -0.4191
 1193TIP3   OH225069   6.025   5.203   2.417  0.0745 -0.1999  0.2285
 1193TIP3    H125070   6.092   5.260   2.381  0.5056 -0.4824  0.5825
 1193TIP3    H225071   5.977   5.257   2.479 -0.2691  0.1092 -0.3017
 1194TIP3   OH225072   4.916   3.453  13.978 -0.2453  0.0644  0.3601
 1194TIP3    H125073   4.986   3.405  13.935  0.9459 -0.1950  2.5028
 1194TIP3    H225074   4.842   3.448  13.918  0.5506 -2.5414 -0.4404
 1195TIP3   OH225075   1.897   3.990  11.933  0.1734  0.0954 -0.1462
 1195TIP3    H125076   1.896   4.048  11.857 -0.4476 -1.5728 -1.4258
 1195TIP3    H225077   1.948   4.037  11.998  0.4413  1.6866 -1.4794
 1196TIP3   OH225078   3.734   3.440  17.250 -0.1682  0.4632  0.2456
 1196TIP3    H125079   3.745   3.476  17.162  1.1650 -2.9541 -1.0611
 1196TIP3    H225080   3.657   3.385  17.244 -1.1880  1.6735  1.7684
 1197TIP3   OH225081   4.936   3.094   3.301 -0.2759  0.1032 -0.1040
 1197TIP3    H125082   4.933   3.095   3.397  0.4617  1.3651 -0.0888
 1197TIP3    H225083   4.905   3.181   3.275 -0.0438 -0.0793 -0.9997
 1198TIP3   OH225084   6.657   1.672   1.326 -0.0385 -0.4406  0.4755
 1198TIP3    H125085   6.573   1.631   1.349 -1.6484  1.7397 -1.2799
 1198TIP3    H225086   6.646   1.699   1.235  2.5857 -0.0739  0.2297
 1199TIP3   OH225087   3.445   5.062   0.522  0.2877  0.2236  0.0426
 1199TIP3    H125088   3.466   4.987   0.578  1.0730 -0.1267 -0.6949
 1199TIP3    H225089   3.470   5.138   0.574  1.6546 -0.1230 -0.0732
 1200TIP3   OH225090   5.231   5.328   5.452 -0.0467 -0.1691 -0.6781
 1200TIP3    H125091   5.256   5.363   5.537 -0.3516  2.6911 -1.7131
 1200TIP3    H225092   5.306   5.275   5.425  1.0445  0.8199  0.3391
 1201TIP3   OH225093   2.895   6.351   6.686  0.4154 -0.1523 -0.3751
 1201TIP3    H125094   2.828   6.345   6.755  0.0929  2.9857 -0.3391
 1201TIP3    H225095   2.959   6.284   6.709 -0.0902  0.2980  2.5523
 1202TIP3   OH225096   5.019   4.519   2.522  0.0251  0.0270 -0.2587
 1202TIP3    H125097   5.070   4.470   2.458 -0.6329 -0.1383 -0.6655
 1202TIP3    H225098   4.933   4.529   2.481 -0.2380  0.3863  0.3732
 1203TIP3   OH225099   4.673   0.560   3.043  0.4083  0.0492 -0.7455
 1203TIP3    H125100   4.768   0.552   3.052  0.5454  1.6208 -0.6630
 1203TIP3    H225101   4.637   0.511   3.118  1.1496 -0.3098 -0.6233
 1204TIP3   OH225102   3.230   1.486  14.573 -0.2394  0.4093 -0.2858
 1204TIP3    H125103   3.166   1.416  14.581  0.8020 -0.5336 -0.0815
 1204TIP3    H225104   3.306   1.454  14.622  0.7286  1.1052 -1.3128
 1205TIP3   OH225105   0.222   5.365  15.544  0.0609 -0.5038  0.2817
 1205TIP3    H125106   0.196   5.274  15.560 -1.0063 -0.2622 -0.0274
 1205TIP3    H225107   0.266   5.392  15.625  2.0829 -1.8828 -0.3252
 1206TIP3   OH225108   4.013   6.648   4.748 -0.0844  0.0425  0.9793
 1206TIP3    H125109   3.981   6.735   4.726 -1.8117 -0.3460  1.7857
 1206TIP3    H225110   3.944   6.589   4.717  1.0395 -1.0335  0.4859
 1207TIP3   OH225111   6.180   6.291   5.212  0.0087 -0.0664  0.3423
 1207TIP3    H125112   6.226   6.347   5.150  2.9314 -0.4508  2.0783
 1207TIP3    H225113   6.154   6.215   5.161 -0.1174  0.8849 -1.0388
 1208TIP3   OH225114   2.388   1.923  12.040 -0.4318  0.5441 -0.0280
 1208TIP3    H125115   2.427   1.997  11.993  0.9894 -0.7825 -0.9667
 1208TIP3    H225116   2.436   1.847  12.009 -1.7881 -0.7714  1.0428
 1209TIP3   OH225117   1.453   0.730  11.104  0.6031 -0.1602  0.7124
 1209TIP3    H125118   1.404   0.749  11.024  1.2789 -3.4773 -0.5456
 1209TIP3    H225119   1.522   0.796  11.105 -0.0251  0.5640 -0.8610
 1210TIP3   OH225120   3.589   2.155   3.340  0.1744  0.3396 -0.4059
 1210TIP3    H125121   3.654   2.191   3.400 -1.9733  0.2977  2.0046
 1210TIP3    H225122   3.566   2.070   3.377  0.1076 -0.4931 -2.2796
 1211TIP3   OH225123   5.068   3.440   0.633  0.0590 -0.0341 -0.0221
 1211TIP3    H125124   5.143   3.404   0.680 -0.4940 -1.3167 -0.1228
 1211TIP3    H225125   4.993   3.388   0.661 -1.0222  1.9367  0.9089
 1212TIP3   OH225126   0.832   6.207  13.953 -0.0009  0.0973 -0.1193
 1212TIP3    H125127   0.768   6.268  13.990  0.7272  0.5580  0.4034
 1212TIP3    H225128   0.813   6.206  13.859 -1.3914 -0.5181  0.1562
 1213TIP3   OH225129   5.791   1.264  11.914 -0.2655 -0.1667 -0.6935
 1213TIP3    H125130   5.862   1.254  11.978 -1.3445  0.3906  0.6252
 1213TIP3    H225131   5.776   1.175  11.882  2.0270 -0.0786 -2.1240
 1214TIP3   OH225132   3.802   2.617   5.882  0.3376 -0.0808 -0.1692
 1214TIP3    H125133   3.882   2.669   5.880  0.7821 -0.7697 -0.2685
 1214TIP3    H225134   3.813   2.558   5.957  0.4900 -1.0651 -0.9559
 1215TIP3   OH225135   1.073   1.367   6.889  0.6695 -0.2507  0.7085
 1215TIP3    H125136   1.075   1.280   6.848  0.5738  1.1448 -2.3788
 1215TIP3    H225137   1.138   1.362   6.959  1.1314 -2.5904  0.1701
 1216TIP3   OH225138   5.050   5.238   0.473  0.0176 -0.0702  0.1061
 1216TIP3    H125139   5.022   5.326   0.497 -3.3271 -1.3256  1.1316
 1216TIP3    H225140   5.059   5.192   0.556  2.3662 -0.5730 -0.3857
 1217TIP3   OH225141   1.941   1.599  14.191  0.1565  0.2995 -1.0658
 1217TIP3    H125142   1.873   1.577  14.254  0.1170 -0.8781 -1.5135
 1217TIP3    H225143   1.939   1.695  14.186 -0.5432  0.3372 -0.0656
 1218TIP3   OH225144   3.428   6.797  11.635  0.3443 -0.0930 -0.7645
 1218TIP3    H125145   3.369   6.836  11.699 -0.6438 -0.3958 -1.4793
 1218TIP3    H225146   3.470   6.725  11.682  0.2968  0.2438 -0.1982
 1219TIP3   OH225147   4.255   4.101   4.316  0.2989 -0.7709  0.5027
 1219TIP3    H125148   4.221   4.101   4.406  0.2816  1.7811  0.5467
 1219TIP3    H225149   4.298   4.017   4.306 -1.1661 -1.7817  2.3468
 1220TIP3   OH225150   3.596   6.501   5.492 -0.2140  0.3034 -0.2269
 1220TIP3    H125151   3.504   6.482   5.474 -0.1010 -0.0484 -0.4544
 1220TIP3    H225152   3.597   6.592   5.521 -0.5918  0.4148 -0.5597
 1221TIP3   OH225153   6.731   5.072  15.876 -0.4924  0.0316 -0.6782
 1221TIP3    H125154   6.787   5.085  15.799  0.4887 -1.0946 -0.1787
 1221TIP3    H225155   6.679   5.152  15.881  1.8930  1.6514 -0.5106
 1222TIP3   OH225156   2.736   3.600   0.374 -0.1201  0.1111  0.3261
 1222TIP3    H125157   2.832   3.606   0.364  0.0895 -0.9147  1.6323
 1222TIP3    H225158   2.713   3.521   0.326 -0.5735  1.3491 -1.5598
 1223TIP3   OH225159   0.126   5.786   1.200  0.1433  0.2640  0.4722
 1223TIP3    H125160   0.099   5.868   1.241 -0.0603  0.3899  0.0921
 1223TIP3    H225161   0.164   5.735   1.271 -1.8005 -0.2374  1.1711
 1224TIP3   OH225162   4.827   4.509  15.304 -0.0245 -0.1194 -0.0483
 1224TIP3    H125163   4.804   4.526  15.213 -2.0622 -0.5069  0.3578
 1224TIP3    H225164   4.832   4.596  15.344 -0.0296  0.0121 -0.3327
 1225TIP3   OH225165   2.244   2.090  15.693  0.5098 -0.3800  0.3340
 1225TIP3    H125166   2.197   2.025  15.745  0.2938 -0.6398 -0.1937
 1225TIP3    H225167   2.283   2.149  15.759 -2.5053  1.2514  0.7584
 1226TIP3   OH225168   3.479   5.764  10.482 -0.7765 -0.1277  0.7853
 1226TIP3    H125169   3.503   5.857  10.486 -0.7765 -0.0885 -0.1572
 1226TIP3    H225170   3.505   5.729  10.567 -1.6248  0.9456  1.5046
 1227TIP3   OH225171   3.483   4.977   2.550 -0.0108 -0.2422 -0.3922
 1227TIP3    H125172   3.555   4.955   2.491  1.1255 -2.3478  1.6756
 1227TIP3    H225173   3.521   5.038   2.612 -0.7538  0.6916 -0.8470
 1228TIP3   OH225174   4.044   5.524   2.295 -1.0515  0.2023 -0.2515
 1228TIP3    H125175   3.990   5.597   2.264 -0.1237 -0.7112 -4.3986
 1228TIP3    H225176   4.132   5.560   2.300 -1.0510  0.0996  0.4231
 1229TIP3   OH225177   4.006   4.441   5.844  1.0226 -0.6417 -0.2272
 1229TIP3    H125178   4.017   4.411   5.935  2.0124 -0.5195 -0.2932
 1229TIP3    H225179   3.912   4.455   5.835  1.0254  0.3970  1.1267
 1230TIP3   OH225180   5.341   1.905  15.617  0.0210  0.1425 -0.4486
 1230TIP3    H125181   5.395   1.957  15.558  0.3440  1.4584  0.9844
 1230TIP3    H225182   5.351   1.947  15.702 -1.1199 -1.2224  0.3784
 1231TIP3   OH225183   5.904   5.760  14.958  0.6137 -0.0623  0.3813
 1231TIP3    H125184   5.867   5.842  14.925  2.1750  1.0263  1.2710
 1231TIP3    H225185   5.892   5.765  15.053 -1.9952 -2.2442  0.2498
 1232TIP3   OH225186   3.471   0.723   2.243  0.3063  0.4631  0.9879
 1232TIP3    H125187   3.388   0.735   2.290  1.3704  0.3022  2.9574
 1232TIP3    H225188   3.471   0.791   2.175 -1.6461  0.1517  0.6436
 1233TIP3   OH225189   6.486   0.441   4.015 -0.0947 -0.0939 -0.2840
 1233TIP3    H125190   6.512   0.359   4.057 -0.1504  0.8943  1.7347
 1233TIP3    H225191   6.391   0.444   4.023 -0.2874 -0.6826 -2.0199
 1234TIP3   OH225192   6.400   1.196  13.220  0.0833  0.1914  0.8115
 1234TIP3    H125193   6.466   1.254  13.257  0.3964  0.5976 -0.3594
 1234TIP3    H225194   6.438   1.108  13.230  1.2262  0.4926 -0.6599
 1235TIP3   OH225195   2.355   2.876   0.903 -0.5480 -0.2348 -0.2716
 1235TIP3    H125196   2.345   2.868   0.998  0.7643  1.4601  0.0380
 1235TIP3    H225197   2.430   2.821   0.882  0.5950  1.1575  0.0369
 1236TIP3   OH225198   6.219   6.275  14.373  0.0248  0.0719  0.2810
 1236TIP3    H125199   6.138   6.301  14.418  0.3416  0.0075  0.8999
 1236TIP3    H225200   6.200   6.286  14.280 -1.5569 -2.3839  0.2841
 1237TIP3   OH225201   5.424   3.145  16.534 -0.3616 -0.2053  0.0497
 1237TIP3    H125202   5.438   3.072  16.473  0.7512 -0.7126  0.8819
 1237TIP3    H225203   5.511   3.162  16.571 -1.1032 -0.3047  1.9305
 1238TIP3   OH225204   5.951   1.825  17.052 -0.0513  0.5941  0.2857
 1238TIP3    H125205   5.871   1.780  17.079  0.0621  0.0312 -0.3225
 1238TIP3    H225206   6.019   1.788  17.109  0.5928 -2.1742 -2.1685
 1239TIP3   OH225207   0.693   1.305  16.719 -0.4021  0.2147  0.4108
 1239TIP3    H125208   0.627   1.249  16.679  0.3482  1.1404 -2.2288
 1239TIP3    H225209   0.760   1.245  16.752 -0.2847 -0.5217 -1.1360
 1240TIP3   OH225210   6.021   1.152   2.703  0.0779 -0.0596  0.1548
 1240TIP3    H125211   5.982   1.230   2.661 -1.1143  0.0071  1.3573
 1240TIP3    H225212   5.946   1.103   2.736  0.9425 -0.8004  1.0310
 1241TIP3   OH225213   0.316   1.190   2.180  0.0418  0.0664 -0.1016
 1241TIP3    H125214   0.391   1.207   2.237 -1.0734  2.3305  0.7686
 1241TIP3    H225215   0.341   1.112   2.130  2.3988 -0.0207  1.1209
 1242TIP3   OH225216   1.225   2.324   3.788  0.1185  0.3723  0.1457
 1242TIP3    H125217   1.250   2.294   3.876  0.6535 -0.0505 -0.1432
 1242TIP3    H225218   1.308   2.350   3.748  0.0255 -0.4741 -0.6162
 1243TIP3   OH225219   0.909   6.522   5.345  0.1759  0.3257 -0.0023
 1243TIP3    H125220   0.955   6.588   5.294 -2.6233  0.7280 -2.1748
 1243TIP3    H225221   0.832   6.568   5.380 -0.3741 -1.0949  0.7205
 1244TIP3   OH225222   4.764   3.722   0.164 -0.2217 -0.0501 -0.0544
 1244TIP3    H125223   4.834   3.786   0.178  0.9521 -1.7170  1.9551
 1244TIP3    H225224   4.683   3.773   0.169  0.7849  1.7111 -1.2521
 1245TIP3   OH225225   1.278   5.089   5.709  0.0795  0.6427  0.5482
 1245TIP3    H125226   1.330   5.022   5.755  1.2627  2.0500  1.3088
 1245TIP3    H225227   1.343   5.142   5.663 -1.0549 -0.4780 -2.4726
 1246TIP3   OH225228   5.795   2.436  14.406  0.8383  0.0875  0.6118
 1246TIP3    H125229   5.788   2.492  14.483  1.2808  0.0880  0.6567
 1246TIP3    H225230   5.713   2.387  14.404  0.4822  0.6812  0.6172
 1247TIP3   OH225231   3.930   6.000  11.337 -0.1779 -0.0219  0.1985
 1247TIP3    H125232   3.958   5.944  11.265  1.3513 -2.7229  2.7759
 1247TIP3    H225233   3.850   5.958  11.370  0.4128 -0.1492  1.5014
 1248TIP3   OH225234   2.329   0.457  10.944  0.4098 -0.2189 -0.5139
 1248TIP3    H125235   2.373   0.373  10.931 -1.1355 -0.7564 -2.4710
 1248TIP3    H225236   2.393   0.510  10.991  2.3885 -1.6305 -1.5276
 1249TIP3   OH225237   3.114   0.654   5.226  0.5767 -0.6995 -0.1807
 1249TIP3    H125238   3.193   0.703   5.202  1.2901 -1.2923  0.9441
 1249TIP3    H225239   3.050   0.679   5.159  2.1550 -1.3541 -1.9761
 1250TIP3   OH225240   4.490   1.557  15.756  0.1638 -0.3401  0.7681
 1250TIP3    H125241   4.491   1.467  15.788 -1.1571  0.1046  2.0883
 1250TIP3    H225242   4.520   1.610  15.830 -1.7701  0.5686  0.9539
 1251TIP3   OH225243   5.068   1.159   5.060 -0.8405  0.2976 -0.2687
 1251TIP3    H125244   5.069   1.125   4.971 -0.9632 -0.5230  0.0365
 1251TIP3    H225245   5.150   1.208   5.068 -0.8929  0.4849 -0.8757
 1252TIP3   OH225246   1.973   1.499   2.027 -0.3355  0.4076 -0.5632
 1252TIP3    H125247   1.916   1.422   2.031  0.8946 -0.5330 -0.9535
 1252TIP3    H225248   1.913   1.574   2.033 -1.4274 -0.5891  1.1734
 1253TIP3   OH225249   5.235   0.010  16.714  0.3684 -0.5099  0.1791
 1253TIP3    H125250   5.307   0.073  16.706 -1.4466  1.8809  1.8579
 1253TIP3    H225251   5.178   0.029  16.640 -0.3904  0.1326  0.9188
 1254TIP3   OH225252   0.887   4.905   4.583 -0.5857 -0.4653  0.0226
 1254TIP3    H125253   0.959   4.890   4.522 -0.3903 -0.2411  0.1957
 1254TIP3    H225254   0.885   4.826   4.638 -2.5287 -1.8998 -2.0235
 1255TIP3   OH225255   0.237   0.577   1.138  0.6090  0.2114  0.2093
 1255TIP3    H125256   0.238   0.540   1.049  0.6890 -1.2997  0.8220
 1255TIP3    H225257   0.152   0.621   1.144  0.9684  1.0814 -0.9143
 1256TIP3   OH225258   0.743   3.097   5.859  0.1955 -0.0893  0.3888
 1256TIP3    H125259   0.718   3.150   5.784 -0.4724 -0.4442  0.3618
 1256TIP3    H225260   0.785   3.159   5.919 -1.2359  0.6203  0.6824
 1257TIP3   OH225261   4.960   4.357   4.375  0.3834 -0.4433 -0.2991
 1257TIP3    H125262   5.018   4.324   4.306  1.9653  0.7829  0.4103
 1257TIP3    H225263   4.931   4.443   4.342 -0.4461 -0.7256 -0.3128
 1258TIP3   OH225264   2.424   5.819  12.943 -0.4058 -0.0747  0.4569
 1258TIP3    H125265   2.398   5.896  12.892 -0.1442  0.3632  0.9722
 1258TIP3    H225266   2.519   5.816  12.935 -0.4335 -0.4455  0.2944
 1259TIP3   OH225267   3.459   3.831   6.027 -0.5902  0.5170 -0.1776
 1259TIP3    H125268   3.544   3.792   6.050 -0.1009  0.8764 -1.3403
 1259TIP3    H225269   3.428   3.869   6.109  0.5268  0.6657  0.1929
 1260TIP3   OH225270   2.183   4.688   1.995 -0.2190 -0.6825  0.2886
 1260TIP3    H125271   2.096   4.653   2.015 -0.3484 -0.0829  0.7994
 1260TIP3    H225272   2.223   4.700   2.081 -0.1945  0.4696  0.1133
 1261TIP3   OH225273   0.329   3.460   6.877 -0.2186 -0.2810  0.0766
 1261TIP3    H125274   0.240   3.427   6.889 -0.8824  1.7941  1.1494
 1261TIP3    H225275   0.316   3.552   6.851  1.6307  0.2724  1.0859
 1262TIP3   OH225276   1.660   2.607   1.525  0.0243 -0.5883  0.1828
 1262TIP3    H125277   1.629   2.687   1.566  0.2366 -0.3391 -0.1469
 1262TIP3    H225278   1.748   2.593   1.560  0.0181 -0.6372  0.1799
 1263TIP3   OH225279   4.772   2.316  11.938 -0.2436 -0.0564  0.3507
 1263TIP3    H125280   4.841   2.251  11.955 -1.0082 -0.4459  2.0666
 1263TIP3    H225281   4.693   2.278  11.976 -1.4145  0.4138 -1.5704
 1264TIP3   OH225282   1.681   4.491  16.019 -0.2750  0.2900 -0.1460
 1264TIP3    H125283   1.691   4.531  15.933  1.9658  0.4250  0.1270
 1264TIP3    H225284   1.671   4.564  16.079 -1.9269  0.1926 -0.2781
 1265TIP3   OH225285   4.963   0.160   1.786  0.1648 -0.1321  0.1959
 1265TIP3    H125286   5.044   0.109   1.791  0.3803  0.3857  2.6187
 1265TIP3    H225287   4.988   0.248   1.813 -0.5825  0.8334 -2.1458
 1266TIP3   OH225288   6.760   5.126   6.486  0.3080  0.2785 -0.3292
 1266TIP3    H125289   6.789   5.056   6.428  2.2166  1.4479 -0.8621
 1266TIP3    H225290   6.813   5.115   6.566 -0.1822  0.4359  0.0185
 1267TIP3   OH225291   3.769   5.622   3.284 -0.1536  0.0031  0.3677
 1267TIP3    H125292   3.787   5.677   3.360 -2.0844  1.8357 -0.4394
 1267TIP3    H225293   3.675   5.633   3.268  0.0064 -1.2109 -1.6197
 1268TIP3   OH225294   6.799   2.980  15.023  0.1470 -0.0098 -0.0518
 1268TIP3    H125295   6.862   2.908  15.026  0.1136 -0.1133 -1.3846
 1268TIP3    H225296   6.810   3.025  15.106 -0.8410 -2.3934  1.4133
 1269TIP3   OH225297   1.310   3.574  11.274  0.0351 -0.4276  0.1480
 1269TIP3    H125298   1.344   3.492  11.239  1.9110 -0.0554  1.0672
 1269TIP3    H225299   1.350   3.582  11.361 -0.5617  1.1982  0.2898
 1270TIP3   OH225300   3.948   5.064   4.272 -0.2690 -0.7535  0.0490
 1270TIP3    H125301   3.972   5.123   4.344  0.4415  0.5012 -1.1888
 1270TIP3    H225302   4.031   5.040   4.232 -0.7450 -0.1247 -1.3620
 1271TIP3   OH225303   5.142   5.843  11.137  0.4850  0.6958  0.3259
 1271TIP3    H125304   5.142   5.793  11.218 -1.8978  0.0046 -0.0459
 1271TIP3    H225305   5.077   5.799  11.082  1.6833  1.4579 -1.7622
 1272TIP3   OH225306   3.325   3.579   4.527  0.1380  0.4596 -0.1846
 1272TIP3    H125307   3.418   3.561   4.543  0.2209  0.9121 -0.1539
 1272TIP3    H225308   3.281   3.546   4.605  0.2337 -0.0921 -0.3604
 1273TIP3   OH225309   2.394   6.434   5.535  0.7196  0.3875  0.4212
 1273TIP3    H125310   2.327   6.498   5.561  0.5339  0.0219  0.8431
 1273TIP3    H225311   2.357   6.391   5.458  1.0964  1.1892 -0.2135
 1274TIP3   OH225312   3.515   5.580   4.308 -0.2487  0.1826  0.2201
 1274TIP3    H125313   3.582   5.528   4.265 -0.6448  1.9141 -2.6066
 1274TIP3    H225314   3.556   5.665   4.322 -1.5450  0.9748 -0.7021
 1275TIP3   OH225315   6.207   2.313  16.740  0.0073 -0.9654  0.3193
 1275TIP3    H125316   6.215   2.258  16.661 -1.5522  0.3372 -0.7864
 1275TIP3    H225317   6.118   2.296  16.771 -0.8012  1.5001 -0.5129
 1276TIP3   OH225318   2.992   4.048   4.869 -0.0788  0.2231  0.1160
 1276TIP3    H125319   3.028   3.964   4.900 -0.0995 -0.3021 -1.2706
 1276TIP3    H225320   2.963   4.092   4.949  1.4426 -0.3839  1.0249
 1277TIP3   OH225321   0.415   6.518   0.706 -0.2592 -0.0303  0.0520
 1277TIP3    H125322   0.429   6.466   0.785 -1.8308 -0.6214 -0.0240
 1277TIP3    H225323   0.494   6.571   0.697  0.6502 -1.1703  1.0887
 1278TIP3   OH225324   6.379   2.225  16.107 -0.1281  0.2061 -0.0062
 1278TIP3    H125325   6.372   2.310  16.148  0.6964  0.1653  0.2341
 1278TIP3    H225326   6.462   2.228  16.058 -0.1700 -0.3940 -0.1278
 1279TIP3   OH225327   2.461   4.542  12.120 -0.2265  0.4706  0.2933
 1279TIP3    H125328   2.550   4.517  12.094  0.2441  1.8795  0.5093
 1279TIP3    H225329   2.434   4.606  12.055 -1.4110 -0.5619 -0.2460
 1280TIP3   OH225330   2.218   0.598   0.217 -0.6122  0.9001 -0.4156
 1280TIP3    H125331   2.204   0.627   0.307  0.4155 -0.2778  0.1408
 1280TIP3    H225332   2.254   0.675   0.172 -2.9854  2.0904 -0.3478
 1281TIP3   OH225333   3.665   1.381   3.031 -0.3739  0.3797  0.0149
 1281TIP3    H125334   3.594   1.383   2.967  0.0893 -1.6046 -0.6057
 1281TIP3    H225335   3.728   1.319   2.995  1.1236  1.2057  1.1404
 1282TIP3   OH225336   1.826   3.468  12.672  0.6366 -0.1462 -0.1260
 1282TIP3    H125337   1.856   3.377  12.671 -1.0147 -0.6891 -1.5681
 1282TIP3    H225338   1.847   3.499  12.761  1.1965 -1.9288  0.3745
 1283TIP3   OH225339   5.257   5.329  13.141 -0.6337 -0.0678 -0.3021
 1283TIP3    H125340   5.286   5.242  13.167  2.9191  1.7961  2.3862
 1283TIP3    H225341   5.234   5.373  13.223 -2.3080  1.5690 -1.5926
 1284TIP3   OH225342   6.433   5.705  12.083  0.2151  0.0498 -0.0713
 1284TIP3    H125343   6.450   5.616  12.054  0.4048  0.0991 -0.1078
 1284TIP3    H225344   6.434   5.700  12.178 -0.0872 -0.0475 -0.0700
 1285TIP3   OH225345   3.559   0.022  16.204 -0.0707 -0.2652  0.0979
 1285TIP3    H125346   3.597   0.109  16.213  2.1972 -1.4404  2.5649
 1285TIP3    H225347   3.479   0.026  16.256  0.8203 -0.0683  1.4800
 1286TIP3   OH225348   2.825   0.990   6.708 -0.4337  0.1122 -0.1526
 1286TIP3    H125349   2.869   1.030   6.633 -0.2016 -1.2168 -0.7416
 1286TIP3    H225350   2.819   0.897   6.685 -2.4760  0.0904  0.4528
 1287TIP3   OH225351   3.153   3.994  13.352  0.2685 -0.0550 -0.4181
 1287TIP3    H125352   3.217   4.051  13.395  0.7390 -0.2445 -0.8535
 1287TIP3    H225353   3.069   4.034  13.372  0.4542 -0.3054  0.9192
 1288TIP3   OH225354   3.355   3.635  10.374 -0.0503 -0.1114 -0.4155
 1288TIP3    H125355   3.403   3.712  10.404 -3.3369  1.3449  1.3375
 1288TIP3    H225356   3.380   3.625  10.282  0.7750  2.7465 -0.5412
 1289TIP3   OH225357   2.368   3.616   3.446 -0.0999 -0.5104 -0.3417
 1289TIP3    H125358   2.417   3.690   3.483 -1.1815  0.5512 -1.0139
 1289TIP3    H225359   2.401   3.540   3.494  2.6254  0.0835 -1.1464
 1290TIP3   OH225360   0.740   1.550   0.539 -0.1842 -0.2822  0.3246
 1290TIP3    H125361   0.663   1.511   0.499 -1.1387  1.1674  0.7273
 1290TIP3    H225362   0.724   1.644   0.537  1.0806 -0.0208  1.4084
 1291TIP3   OH225363   4.451   1.675  14.164 -0.7107 -0.1341  0.2706
 1291TIP3    H125364   4.544   1.691  14.150 -0.5162  0.6437  2.2242
 1291TIP3    H225365   4.414   1.665  14.076  1.2189 -0.5082 -0.5125
 1292TIP3   OH225366   0.687   0.961  16.633 -0.3969 -0.0664  0.2728
 1292TIP3    H125367   0.599   0.989  16.657 -0.3517 -0.8841  1.4769
 1292TIP3    H225368   0.708   0.892  16.696  1.7974  1.3301  1.1432
 1293TIP3   OH225369   6.418   2.430   2.919  0.1374 -0.3029  0.1797
 1293TIP3    H125370   6.386   2.501   2.862 -1.5982 -0.7171  0.6022
 1293TIP3    H225371   6.440   2.473   3.001 -0.1905 -0.1296  0.1790
 1294TIP3   OH225372   4.945   5.871  15.359 -0.6508  0.1632 -0.2115
 1294TIP3    H125373   4.878   5.921  15.406 -0.2089 -0.3853  0.9949
 1294TIP3    H225374   4.963   5.796  15.415  2.9759  1.6852  0.8096
 1295TIP3   OH225375   0.548   2.893   1.519  0.0666 -0.3979 -0.2930
 1295TIP3    H125376   0.454   2.911   1.522  0.0650 -0.6541  2.6170
 1295TIP3    H225377   0.556   2.813   1.466 -1.1463  0.6231 -2.0637
 1296TIP3   OH225378   3.644   4.641  12.707  0.1445  0.0626 -0.3510
 1296TIP3    H125379   3.614   4.676  12.791  0.0428  1.3167 -0.9044
 1296TIP3    H225380   3.563   4.619  12.660  0.1765  0.5657 -0.6347
 1297TIP3   OH225381   4.949   5.195   0.916 -0.0170  0.1821  0.2583
 1297TIP3    H125382   4.950   5.271   0.973  0.5990 -0.4349  1.0918
 1297TIP3    H225383   5.029   5.202   0.864  0.7608 -0.6361  1.3386
 1298TIP3   OH225384   3.938   3.972  12.151 -0.1841  0.3306 -0.1111
 1298TIP3    H125385   3.934   3.924  12.069 -0.1790  0.5644 -0.2498
 1298TIP3    H225386   3.930   4.064  12.125  1.5915  0.5312 -0.0130
 1299TIP3   OH225387   1.029   5.027   4.971  0.5903  0.1539 -0.2695
 1299TIP3    H125388   1.055   5.089   5.040 -0.6751 -0.2099  0.5533
 1299TIP3    H225389   1.006   5.083   4.896 -1.6471  0.7897  0.8368
 1300TIP3   OH225390   4.177   1.162  16.947  0.8302 -0.1085 -0.1022
 1300TIP3    H125391   4.159   1.250  16.979 -1.1660 -0.5104 -0.0704
 1300TIP3    H225392   4.136   1.104  17.011  0.3011 -1.0090 -1.2458
 1301TIP3   OH225393   6.784   3.585  16.420  0.2903  0.0318 -0.3852
 1301TIP3    H125394   6.741   3.534  16.351  2.7344 -0.2668 -1.7602
 1301TIP3    H225395   6.776   3.676  16.391 -0.5595  0.0900  0.0279
 1302TIP3   OH225396   0.874   0.962  15.765 -0.1171  0.3968 -0.1499
 1302TIP3    H125397   0.969   0.958  15.763 -0.1860 -1.3627 -0.7589
 1302TIP3    H225398   0.849   0.908  15.841 -0.6584  0.1742 -0.4822
 1303TIP3   OH225399   3.475   2.545   4.024  0.6892 -0.0454 -0.0977
 1303TIP3    H125400   3.404   2.573   3.965  0.9489 -1.3756 -1.0653
 1303TIP3    H225401   3.494   2.622   4.077  0.1351  1.0444 -1.4549
 1304TIP3   OH225402   0.257   6.769  15.996  0.1754 -0.5821  0.7497
 1304TIP3    H125403   0.257   6.861  15.969 -1.8915 -0.0673  2.3524
 1304TIP3    H225404   0.343   6.736  15.970  1.6839  2.3128  1.8497
 1305TIP3   OH225405   2.921   0.369  14.542  0.1955 -0.4805 -0.4849
 1305TIP3    H125406   2.978   0.295  14.521  0.6834  0.1135 -1.2953
 1305TIP3    H225407   2.899   0.357  14.635  2.0504 -0.4466 -0.0223
 1306TIP3   OH225408   5.725   0.238   6.336  0.5117 -0.1970  0.4250
 1306TIP3    H125409   5.686   0.287   6.263  0.4791  0.8241  1.1047
 1306TIP3    H225410   5.664   0.167   6.353  0.3861 -0.2826 -0.3713
 1307TIP3   OH225411   5.181   1.232   0.869 -0.1337 -0.2228 -0.3798
 1307TIP3    H125412   5.138   1.245   0.785  0.3356 -1.5237 -0.8333
 1307TIP3    H225413   5.236   1.155   0.856 -0.4514 -0.7499  1.2563
 1308TIP3   OH225414   0.229   2.545  13.099  0.4638  0.3927 -0.7734
 1308TIP3    H125415   0.192   2.618  13.049 -0.5081  0.1732 -0.3892
 1308TIP3    H225416   0.155   2.512  13.150  1.0641 -0.4315 -0.4391
 1309TIP3   OH225417   1.380   2.695  16.150 -0.4238  0.3645 -1.0591
 1309TIP3    H125418   1.288   2.709  16.172 -0.7601 -0.0451 -2.1580
 1309TIP3    H225419   1.396   2.603  16.170 -0.3547  0.3435 -1.2112
 1310TIP3   OH225420   6.732   5.984   6.189 -0.0564 -0.1935  0.5039
 1310TIP3    H125421   6.717   6.031   6.106 -0.3107 -1.5845 -0.2479
 1310TIP3    H225422   6.648   5.943   6.209  0.3821 -0.9767  0.7427
 1311TIP3   OH225423   6.278   1.767  10.771 -0.0963 -0.0076 -0.5013
 1311TIP3    H125424   6.302   1.716  10.694 -2.1532 -2.4771  0.4241
 1311TIP3    H225425   6.221   1.836  10.737  0.1347 -0.2410 -1.3635
 1312TIP3   OH225426   5.730   1.855   2.430 -0.2780  0.0920  0.3015
 1312TIP3    H125427   5.802   1.915   2.411 -0.2544  0.2047  0.7363
 1312TIP3    H225428   5.668   1.868   2.359  1.1482 -1.6156 -1.3003
 1313TIP3   OH225429   6.420   2.110  12.455  0.2532  0.8201 -0.9875
 1313TIP3    H125430   6.498   2.131  12.506 -0.8088 -0.2956  1.1688
 1313TIP3    H225431   6.445   2.035  12.402  0.6118  0.3637 -0.1826
 1314TIP3   OH225432   5.967   2.369  11.346 -0.4378 -0.0371 -0.0589
 1314TIP3    H125433   5.981   2.421  11.267  0.9047 -0.7222 -0.2897
 1314TIP3    H225434   5.873   2.353  11.348 -0.6996  1.3871 -0.6222
 1315TIP3   OH225435   2.514   2.895   0.100  0.4473 -0.5928  0.9940
 1315TIP3    H125436   2.491   2.988   0.107 -0.9104 -1.0177  2.2713
 1315TIP3    H225437   2.584   2.883   0.164  1.0934 -0.3126  0.3497
 1316TIP3   OH225438   2.974   6.008  16.078 -0.4463 -0.1331  0.1539
 1316TIP3    H125439   2.895   5.954  16.085 -1.3658  0.8877 -1.9355
 1316TIP3    H225440   3.039   5.950  16.036 -1.0894  0.0141 -1.0653
 1317TIP3   OH225441   2.164   5.787   1.448 -0.1486  0.0389 -0.1173
 1317TIP3    H125442   2.186   5.695   1.464  2.6363  0.7929  0.6463
 1317TIP3    H225443   2.193   5.804   1.359 -1.3357  0.0166 -0.5233
 1318TIP3   OH225444   3.448   5.150   1.271 -0.2099  0.3303  0.5704
 1318TIP3    H125445   3.356   5.168   1.289 -0.2526  1.0613 -0.3126
 1318TIP3    H225446   3.495   5.189   1.344 -0.6807 -1.1575  1.6700
 1319TIP3   OH225447   1.585   6.092  15.211  0.2568 -0.0512 -0.1208
 1319TIP3    H125448   1.528   6.166  15.189  1.1172  0.6590  0.0326
 1319TIP3    H225449   1.668   6.132  15.237  0.8187 -1.0835 -0.2977
 1320TIP3   OH225450   4.696   5.970  12.989 -0.2002 -0.7614  0.2465
 1320TIP3    H125451   4.678   6.062  13.009  0.4738 -0.7034  0.5728
 1320TIP3    H225452   4.638   5.921  13.048  0.1850 -0.5594  0.7976
 1321TIP3   OH225453   2.058   6.596   1.349 -0.1236  0.0221 -0.1377
 1321TIP3    H125454   2.097   6.598   1.437  0.6439  1.1368 -0.4845
 1321TIP3    H225455   2.104   6.526   1.304  1.0923  0.9509 -0.3596
 1322TIP3   OH225456   1.700   5.956  16.266  0.4416  0.3694 -0.1389
 1322TIP3    H125457   1.611   5.954  16.232  0.8696  2.3478 -1.4772
 1322TIP3    H225458   1.756   5.926  16.194  0.9139 -0.3860  0.5268
 1323TIP3   OH225459   2.817   4.972  13.578 -0.1617 -0.0377  0.0331
 1323TIP3    H125460   2.795   5.048  13.632  0.9354 -0.3524  0.9368
 1323TIP3    H225461   2.740   4.916  13.582 -0.9063  0.9222 -0.4767
 1324TIP3   OH225462   4.514   5.734   6.034  0.4260  0.3118 -0.2951
 1324TIP3    H125463   4.571   5.706   6.105  0.0404  0.8744  0.2462
 1324TIP3    H225464   4.572   5.743   5.959  0.8641 -0.1253 -0.0123
 1325TIP3   OH225465   0.326   6.349   4.575  0.2190 -0.2563 -0.6747
 1325TIP3    H125466   0.385   6.310   4.511  1.0770  1.9305 -1.2458
 1325TIP3    H225467   0.371   6.339   4.659 -0.1064 -1.5260 -0.6348
 1326TIP3   OH225468   1.017   2.364   2.994 -0.3109 -0.2838  0.0869
 1326TIP3    H125469   1.082   2.387   3.060 -0.1457 -0.0775 -0.1475
 1326TIP3    H225470   1.063   2.374   2.910 -0.4090 -0.8856 -0.0451
 1327TIP3   OH225471   6.003   2.742  11.372 -0.2297 -0.0477 -0.0201
 1327TIP3    H125472   6.057   2.694  11.434 -0.4931  0.7803  0.8788
 1327TIP3    H225473   5.980   2.678  11.305  0.6746 -0.7669  0.3483
 1328TIP3   OH225474   0.580   6.501   1.517  0.2290  0.0067 -0.3309
 1328TIP3    H125475   0.646   6.524   1.452  1.4271  0.3284  0.9836
 1328TIP3    H225476   0.526   6.579   1.525 -0.0203 -0.0883 -1.0507
 1329TIP3   OH225477   0.288   4.304   4.373  0.4802 -0.2139 -0.3661
 1329TIP3    H125478   0.265   4.332   4.462 -0.9520 -0.7578 -0.5468
 1329TIP3    H225479   0.376   4.268   4.381 -0.9837 -3.5709  1.5490
 1330TIP3   OH225480   1.570   1.247  13.273  0.1473 -0.3907 -0.6391
 1330TIP3    H125481   1.628   1.312  13.312 -0.3615 -0.1118 -0.3294
 1330TIP3    H225482   1.615   1.163  13.284  1.0263 -0.0326 -1.4722
 1331TIP3   OH225483   1.520   4.365  17.008 -0.1622  0.2562 -0.5168
 1331TIP3    H125484   1.574   4.437  17.041 -0.0899  1.0922 -2.4330
 1331TIP3    H225485   1.461   4.345  17.081 -0.9752  3.0339 -0.3588
 1332TIP3   OH225486   0.197   5.988  14.834  0.4836  0.5965  0.2911
 1332TIP3    H125487   0.247   5.962  14.756  2.0720  1.5382  0.9729
 1332TIP3    H225488   0.244   5.947  14.907 -1.5580 -1.1023  0.6956
 1333TIP3   OH225489   4.135   4.706   0.754  0.0136 -0.5091  0.1319
 1333TIP3    H125490   4.150   4.651   0.678  0.4079 -0.8745  0.4691
 1333TIP3    H225491   4.207   4.770   0.752  0.1520 -0.6566  0.3153
 1334TIP3   OH225492   2.830   5.815  17.201 -0.4734 -0.4317  0.0598
 1334TIP3    H125493   2.923   5.804  17.180 -0.8793 -1.8593 -1.0658
 1334TIP3    H225494   2.811   5.906  17.179  0.3362 -0.5155 -1.0176
 1335TIP3   OH225495   2.826   3.547   5.786  0.3190  0.2216 -0.3231
 1335TIP3    H125496   2.773   3.490   5.842  1.6612  0.2844  1.0309
 1335TIP3    H225497   2.779   3.548   5.702 -3.5474  2.7368  1.7014
 1336TIP3   OH225498   4.888   6.441   2.161 -0.1456 -0.6181  0.1286
 1336TIP3    H125499   4.981   6.448   2.138 -0.2365  0.7983  0.1467
 1336TIP3    H225500   4.862   6.355   2.128  1.5902 -1.7902  1.6752
 1337TIP3   OH225501   6.225   3.761  12.624  0.2310  0.1211 -0.0809
 1337TIP3    H125502   6.262   3.771  12.712  1.0834 -1.8729 -0.2003
 1337TIP3    H225503   6.290   3.801  12.566  1.2793 -1.6018 -0.1060
 1338TIP3   OH225504   2.275   1.946  16.780  0.4400  0.4407 -0.4206
 1338TIP3    H125505   2.361   1.947  16.738 -0.2102  2.5759 -1.8404
 1338TIP3    H225506   2.286   1.999  16.859  0.7732 -0.5204  0.1834
 1339TIP3   OH225507   2.498   3.211  13.748  0.2393 -0.0353  0.0170
 1339TIP3    H125508   2.510   3.214  13.843 -1.9000  0.1819  0.2987
 1339TIP3    H225509   2.416   3.164  13.736  0.0375  0.7299 -1.6923
 1340TIP3   OH225510   5.309   6.015   0.073 -0.4872 -0.3034 -0.4881
 1340TIP3    H125511   5.218   6.031   0.100 -0.3026 -1.4858  0.8595
 1340TIP3    H225512   5.359   6.084   0.115 -0.9112  1.1214 -2.2675
 1341TIP3   OH225513   4.725   2.966   3.686  0.1484  0.0929  0.2638
 1341TIP3    H125514   4.634   2.947   3.710  0.0656  1.9223  1.4458
 1341TIP3    H225515   4.759   2.882   3.655 -2.5845 -0.1566 -2.3017
 1342TIP3   OH225516   1.987   3.580  13.606  0.5496 -0.2071 -0.0534
 1342TIP3    H125517   1.910   3.631  13.632  1.3944  0.3469  1.4220
 1342TIP3    H225518   2.026   3.552  13.688  1.0831 -1.7877 -0.8221
 1343TIP3   OH225519   4.883   2.994  13.316 -0.2311  1.0043 -0.5393
 1343TIP3    H125520   4.911   3.083  13.297  3.2468 -0.2619 -1.7080
 1343TIP3    H225521   4.887   2.988  13.412  0.5046  1.7926 -0.5123
 1344TIP3   OH225522   3.636   5.855  14.175 -0.2104 -0.5421 -0.9882
 1344TIP3    H125523   3.675   5.896  14.253  0.9998  1.4919 -2.5955
 1344TIP3    H225524   3.584   5.925  14.135  0.1677 -1.1868 -2.6649
 1345TIP3   OH225525   0.437   2.301   3.851  0.5039  0.4554  0.3421
 1345TIP3    H125526   0.462   2.224   3.800 -1.9857 -0.1054 -0.0962
 1345TIP3    H225527   0.491   2.372   3.816  0.8173 -0.5137 -1.1633
 1346TIP3   OH225528   0.648   0.607   5.596 -0.5625  0.4370 -0.2675
 1346TIP3    H125529   0.696   0.641   5.521  1.3429  2.8928  2.0011
 1346TIP3    H225530   0.564   0.653   5.593 -0.2795  0.9394 -0.5838
 1347TIP3   OH225531   2.411   1.977   1.434 -0.1616  0.0998  0.3541
 1347TIP3    H125532   2.456   1.934   1.361  0.0331 -0.5270  0.8335
 1347TIP3    H225533   2.430   1.921   1.510 -2.2375 -0.4946  0.4693
 1348TIP3   OH225534   1.943   5.666   0.481  0.0795  0.3184  0.2203
 1348TIP3    H125535   1.940   5.711   0.396 -0.9127 -0.3501 -0.1031
 1348TIP3    H225536   1.892   5.722   0.540  0.4673  0.5989  0.2936
 1349TIP3   OH225537   3.730   0.822  14.580 -1.0000 -0.2870  0.0026
 1349TIP3    H125538   3.791   0.896  14.576  0.8935 -1.8701 -0.9821
 1349TIP3    H225539   3.644   0.862  14.567 -0.2762  2.0558  1.9706
 1350TIP3   OH225540   5.414   1.747  12.812 -0.3826  0.7484  0.8554
 1350TIP3    H125541   5.496   1.706  12.841  0.2747  0.8974 -0.7432
 1350TIP3    H225542   5.351   1.727  12.882  0.6136 -0.6819  1.3682
 1351TIP3   OH225543   2.456   0.011  14.250  0.0876  0.9181 -0.0980
 1351TIP3    H125544   2.524   0.032  14.187  0.6160 -0.4160  0.0228
 1351TIP3    H225545   2.378  -0.006  14.196  0.7375 -1.0216 -0.4635
 1352TIP3   OH225546   5.907   3.713   1.829  0.1247  0.4114 -0.0164
 1352TIP3    H125547   5.919   3.787   1.889 -1.4635 -0.1155  0.9746
 1352TIP3    H225548   5.878   3.753   1.747  2.1565  1.1229 -0.4100
 1353TIP3   OH225549   1.157   3.706  15.841 -0.1534 -0.4458  0.0469
 1353TIP3    H125550   1.165   3.802  15.840 -0.4655 -0.4226 -0.0286
 1353TIP3    H225551   1.064   3.689  15.856 -0.0796 -0.7383  0.1873
 1354TIP3   OH225552   0.952   2.206   4.515  0.1898 -0.3509  0.5668
 1354TIP3    H125553   1.048   2.203   4.505  0.2922  1.1242  1.0364
 1354TIP3    H225554   0.933   2.137   4.579  0.9687 -0.4670  0.6886
 1355TIP3   OH225555   0.414   2.106   1.431  0.1208 -0.3280 -0.3293
 1355TIP3    H125556   0.372   2.150   1.357 -2.2800 -2.6591 -0.4194
 1355TIP3    H225557   0.396   2.162   1.506  0.7926  1.0028 -1.1532
 1356TIP3   OH225558   2.439   6.497   5.885 -0.5466  0.3906  0.0420
 1356TIP3    H125559   2.506   6.500   5.954 -1.1224  1.0698  0.5762
 1356TIP3    H225560   2.484   6.458   5.811  0.3191  0.4023  0.5467
 1357TIP3   OH225561   3.481   3.865   4.460  0.2171 -0.4804 -0.3534
 1357TIP3    H125562   3.427   3.806   4.513 -1.3540  0.6677 -0.6272
 1357TIP3    H225563   3.544   3.808   4.417  0.0464 -1.7046  0.9755
 1358TIP3   OH225564   0.923   2.605   3.602 -0.1212  0.1624  0.0945
 1358TIP3    H125565   0.976   2.554   3.663  0.5515 -1.1161 -1.5186
 1358TIP3    H225566   0.978   2.614   3.524 -0.6005  2.5573 -0.0079
 1359TIP3   OH225567   0.002   5.838  13.702 -0.5901  0.4343 -0.3186
 1359TIP3    H125568  -0.020   5.857  13.610 -1.4094  0.4862 -0.1156
 1359TIP3    H225569  -0.082   5.838  13.747 -0.0171  2.4533  0.8184
 1360TIP3   OH225570   0.879   1.498  11.769  0.2621 -0.2595 -0.4336
 1360TIP3    H125571   0.968   1.462  11.763 -0.2411 -1.3617 -1.6543
 1360TIP3    H225572   0.891   1.593  11.762  1.1212 -0.5362 -4.4081
 1361TIP3   OH225573   4.959   5.030   5.833  0.0513  0.5414  0.6537
 1361TIP3    H125574   5.050   5.046   5.857  0.2686  0.5678 -0.1713
 1361TIP3    H225575   4.948   5.074   5.749  0.4296 -2.8954 -1.2825
 1362TIP3   OH225576   5.735   4.376  11.716  0.0724 -0.2213 -0.7150
 1362TIP3    H125577   5.736   4.406  11.626 -0.9198  0.2420 -0.5785
 1362TIP3    H225578   5.778   4.291  11.714  0.7517  0.1429 -1.4928
 1363TIP3   OH225579   0.350   2.162  11.739  0.5675  0.4364 -0.6987
 1363TIP3    H125580   0.312   2.172  11.651 -0.5918 -0.1120 -0.2798
 1363TIP3    H225581   0.288   2.207  11.796 -0.2359 -1.6888  0.1734
 1364TIP3   OH225582   4.920   0.094   6.234 -0.2235  0.2483  0.1950
 1364TIP3    H125583   4.915   0.130   6.323 -0.1421 -0.3880  0.4603
 1364TIP3    H225584   4.831   0.097   6.201 -0.1130  1.2960 -0.0256
 1365TIP3   OH225585   5.240   1.076   6.067  0.3825  0.5425  0.3265
 1365TIP3    H125586   5.291   1.158   6.070  0.2780  0.6432 -0.5099
 1365TIP3    H225587   5.149   1.105   6.056  0.3611  0.3169 -0.1139
 1366TIP3   OH225588   2.379   3.218   6.589  0.2652  0.6997  0.0272
 1366TIP3    H125589   2.377   3.127   6.618 -0.9942  0.3163 -1.1997
 1366TIP3    H225590   2.459   3.225   6.536  1.5302  0.9012  1.9082
 1367TIP3   OH225591   6.030   0.200  11.492 -0.0872 -0.7593  0.4018
 1367TIP3    H125592   6.006   0.278  11.542  0.0082 -1.5197  1.6682
 1367TIP3    H225593   6.044   0.232  11.403  0.2237  0.7159  0.9585
 1368TIP3   OH225594   1.154   4.731   2.016  0.4692 -1.2592  0.0298
 1368TIP3    H125595   1.229   4.700   2.067  1.4809  0.4110 -0.3890
 1368TIP3    H225596   1.103   4.783   2.078  1.8528  1.0137 -0.6710
 1369TIP3   OH225597   6.160   1.464   1.979  0.3596  0.3976 -0.3909
 1369TIP3    H125598   6.227   1.438   2.042 -0.7453  0.9170  1.0366
 1369TIP3    H225599   6.185   1.422   1.898  1.6665 -0.5181  0.4760
 1370TIP3   OH225600   5.627   2.989   3.680  0.3431  0.1656 -0.1366
 1370TIP3    H125601   5.692   3.020   3.743 -0.6410 -0.9718  1.5016
 1370TIP3    H225602   5.669   2.999   3.595  2.0769  0.8662  0.7709
 1371TIP3   OH225603   0.599   4.217   0.387 -0.1270 -0.5338 -0.0800
 1371TIP3    H125604   0.512   4.220   0.348 -1.3313 -1.6367  2.4268
 1371TIP3    H225605   0.589   4.257   0.473  2.2393  0.8803 -0.4107
 1372TIP3   OH225606   3.575   4.117  12.122 -0.0598  0.4925 -0.0072
 1372TIP3    H125607   3.487   4.080  12.120  0.9845 -2.0693 -0.2223
 1372TIP3    H225608   3.612   4.089  12.205  1.5607 -0.9768 -1.1756
 1373TIP3   OH225609   0.503   5.196   4.679 -0.3557  0.0851 -0.2369
 1373TIP3    H125610   0.533   5.217   4.768  0.5978  1.0900 -0.7847
 1373TIP3    H225611   0.456   5.113   4.689 -0.6437  0.4089  1.2813
 1374TIP3   OH225612   6.561   3.424  15.285 -0.2920  0.5710 -0.0302
 1374TIP3    H125613   6.587   3.399  15.374  1.0651 -0.7019 -0.7660
 1374TIP3    H225614   6.492   3.362  15.262  1.1782 -0.8046 -0.8281
 1375TIP3   OH225615   2.206   1.578   4.384  0.1483  0.1960 -0.4701
 1375TIP3    H125616   2.158   1.579   4.466  0.7404 -1.6276 -0.0813
 1375TIP3    H225617   2.282   1.634   4.399  1.5432 -2.0334  1.0543
 1376TIP3   OH225618   4.482   6.706  17.218 -0.2550  0.3256  0.5532
 1376TIP3    H125619   4.521   6.720  17.132 -2.0569 -0.1114 -0.3652
 1376TIP3    H225620   4.556   6.692  17.276  0.9976  0.9083 -0.8830
 1377TIP3   OH225621   4.437   2.981   2.827 -0.3390  0.2885  0.1751
 1377TIP3    H125622   4.423   3.021   2.741 -1.2729 -0.6958 -0.1497
 1377TIP3    H225623   4.351   2.945   2.850 -0.2433  1.0762  1.7981
 1378TIP3   OH225624   2.109   0.306   3.641 -0.0074  0.5063 -0.1614
 1378TIP3    H125625   2.102   0.296   3.546 -0.5618 -0.4451 -0.0256
 1378TIP3    H225626   2.201   0.286   3.661  0.5794  2.5429 -0.7022
 1379TIP3   OH225627   4.483   5.125   0.449  0.1216 -0.1561  0.1252
 1379TIP3    H125628   4.455   5.194   0.389 -0.1050  0.1674  0.6046
 1379TIP3    H225629   4.449   5.152   0.535  3.6750  1.4003  1.1764
 1380TIP3   OH225630   6.734   4.340   6.765  0.2462 -0.0513  0.1550
 1380TIP3    H125631   6.724   4.424   6.721 -0.0078 -0.0729  0.1731
 1380TIP3    H225632   6.803   4.355   6.829 -0.7158  0.5177  1.0743
 1381TIP3   OH225633   4.481   4.684   4.915  0.2918 -0.4253  0.1129
 1381TIP3    H125634   4.514   4.607   4.960  1.0754  0.4149  1.0094
 1381TIP3    H225635   4.534   4.756   4.949  0.3858  0.3397 -1.6192
 1382TIP3   OH225636   0.166   0.178   0.841  0.0594 -0.6364  0.4371
 1382TIP3    H125637   0.201   0.144   0.923 -2.2845 -0.6861  1.4528
 1382TIP3    H225638   0.104   0.111   0.811  0.7116 -0.5157 -1.2654
 1383TIP3   OH225639   4.116   4.271   2.164  0.2937 -0.0059  0.0721
 1383TIP3    H125640   4.111   4.362   2.193 -0.1884  0.0347 -0.1387
 1383TIP3    H225641   4.157   4.275   2.077 -1.3331  0.1749 -0.7116
 1384TIP3   OH225642   4.016   0.482   5.710 -0.1277 -0.0781 -0.2485
 1384TIP3    H125643   3.927   0.504   5.681  0.4586  0.8224 -1.4399
 1384TIP3    H225644   4.068   0.560   5.688  1.1037 -0.8999 -0.3008
 1385TIP3   OH225645   4.801   5.526   1.583 -0.5140 -0.1081  0.6276
 1385TIP3    H125646   4.860   5.557   1.652  1.6757 -0.7216 -0.9070
 1385TIP3    H225647   4.782   5.603   1.531  2.1068 -0.5565 -1.1231
 1386TIP3   OH225648   6.782   5.927   3.556  0.4737 -0.4370  0.4565
 1386TIP3    H125649   6.833   5.982   3.616  2.2730 -1.0704 -0.4531
 1386TIP3    H225650   6.845   5.864   3.522 -0.7810 -0.7965 -1.2510
 1387TIP3   OH225651   5.205   6.504  15.997  0.4346 -0.1218  0.1738
 1387TIP3    H125652   5.257   6.449  15.938  2.0991  1.7036 -0.1190
 1387TIP3    H225653   5.252   6.501  16.080 -1.0385 -1.4137  0.9754
 1388TIP3   OH225654   2.329   4.349   3.241 -0.3573 -0.4214  0.0828
 1388TIP3    H125655   2.297   4.320   3.156 -0.8754  0.3443  0.0133
 1388TIP3    H225656   2.254   4.338   3.300 -0.8801  1.6556 -0.1401
 1389TIP3   OH225657   3.639   5.777  10.710  0.2715  0.2986  0.3991
 1389TIP3    H125658   3.722   5.730  10.698  0.2823 -0.1355  2.0020
 1389TIP3    H225659   3.665   5.863  10.743  0.1593  0.7796 -0.7516
 1390TIP3   OH225660   4.561   0.834  11.430 -0.6958 -0.1989 -0.1303
 1390TIP3    H125661   4.543   0.818  11.522  0.5051 -0.5695  0.0465
 1390TIP3    H225662   4.537   0.751  11.387  0.9692 -0.8489  0.1625
 1391TIP3   OH225663   2.577   0.286   2.356 -0.0283  0.4217  0.0690
 1391TIP3    H125664   2.587   0.374   2.320 -0.8434  0.7207  0.5531
 1391TIP3    H225665   2.485   0.264   2.341  0.3438 -0.6445 -0.7026
 1392TIP3   OH225666   1.285   0.476   3.574  0.1334 -0.5477 -0.0867
 1392TIP3    H125667   1.229   0.541   3.532  1.8531  0.6117 -0.6208
 1392TIP3    H225668   1.275   0.492   3.668  0.2375  0.2122 -0.2061
 1393TIP3   OH225669   2.256   4.171   0.832 -0.1014  0.1002 -0.1774
 1393TIP3    H125670   2.175   4.154   0.785  0.1165 -0.3982 -0.3717
 1393TIP3    H225671   2.322   4.181   0.763 -0.0143  0.6029 -0.0252
 1394TIP3   OH225672   4.031   3.268   1.176  0.7834  0.3950 -0.1000
 1394TIP3    H125673   4.027   3.257   1.081 -2.2712  1.2451 -0.1311
 1394TIP3    H225674   4.013   3.361   1.190  0.2334  0.0780  1.3339
 1395TIP3   OH225675   3.294   1.095   5.576 -0.1134  0.0474  0.1614
 1395TIP3    H125676   3.244   1.076   5.496 -0.4795  0.8560  0.1843
 1395TIP3    H225677   3.335   1.012   5.599 -0.4480 -0.3312 -0.5614
 1396TIP3   OH225678   4.287   6.338   3.580 -0.0606  0.0772 -0.1237
 1396TIP3    H125679   4.324   6.309   3.497  0.2232  0.0678  0.0066
 1396TIP3    H225680   4.201   6.372   3.557 -0.0287 -0.0314 -0.4050
 1397TIP3   OH225681   4.206   2.199   5.779  0.1213  1.0373  0.4500
 1397TIP3    H125682   4.246   2.113   5.770 -0.4873  0.6949  1.0703
 1397TIP3    H225683   4.230   2.245   5.698  0.5845  0.3494  0.1991
 1398TIP3   OH225684   5.708   5.138  14.614 -0.4281  0.3040 -0.5637
 1398TIP3    H125685   5.767   5.083  14.563  1.1875 -0.3521  1.9509
 1398TIP3    H225686   5.627   5.139  14.564  0.6683 -1.4187 -2.4428
 1399TIP3   OH225687   1.990   4.363  11.167  0.2286  0.2016  0.4937
 1399TIP3    H125688   1.962   4.417  11.093  0.6206  0.4037  0.4904
 1399TIP3    H225689   1.921   4.298  11.176  0.5000 -0.2255 -0.4639
 1400TIP3   OH225690   2.605   4.688  15.514 -0.1732  0.5344 -0.2552
 1400TIP3    H125691   2.663   4.698  15.438 -1.0479  2.8357 -0.6592
 1400TIP3    H225692   2.652   4.731  15.586  0.0639 -0.4938  0.2197
 1401TIP3   OH225693   1.495   1.835   2.586  0.0195  0.0572  0.2161
 1401TIP3    H125694   1.514   1.919   2.544  1.5802  0.0993  0.9716
 1401TIP3    H225695   1.406   1.814   2.558  1.2297 -0.3124 -3.7926
 1402TIP3   OH225696   1.768   6.787   3.901  0.2982  0.1518  0.4333
 1402TIP3    H125697   1.730   6.777   3.813  0.4543  1.6646  0.1752
 1402TIP3    H225698   1.840   6.849   3.889 -0.5892  1.5022  1.8725
 1403TIP3   OH225699   0.423   0.496  12.435 -0.1610  0.3856 -0.3934
 1403TIP3    H125700   0.449   0.405  12.443  0.8325  0.6445 -0.6574
 1403TIP3    H225701   0.503   0.546  12.451 -0.6116  1.1986 -0.6439
 1404TIP3   OH225702   3.014   6.681  14.004  0.0868  0.2159 -0.3283
 1404TIP3    H125703   3.068   6.751  13.969  0.4217  0.2701  0.3011
 1404TIP3    H225704   3.001   6.622  13.929 -0.3604  1.0371 -0.9064
 1405TIP3   OH225705   6.615   2.771   3.812 -0.0037  0.3991  0.0410
 1405TIP3    H125706   6.631   2.686   3.773 -1.8215 -0.3997  0.9440
 1405TIP3    H225707   6.572   2.822   3.742 -0.0819  0.1417 -0.0981
 1406TIP3   OH225708   0.439   5.748  11.778  0.0301 -0.4605  0.6826
 1406TIP3    H125709   0.464   5.683  11.844  0.4696  0.0934  1.0705
 1406TIP3    H225710   0.516   5.754  11.721 -0.2708 -0.7834  0.2376
 1407TIP3   OH225711   6.074   2.699   1.117 -0.1757 -0.1385 -0.5707
 1407TIP3    H125712   6.027   2.643   1.179  0.3837  1.9345  1.8226
 1407TIP3    H225713   6.166   2.679   1.133  0.1099  2.4257  1.3714
 1408TIP3   OH225714   4.133   6.676   1.537 -0.0504  0.1649  0.3520
 1408TIP3    H125715   4.170   6.762   1.516 -0.4081 -0.0384 -1.1211
 1408TIP3    H225716   4.205   6.615   1.526 -0.2738  0.0403 -0.4579
 1409TIP3   OH225717   2.889   4.349   0.484 -0.2624 -0.2446 -0.4818
 1409TIP3    H125718   2.877   4.272   0.428 -1.8767 -0.1498 -0.2731
 1409TIP3    H225719   2.968   4.328   0.535  1.0014 -0.4944 -2.4837
 1410TIP3   OH225720   4.205   1.503   2.414 -0.7098  0.8748  1.0487
 1410TIP3    H125721   4.237   1.515   2.325  2.0292  0.9142  1.9948
 1410TIP3    H225722   4.124   1.553   2.417  0.2639  2.6354 -0.8043
 1411TIP3   OH225723   3.497   3.256  16.224  0.6114 -0.0025 -0.4458
 1411TIP3    H125724   3.545   3.296  16.297 -1.0708 -1.3491  1.4600
 1411TIP3    H225725   3.530   3.166  16.219  1.4763  0.3879 -2.0624
 1412TIP3   OH225726   4.099   6.327  13.111 -0.2472 -0.0637  0.0852
 1412TIP3    H125727   4.175   6.384  13.124 -1.1407  0.9312  1.0931
 1412TIP3    H225728   4.102   6.304  13.019  1.3826 -0.2007  0.1501
 1413TIP3   OH225729   5.786   4.086  16.678 -0.0488  0.4312 -0.4560
 1413TIP3    H125730   5.790   4.109  16.771 -3.9220  0.0504 -0.1400
 1413TIP3    H225731   5.785   4.170  16.632  1.7526  0.6193 -0.2116
 1414TIP3   OH225732   1.434   1.456   5.913  0.5707  0.2201 -0.3564
 1414TIP3    H125733   1.398   1.544   5.900  0.3835 -0.0243 -1.5295
 1414TIP3    H225734   1.486   1.464   5.993  0.5735  1.4094 -0.4567
 1415TIP3   OH225735   1.483   5.798   4.677 -0.1522 -0.0789  0.1961
 1415TIP3    H125736   1.565   5.758   4.703  0.6812  0.3979 -1.5992
 1415TIP3    H225737   1.431   5.726   4.639  0.1508 -0.0528 -0.2774
 1416TIP3   OH225738   1.778   6.272   4.280 -0.7822 -0.3360 -0.8038
 1416TIP3    H125739   1.746   6.362   4.288  0.0534 -0.0074 -1.1352
 1416TIP3    H225740   1.830   6.259   4.359  0.2845 -0.0373 -1.4501
 1417TIP3   OH225741   6.503   1.560  15.794 -0.1389 -0.1930 -0.3580
 1417TIP3    H125742   6.491   1.504  15.717  0.4195 -2.2335  0.9945
 1417TIP3    H225743   6.419   1.606  15.803 -0.5620 -0.6879 -1.5794
 1418TIP3   OH225744   4.871   5.969   0.416  0.0675  0.4915 -0.5048
 1418TIP3    H125745   4.855   5.875   0.408 -0.4563  0.5389  0.0139
 1418TIP3    H225746   4.924   5.990   0.339 -0.2864 -0.1194 -0.9189
 1419TIP3   OH225747   2.396   3.267   5.162 -0.5054 -0.6588 -0.7690
 1419TIP3    H125748   2.337   3.329   5.205  0.6561  0.6319 -1.0025
 1419TIP3    H225749   2.459   3.322   5.116 -0.5084 -2.0264 -2.4429
 1420TIP3   OH225750   4.462   5.738   4.118  0.1061  0.4384 -0.4607
 1420TIP3    H125751   4.519   5.796   4.067 -1.2410  1.4558 -0.8196
 1420TIP3    H225752   4.378   5.784   4.124 -0.3326 -0.4928  1.1044
 1421TIP3   OH225753   4.123   5.415  12.162  0.0165 -0.5331 -0.4620
 1421TIP3    H125754   4.101   5.331  12.123  0.5158 -1.6457  1.5816
 1421TIP3    H225755   4.219   5.419  12.158 -0.0006 -0.0930 -0.4727
 1422TIP3   OH225756   3.665   6.706   4.942 -0.4540 -0.2936 -0.6928
 1422TIP3    H125757   3.607   6.770   4.982 -1.1932 -0.1421 -1.9670
 1422TIP3    H225758   3.724   6.757   4.886 -0.1154 -0.5948 -0.6199
 1423TIP3   OH225759   4.579   5.037   2.906  0.0758  0.6366 -0.1489
 1423TIP3    H125760   4.560   4.949   2.873  0.5770  0.3047  0.4411
 1423TIP3    H225761   4.663   5.027   2.952 -0.1064  1.3211  0.3291
 1424TIP3   OH225762   3.514   5.652   0.848 -0.1362 -0.2530 -0.3385
 1424TIP3    H125763   3.512   5.747   0.860  0.6801 -0.2077 -0.5157
 1424TIP3    H225764   3.422   5.626   0.845 -0.3829  0.7187 -1.7438
 1425TIP3   OH225765   0.745   0.806  14.587 -0.0052  0.3935  0.1154
 1425TIP3    H125766   0.696   0.882  14.618 -2.3363 -0.8473 -0.3810
 1425TIP3    H225767   0.697   0.730  14.621  0.6943 -0.8946 -1.6519
 1426TIP3   OH225768   4.503   4.103  15.951 -0.4419  0.1480 -0.1039
 1426TIP3    H125769   4.561   4.179  15.944 -1.8339  1.1110 -1.3724
 1426TIP3    H225770   4.562   4.028  15.957  0.9568  1.3545  1.7068
 1427TIP3   OH225771   0.264   3.025  15.681 -0.9269  0.0271  0.3837
 1427TIP3    H125772   0.239   3.098  15.738  0.1048 -0.5411  1.5787
 1427TIP3    H225773   0.313   3.066  15.610 -2.3228  0.7521 -0.1875
 1428TIP3   OH225774   0.895   4.634  11.113  0.3783  0.0511 -0.2219
 1428TIP3    H125775   0.887   4.552  11.064  0.5441 -0.5137  0.6736
 1428TIP3    H225776   0.805   4.660  11.133  0.3972 -1.4287  1.9416
 1429TIP3   OH225777   4.806   0.396   1.169 -0.1466  0.2173  0.2070
 1429TIP3    H125778   4.839   0.353   1.091 -0.1463 -1.1981  0.9606
 1429TIP3    H225779   4.845   0.346   1.242  0.7554  2.1906  1.1228
 1430TIP3   OH225780   6.807   5.391   2.961 -0.0005 -0.6078  0.7584
 1430TIP3    H125781   6.833   5.413   2.871  0.4162  1.7448  1.4156
 1430TIP3    H225782   6.877   5.336   2.994  0.3371 -0.6595 -0.0247
 1431TIP3   OH225783   6.621   6.044   0.885 -0.7566  0.1867  0.1712
 1431TIP3    H125784   6.645   6.105   0.815  0.1451  0.0530  0.3580
 1431TIP3    H225785   6.550   5.993   0.848  0.6255 -0.8129 -1.1768
 1432TIP3   OH225786   0.834   4.591   0.785 -0.1423  0.4395  0.1291
 1432TIP3    H125787   0.827   4.556   0.874  0.0669 -0.9521 -0.3925
 1432TIP3    H225788   0.862   4.682   0.797 -0.1100  0.2580  1.4822
 1433TIP3   OH225789   2.238   3.944  16.728  0.4473  0.1251 -0.2043
 1433TIP3    H125790   2.293   3.876  16.689 -0.2966  0.0589 -1.1450
 1433TIP3    H225791   2.300   4.008  16.763  1.1151  0.9521 -2.8608
 1434TIP3   OH225792   2.703   6.226   2.943 -0.0134 -0.0274  0.4583
 1434TIP3    H125793   2.754   6.206   2.865 -0.0344 -0.0401  0.4480
 1434TIP3    H225794   2.768   6.233   3.013  0.0506  0.4375  0.3548
 1435TIP3   OH225795   0.638   2.190  11.144 -0.4484 -0.3479 -0.2207
 1435TIP3    H125796   0.724   2.196  11.102  0.7216 -1.6877  1.9169
 1435TIP3    H225797   0.614   2.280  11.162  1.3009 -0.0451  0.7128
 1436TIP3   OH225798   1.688   6.761  16.707 -0.4901  0.2335  0.0480
 1436TIP3    H125799   1.599   6.742  16.675 -0.5890  1.8534 -0.7151
 1436TIP3    H225800   1.734   6.794  16.630  0.1813  1.3032  0.8906
 1437TIP3   OH225801   0.475   6.249  14.489 -0.1845 -0.1958 -0.7544
 1437TIP3    H125802   0.509   6.163  14.465  0.5082 -0.0403 -0.3482
 1437TIP3    H225803   0.481   6.301  14.409  0.1851 -0.2775 -0.7808
 1438TIP3   OH225804   0.432   6.208   1.170  0.9420  0.2560 -0.4205
 1438TIP3    H125805   0.521   6.235   1.149  0.6260  1.3461 -0.3989
 1438TIP3    H225806   0.381   6.230   1.092  0.7142 -0.4655 -0.4761
 1439TIP3   OH225807   3.629   5.846   0.454 -0.4643 -0.5766 -0.6263
 1439TIP3    H125808   3.567   5.901   0.407  0.1405 -0.6825 -1.5707
 1439TIP3    H225809   3.594   5.839   0.542 -0.4988  1.4120 -0.4681
 1440TIP3   OH225810   6.024   1.379  17.285  0.1439  0.0503  0.3807
 1440TIP3    H125811   5.938   1.352  17.254 -0.6577  1.9966  0.7787
 1440TIP3    H225812   6.083   1.364  17.211 -0.9485  0.7049 -0.6396
 1441TIP3   OH225813   6.547   0.221  15.756 -0.3883  0.3047 -0.0213
 1441TIP3    H125814   6.598   0.173  15.690 -1.3109  0.2918 -0.7295
 1441TIP3    H225815   6.589   0.199  15.839 -1.0621 -2.0548 -0.2854
 1442TIP3   OH225816   3.064   6.571   2.186  0.3006  0.5553  0.4430
 1442TIP3    H125817   3.113   6.490   2.201  1.3699  0.7812 -1.5092
 1442TIP3    H225818   3.115   6.638   2.230  1.7608  0.7679 -1.4766
 1443TIP3   OH225819   1.928   4.036  15.233 -0.1839 -0.7371  0.2394
 1443TIP3    H125820   1.936   4.006  15.142  1.3681 -0.9621  0.4214
 1443TIP3    H225821   1.887   4.122  15.227 -0.6978 -1.0369 -0.6243
 1444TIP3   OH225822   5.194   6.463  16.719 -0.1561 -0.2208  0.5624
 1444TIP3    H125823   5.244   6.540  16.745  1.1874 -0.5380 -0.9417
 1444TIP3    H225824   5.249   6.389  16.745  0.2028 -0.5721 -1.0937
 1445TIP3   OH225825   2.431   6.352  14.397 -0.4282 -0.3221 -0.0456
 1445TIP3    H125826   2.361   6.290  14.418 -0.0312 -0.8402 -0.2430
 1445TIP3    H225827   2.445   6.401  14.479 -0.9158 -0.3179  0.0369
 1446TIP3   OH225828   3.367   0.730   0.455 -0.2079  0.0239 -0.5407
 1446TIP3    H125829   3.431   0.723   0.384 -1.6289  0.4610 -1.8971
 1446TIP3    H225830   3.419   0.730   0.535  1.3588 -1.6039 -1.5290
 1447TIP3   OH225831   0.845   4.364  15.157  0.4710  0.3644 -0.3086
 1447TIP3    H125832   0.774   4.308  15.128  2.0528 -1.3220 -1.0026
 1447TIP3    H225833   0.868   4.417  15.080  0.7743  0.0369 -0.4457
 1448TIP3   OH225834   0.003   6.094   0.292 -0.0669  0.3168  0.0230
 1448TIP3    H125835   0.075   6.149   0.324 -3.1527  4.7301 -0.1278
 1448TIP3    H225836   0.013   6.096   0.197 -0.1978  0.6374  0.0160
 1449TIP3   OH225837   1.048   5.983   0.020 -0.3194 -0.5019  0.0108
 1449TIP3    H125838   1.137   5.971  -0.012 -0.0678  2.6509 -0.6916
 1449TIP3    H225839   1.027   6.075  -0.000 -2.3446 -0.0750  3.5294
 1450TIP3   OH225840   0.377   6.240   0.650  0.1215 -0.3328 -0.5991
 1450TIP3    H125841   0.336   6.227   0.564 -0.3643  0.8073 -0.5526
 1450TIP3    H225842   0.399   6.333   0.652 -2.8351  0.4058  1.7692
 1451TIP3   OH225843   5.104   4.126   0.376  0.2294 -0.0025  0.0203
 1451TIP3    H125844   5.095   4.186   0.450  0.2528  0.6526 -0.4971
 1451TIP3    H225845   5.197   4.105   0.373  0.0929 -0.7540  0.7247
 1452TIP3   OH225846   3.731   2.219   0.412 -0.2518 -0.0292  0.2201
 1452TIP3    H125847   3.809   2.177   0.449 -1.1498  0.3746  2.6544
 1452TIP3    H225848   3.663   2.152   0.415 -0.8864  0.6539  1.2760
 1453TIP3   OH225849   1.726   4.233   2.119  0.0508 -0.5518  0.1728
 1453TIP3    H125850   1.674   4.154   2.102  1.3273 -1.6432  1.2435
 1453TIP3    H225851   1.664   4.295   2.156 -0.7376 -1.4185  0.3244
 1454TIP3   OH225852   5.392   1.952  15.885 -0.2416 -0.8872  0.6706
 1454TIP3    H125853   5.323   1.898  15.924  0.7464 -1.9523  0.9748
 1454TIP3    H225854   5.463   1.950  15.949  0.4405 -0.6004 -0.0773
 1455TIP3   OH225855   5.591   0.747   0.996  0.0690 -0.2691  0.0486
 1455TIP3    H125856   5.569   0.653   0.996  0.7734 -0.4354 -0.5073
 1455TIP3    H225857   5.560   0.778   1.081  1.0070 -1.2982  0.7973
 1456TIP3   OH225858   0.710   0.995   3.414 -0.2902 -0.2099  0.0668
 1456TIP3    H125859   0.742   1.018   3.501 -1.0463  1.4069 -0.0564
 1456TIP3    H225860   0.733   0.902   3.403  0.5106 -0.2123  1.6576
 1457TIP3   OH225861   0.869   6.205  12.569  0.1195  0.4751 -0.2110
 1457TIP3    H125862   0.818   6.215  12.488 -0.8397  0.3236  0.3554
 1457TIP3    H225863   0.808   6.162  12.630  2.0262 -2.9959 -0.6052
 1458TIP3   OH225864   3.917   6.691  13.995 -0.0829  0.7348  0.5713
 1458TIP3    H125865   3.957   6.619  13.945  1.1399 -0.2442  2.9117
 1458TIP3    H225866   3.827   6.662  14.009  0.4324 -0.4163  1.5990
 1459TIP3   OH225867   1.004   3.772  13.584  0.0823 -0.5181 -0.2881
 1459TIP3    H125868   1.019   3.817  13.501  0.9617 -0.7803 -0.2748
 1459TIP3    H225869   1.035   3.683  13.569  0.2587 -0.5618  0.3239
 1460TIP3   OH225870   6.110   3.884  16.770 -0.1271  0.7394  0.2504
 1460TIP3    H125871   6.187   3.907  16.822  0.1482  1.0501 -0.2849
 1460TIP3    H225872   6.118   3.790  16.756  0.1875  0.7797  0.1504
 1461TIP3   OH225873   0.231   5.643  13.491  0.0534  0.2241  0.7971
 1461TIP3    H125874   0.288   5.587  13.544 -0.2638  0.9704  1.9333
 1461TIP3    H225875   0.142   5.612  13.512  0.0167 -1.0499 -1.0930
 1462TIP3   OH225876   6.442   6.485   4.346  0.3764 -0.0230 -0.6543
 1462TIP3    H125877   6.482   6.498   4.432 -0.0695  0.2534 -0.4856
 1462TIP3    H225878   6.412   6.394   4.346  1.5680 -0.4164 -1.0195
 1463TIP3   OH225879   5.808   0.385   2.385 -0.7824  0.1985 -0.0302
 1463TIP3    H125880   5.723   0.424   2.403 -0.1941  1.6441 -0.3507
 1463TIP3    H225881   5.833   0.419   2.299  0.7638  0.9416  0.6894
 1464TIP3   OH225882   0.445   0.481   2.433 -0.1680  0.0893 -0.7646
 1464TIP3    H125883   0.523   0.516   2.390  0.3751  1.9294  1.6579
 1464TIP3    H225884   0.478   0.411   2.489 -0.1817  1.1875  0.6245
 1465TIP3   OH225885   0.659   0.090   6.343 -0.1519  0.1325  0.0918
 1465TIP3    H125886   0.704   0.011   6.372  0.7850  0.7149  0.2475
 1465TIP3    H225887   0.578   0.092   6.394  0.5522  0.0890  1.2301
 1466TIP3   OH225888   0.470   0.632  16.637  0.2928 -0.4490 -0.3940
 1466TIP3    H125889   0.423   0.582  16.703  0.8257  0.5517  0.7679
 1466TIP3    H225890   0.556   0.591  16.632  0.1623 -0.6904 -0.6613
 1467TIP3   OH225891   5.797   0.695  16.060  0.3408  0.4419  0.3461
 1467TIP3    H125892   5.832   0.637  15.993  0.3039  1.8167 -0.8874
 1467TIP3    H225893   5.778   0.638  16.134 -0.4193 -1.2277 -1.1230
 1468TIP3   OH225894   6.508   1.224  12.881  0.0559 -0.2073 -0.4332
 1468TIP3    H125895   6.462   1.303  12.853  1.2658  0.5865 -0.2349
 1468TIP3    H225896   6.590   1.256  12.918  1.3501 -1.6430 -1.9503
 1469TIP3   OH225897   1.139   6.686  11.808  0.2616 -0.1601 -0.0431
 1469TIP3    H125898   1.169   6.771  11.841 -0.4736 -0.1532  0.6272
 1469TIP3    H225899   1.187   6.673  11.726  0.2678  0.9695 -0.2210
 1470TIP3   OH225900   0.049   4.977   1.959 -0.2726  0.9369  0.0817
 1470TIP3    H125901   0.090   4.899   1.996  0.6234  1.8980  1.1196
 1470TIP3    H225902   0.080   4.980   1.869 -0.9157 -0.3235 -0.1922
 1471TIP3   OH225903   5.757   1.337  11.254 -0.2369  0.2446  0.1020
 1471TIP3    H125904   5.810   1.273  11.301 -0.0520  0.4278  0.1407
 1471TIP3    H225905   5.669   1.300  11.254 -0.2546  0.2905  0.6762
 1472TIP3   OH225906   4.981   6.108   5.114  0.1331 -0.0390  0.3074
 1472TIP3    H125907   4.961   6.198   5.140 -1.4793 -0.7735  1.6959
 1472TIP3    H225908   4.898   6.062   5.124  0.7305 -1.4956 -1.2717
 1473TIP3   OH225909   0.556   1.211   2.326 -0.4685 -0.2025  0.4808
 1473TIP3    H125910   0.641   1.167   2.331  0.4192  0.4261 -5.4058
 1473TIP3    H225911   0.572   1.299   2.358  1.2303 -0.0222 -0.8005
 1474TIP3   OH225912   0.538   0.488   5.938 -0.0034  0.0656  0.2493
 1474TIP3    H125913   0.444   0.496   5.953  0.0183  2.1710 -0.6240
 1474TIP3    H225914   0.545   0.429   5.863 -0.4795 -2.3051  2.0059
 1475TIP3   OH225915   2.418   0.121   5.672  0.1318  0.8841 -0.4454
 1475TIP3    H125916   2.375   0.062   5.610 -1.6436  1.1168  0.5249
 1475TIP3    H225917   2.427   0.069   5.752  3.5645  0.1579 -1.2114
 1476TIP3   OH225918   2.021   4.847  13.851 -0.1022  0.5253  0.0180
 1476TIP3    H125919   2.017   4.769  13.905  0.8770  0.8787  0.5992
 1476TIP3    H225920   2.112   4.853  13.823 -0.6771  0.0986 -2.0459
 1477TIP3   OH225921   2.021   6.540   6.838  0.2785  1.1354  0.5802
 1477TIP3    H125922   1.982   6.488   6.908  1.6825  0.1597  0.6815
 1477TIP3    H225923   1.954   6.543   6.770  0.7333 -2.2777 -0.1155
 1478TIP3   OH225924   3.390   5.782  17.082 -0.2368 -0.3497 -0.1142
 1478TIP3    H125925   3.340   5.827  17.015 -1.6184  0.3798  1.3803
 1478TIP3    H225926   3.330   5.716  17.117  1.0610 -1.9426 -0.8169
 1479TIP3   OH225927   2.814   3.814   5.060  0.4190 -0.2756  0.1598
 1479TIP3    H125928   2.802   3.777   4.973  0.0364  0.0240  0.0841
 1479TIP3    H225929   2.903   3.788   5.085  0.8698  0.4127 -0.6982
 1480TIP3   OH225930   1.425   3.203   3.782  0.3787  0.2019  0.2750
 1480TIP3    H125931   1.391   3.242   3.862 -0.4692 -0.6089  0.3197
 1480TIP3    H225932   1.375   3.244   3.712  0.2005 -0.0537  0.2520
 1481TIP3   OH225933   1.547   0.881   4.364  0.3954  0.2641 -0.2864
 1481TIP3    H125934   1.504   0.796   4.363  0.2999  0.3157 -1.5762
 1481TIP3    H225935   1.524   0.919   4.449  0.3837 -0.9543  0.2660
 1482TIP3   OH225936   2.682   5.876  11.083 -0.4855 -0.2988 -0.2052
 1482TIP3    H125937   2.648   5.958  11.047  1.7232  1.8197  2.3847
 1482TIP3    H225938   2.625   5.857  11.158 -1.0231 -1.1912 -0.8239
 1483TIP3   OH225939   5.161   3.983   3.782 -0.2762 -0.3973 -0.1686
 1483TIP3    H125940   5.184   4.069   3.817  0.6119 -0.4449 -0.6255
 1483TIP3    H225941   5.106   4.002   3.705  0.0204 -0.2338 -0.3411
 1484TIP3   OH225942   3.921   6.681  15.108  0.5629 -0.0855  0.2130
 1484TIP3    H125943   3.846   6.627  15.135  0.8172 -0.6905 -0.2900
 1484TIP3    H225944   3.921   6.754  15.171  0.1284 -0.5840  0.8017
 1485TIP3   OH225945   4.828   6.584  14.321  0.4837  0.8172 -0.2110
 1485TIP3    H125946   4.875   6.617  14.398 -1.3434 -0.0402  1.3124
 1485TIP3    H225947   4.891   6.593  14.250  2.8851 -0.0719  1.6969
 1486TIP3   OH225948   5.090   2.381   4.525  0.0718 -0.4302 -0.4769
 1486TIP3    H125949   5.000   2.364   4.499 -0.7271  2.0689  0.4829
 1486TIP3    H225950   5.139   2.384   4.443 -1.2205  0.8571 -1.2085
 1487TIP3   OH225951   6.141   0.295  14.658 -0.0306  0.0238 -0.3286
 1487TIP3    H125952   6.102   0.382  14.655 -1.5421 -0.6558 -0.5049
 1487TIP3    H225953   6.232   0.311  14.684 -0.5108  1.5829  0.4731
 1488TIP3   OH225954   0.688   6.301  17.143  0.0565 -0.0206 -0.0624
 1488TIP3    H125955   0.594   6.290  17.129  0.2762 -1.9278 -0.1331
 1488TIP3    H225956   0.727   6.223  17.105  1.4728 -0.4679  2.1951
 1489TIP3   OH225957   3.046   3.975   5.309  0.2105  0.1203  0.2784
 1489TIP3    H125958   3.098   4.017   5.377 -2.1548  0.5226  1.8681
 1489TIP3    H225959   3.002   4.046   5.263  1.0983 -0.2121 -1.1437
 1490TIP3   OH225960   3.812   5.537  17.113  0.0828  0.2485 -0.2695
 1490TIP3    H125961   3.873   5.609  17.095 -1.2579  0.9790 -2.1170
 1490TIP3    H225962   3.779   5.555  17.201  0.8172  1.1164 -0.1625
 1491TIP3   OH225963   3.387   5.153   3.595  0.7462 -0.9006  0.1455
 1491TIP3    H125964   3.381   5.148   3.499  1.6670 -0.4642  0.0532
 1491TIP3    H225965   3.424   5.068   3.620 -1.1878 -1.7269  0.2903
 1492TIP3   OH225966   3.301   6.085  15.933 -0.0118 -0.3571  0.6357
 1492TIP3    H125967   3.271   6.012  15.988  2.0766 -0.3671  1.8005
 1492TIP3    H225968   3.246   6.080  15.855 -1.7835 -1.4746  1.9138
 1493TIP3   OH225969   0.416   5.790   1.127  0.2320 -0.3182 -0.4775
 1493TIP3    H125970   0.325   5.811   1.106 -0.0519 -1.7044 -0.7001
 1493TIP3    H225971   0.413   5.699   1.158  1.2063  0.3826  1.7983
 1494TIP3   OH225972   1.500   1.832  11.008  0.1091 -0.2063 -0.1161
 1494TIP3    H125973   1.591   1.854  11.030 -0.6297  1.7545  1.0723
 1494TIP3    H225974   1.504   1.804  10.916  1.5260  2.5813 -0.9621
 1495TIP3   OH225975   0.936   1.967   0.471  0.2411  0.1897 -0.1627
 1495TIP3    H125976   0.964   1.945   0.560  1.3813  0.4053 -0.4536
 1495TIP3    H225977   0.878   2.042   0.482  0.9699  0.6914  0.3477
 1496TIP3   OH225978   0.705   3.620  13.228 -0.3784  0.3639  0.0332
 1496TIP3    H125979   0.694   3.535  13.271 -1.1538  0.5964  0.3111
 1496TIP3    H225980   0.635   3.675  13.265 -0.0710  1.0337 -0.3635
 1497TIP3   OH225981   0.893   5.001   6.159  0.1811 -0.4818 -0.0843
 1497TIP3    H125982   0.876   4.907   6.153 -0.0218 -0.5683  1.5262
 1497TIP3    H225983   0.920   5.015   6.250 -1.4648  1.2729  0.1750
 1498TIP3   OH225984   6.299   2.572   1.329 -0.3639 -0.0488 -0.0141
 1498TIP3    H125985   6.302   2.594   1.236  1.4920 -1.6054 -0.3482
 1498TIP3    H225986   6.289   2.477   1.331  2.8392 -0.4194  1.3391
 1499TIP3   OH225987   4.850   4.315   2.699  0.1167 -0.2346 -0.7808
 1499TIP3    H125988   4.887   4.372   2.631  0.1678 -1.0124 -1.4029
 1499TIP3    H225989   4.762   4.295   2.668 -1.9294  3.7490  1.9233
 1500TIP3   OH225990   0.258   0.473  10.572  0.3089  1.0357 -0.2507
 1500TIP3    H125991   0.329   0.494  10.633 -0.0125  1.1303  0.0953
 1500TIP3    H225992   0.210   0.556  10.562 -0.7904  0.5541  0.8858
 1501TIP3   OH225993   2.549   1.845  13.998 -0.1180 -0.0470 -0.3643
 1501TIP3    H125994   2.547   1.774  13.933 -0.1197 -0.0360 -0.3763
 1501TIP3    H225995   2.503   1.809  14.074 -0.1712 -0.0381 -0.3920
 1502TIP3   OH225996   5.535   5.245   0.580  0.1480 -0.4067 -0.2675
 1502TIP3    H125997   5.495   5.173   0.629  1.2958 -1.3922 -0.7893
 1502TIP3    H225998   5.527   5.220   0.488  1.4822 -0.3393 -0.4002
 1503TIP3   OH225999   3.329   4.560   2.263 -0.1702 -0.3510 -0.1417
 1503TIP3    H126000   3.248   4.565   2.212  0.8904 -3.1542 -2.2871
 1503TIP3    H226001   3.356   4.651   2.275 -2.8113  0.5490 -0.7388
 1504TIP3   OH226002   3.015   2.120  13.989 -0.2302 -0.8810  0.9914
 1504TIP3    H126003   3.079   2.147  13.923 -0.5271 -0.6667  0.7922
 1504TIP3    H226004   3.044   2.162  14.070 -0.4172 -0.3594  0.7861
 1505TIP3   OH226005   4.616   0.583   0.093 -0.6102  0.0408 -0.5591
 1505TIP3    H126006   4.624   0.657   0.154 -1.9148 -1.2067  1.1612
 1505TIP3    H226007   4.649   0.617   0.010  0.7361  1.9241  0.7209
 1506TIP3   OH226008   0.720   3.427   0.005  0.3840  0.6663  0.2316
 1506TIP3    H126009   0.761   3.404  -0.079 -1.9521 -2.6532 -0.1036
 1506TIP3    H226010   0.787   3.405   0.070  0.0011 -2.7820 -0.4316
 1507TIP3   OH226011   5.791   3.469  17.171  0.5190  0.1633 -0.2419
 1507TIP3    H126012   5.724   3.525  17.211 -0.5485  0.3899 -2.3034
 1507TIP3    H226013   5.747   3.385  17.157  0.5457  0.3960 -1.8543
 1508TIP3   OH226014   6.181   6.518   1.538 -0.4125 -0.1482 -0.3143
 1508TIP3    H126015   6.244   6.589   1.552 -1.1582  0.8468 -1.9012
 1508TIP3    H226016   6.235   6.439   1.535  0.6644  0.5783 -0.5915
 1509TIP3   OH226017   5.787   2.515  11.704 -0.1236 -0.2605 -0.2340
 1509TIP3    H126018   5.703   2.475  11.726 -1.9046  1.1360 -4.0169
 1509TIP3    H226019   5.847   2.441  11.694 -1.0749 -1.3267  1.6446
 1510TIP3   OH226020   2.141   3.351  11.861  0.3414  0.4755 -0.0614
 1510TIP3    H126021   2.139   3.263  11.822  0.5627 -0.8095  2.6560
 1510TIP3    H226022   2.053   3.386  11.845  0.1898 -0.3026 -1.0240
 1511TIP3   OH226023   5.088   4.602   0.034  0.4921 -0.1474  0.0665
 1511TIP3    H126024   5.114   4.518   0.072 -0.3940 -0.7025 -0.5264
 1511TIP3    H226025   5.008   4.582  -0.016 -0.3625  1.2733  0.8441
 1512TIP3   OH226026   2.910   5.287  11.791  0.0260 -0.2537  0.1689
 1512TIP3    H126027   2.871   5.282  11.704 -0.3991  0.5639  0.3034
 1512TIP3    H226028   2.951   5.202  11.804 -2.0595 -1.2931  0.1929
 1513TIP3   OH226029   5.236   1.121  15.280  0.3501  0.2179  0.2659
 1513TIP3    H126030   5.277   1.196  15.324  1.5334 -0.5496  0.5161
 1513TIP3    H226031   5.153   1.108  15.325  0.4062  1.0287  0.5970
 1514TIP3   OH226032   2.521   0.331  11.678  0.3198  0.1375  0.4056
 1514TIP3    H126033   2.560   0.404  11.628  0.0211  0.0934  0.1034
 1514TIP3    H226034   2.437   0.316  11.635  0.3140 -0.2850  0.5676
 1515TIP3   OH226035   2.987   2.928  14.060 -0.7902 -0.0063 -0.0070
 1515TIP3    H126036   3.023   2.878  13.987 -1.1128 -0.5563  0.2048
 1515TIP3    H226037   3.061   2.938  14.121 -1.0971 -1.5257  0.6364
 1516TIP3   OH226038   4.385   4.771  16.850  0.2186 -0.3866  0.5923
 1516TIP3    H126039   4.299   4.753  16.888  0.2067 -0.5500  0.4887
 1516TIP3    H226040   4.447   4.760  16.923  0.1758 -0.5117  0.6095
 1517TIP3   OH226041   5.431   1.035   5.341 -0.3927 -0.4842  0.2881
 1517TIP3    H126042   5.467   1.062   5.257  0.3340 -3.2214 -0.3453
 1517TIP3    H226043   5.399   0.946   5.325 -0.1698 -1.0692  2.9230
 1518TIP3   OH226044   3.147   1.575   3.672  0.4726  0.2132  0.2053
 1518TIP3    H126045   3.226   1.522   3.681 -0.6646 -1.8706 -1.6246
 1518TIP3    H226046   3.098   1.557   3.752  0.2469 -1.2656 -0.2534
 1519TIP3   OH226047   4.505   0.646   1.830  0.4745  0.6304  0.0699
 1519TIP3    H126048   4.437   0.663   1.764  1.9067  2.3091 -1.0123
 1519TIP3    H226049   4.463   0.668   1.913 -0.6502  0.6057 -0.4667
 1520TIP3   OH226050   5.826   5.363  15.805  0.0097 -0.1112 -0.5205
 1520TIP3    H126051   5.843   5.269  15.800  1.0089  0.0052  0.4770
 1520TIP3    H226052   5.882   5.401  15.737  0.6766 -0.1185  0.0130
 1521TIP3   OH226053   3.397   2.675   2.387 -0.1970  0.2398 -0.2370
 1521TIP3    H126054   3.428   2.594   2.348 -1.4023  0.1051 -0.9366
 1521TIP3    H226055   3.321   2.649   2.440  0.9165  0.5402  1.5451
 1522TIP3   OH226056   0.773   0.557  13.329  0.4571  0.4328 -0.7005
 1522TIP3    H126057   0.690   0.603  13.312  0.4103  0.8996  0.7443
 1522TIP3    H226058   0.838   0.627  13.335  1.1291  0.0212 -2.6201
 1523TIP3   OH226059   0.799   3.823   1.236  0.6284  0.6937  0.1161
 1523TIP3    H126060   0.724   3.805   1.180  0.0260 -0.0771  1.1783
 1523TIP3    H226061   0.762   3.862   1.315  1.3002 -0.2217  0.8867
 1524TIP3   OH226062   5.047   0.389   2.275  0.2790 -0.0925  0.7775
 1524TIP3    H126063   4.981   0.409   2.209  1.4602  0.9273 -0.1153
 1524TIP3    H226064   5.058   0.294   2.269 -1.7760 -0.4258  1.6134
 1525TIP3   OH226065   4.603   5.130   3.508  0.4940  0.3597  0.0232
 1525TIP3    H126066   4.615   5.081   3.427  1.7145 -0.4930  0.7043
 1525TIP3    H226067   4.667   5.201   3.502  0.3838  0.4671  0.1127
 1526TIP3   OH226068   5.703   5.534  12.404  0.2783 -0.0880 -0.4238
 1526TIP3    H126069   5.655   5.501  12.328 -1.2273  1.0597 -0.0052
 1526TIP3    H226070   5.690   5.629  12.401  1.9160  0.1765  0.1368
 1527TIP3   OH226071   3.129   4.599  14.546 -0.4259  0.3509 -0.8308
 1527TIP3    H126072   3.213   4.574  14.507 -0.1139  0.8909 -0.4975
 1527TIP3    H226073   3.084   4.647  14.476 -0.1185  0.7822 -0.7325
 1528TIP3   OH226074   1.555   6.160   6.070 -0.2725 -0.4171  0.5438
 1528TIP3    H126075   1.595   6.141   5.985 -0.0998  0.7228  0.3637
 1528TIP3    H226076   1.603   6.105   6.131  1.1580  0.4540  0.2332
 1529TIP3   OH226077   5.538   0.260   4.593 -0.6504 -0.3569 -0.4613
 1529TIP3    H126078   5.553   0.219   4.508 -2.5487  1.8921 -1.9493
 1529TIP3    H226079   5.443   0.261   4.602 -0.4682 -0.2775  1.5613
 1530TIP3   OH226080   5.283   6.023  17.046  0.0620 -0.1675  0.3089
 1530TIP3    H126081   5.280   6.116  17.069 -0.6171 -0.1608  0.2012
 1530TIP3    H226082   5.294   5.978  17.130 -0.3390 -0.0320  0.4311
 1531TIP3   OH226083   1.420   3.495   0.229  0.0153  0.3485 -0.3192
 1531TIP3    H126084   1.432   3.403   0.205 -0.6650  0.1639  0.0263
 1531TIP3    H226085   1.358   3.528   0.164  0.6148  0.6917 -0.7254
 1532TIP3   OH226086   2.145   0.939  16.168 -0.4453 -0.3645  0.3572
 1532TIP3    H126087   2.065   0.980  16.200  0.7829  0.5605  2.4092
 1532TIP3    H226088   2.181   0.895  16.245  1.8295  0.6216 -0.0963
 1533TIP3   OH226089   6.208   6.438   0.579  0.1649 -0.1482 -0.1058
 1533TIP3    H126090   6.302   6.428   0.592  0.1449  0.1629  0.3089
 1533TIP3    H226091   6.168   6.391   0.652 -0.0161 -0.9002 -0.6941
 1534TIP3   OH226092   3.772   5.925  12.241  0.0926  0.0424 -0.0112
 1534TIP3    H126093   3.843   5.889  12.295 -0.8499 -1.3511  0.3119
 1534TIP3    H226094   3.808   5.928  12.153  1.4239  1.7229  0.5718
 1535TIP3   OH226095   1.929   4.835  11.921  0.2833  1.0178 -0.6528
 1535TIP3    H126096   1.928   4.813  11.828  0.2669 -0.4397 -0.3109
 1535TIP3    H226097   1.856   4.896  11.932 -2.3196 -1.9470 -0.8443
 1536TIP3   OH226098   5.369   0.673  13.696  0.6937  1.1250  0.2884
 1536TIP3    H126099   5.377   0.761  13.660 -0.0449  0.3303 -1.8603
 1536TIP3    H226100   5.441   0.666  13.758 -0.1826  3.7937  1.6895
 1537TIP3   OH226101   2.705   6.610  16.799  0.4046 -0.1556  0.3446
 1537TIP3    H126102   2.654   6.640  16.874  1.8844 -0.3597  1.4628
 1537TIP3    H226103   2.781   6.668  16.797 -0.0837  0.4351 -1.5612
 1538TIP3   OH226104   2.056   5.375  16.159  0.5164  0.3874  0.3131
 1538TIP3    H126105   2.068   5.383  16.065 -0.6446  1.5660  0.2556
 1538TIP3    H226106   1.980   5.318  16.169  0.4078  0.5681  0.5322
 1539TIP3   OH226107   4.937   1.704  15.031  0.1605  0.1064 -0.1724
 1539TIP3    H126108   4.992   1.630  15.005  0.1111  0.5799 -1.6617
 1539TIP3    H226109   4.997   1.777  15.042 -0.0822  0.4861 -1.2636
 1540TIP3   OH226110   0.412   4.027   3.606 -0.1031  0.2307 -0.1683
 1540TIP3    H126111   0.382   3.979   3.529  0.1282  1.9012 -1.3420
 1540TIP3    H226112   0.334   4.071   3.639  0.0095  0.3749 -0.0937
 1541TIP3   OH226113   3.535   0.631   0.236  0.1422  0.4487 -0.1630
 1541TIP3    H126114   3.501   0.705   0.186  2.1766  0.5877 -1.3954
 1541TIP3    H226115   3.618   0.663   0.272  0.0485 -0.5712  0.9864
 1542TIP3   OH226116   4.280   5.242   1.278  0.1415  0.0378 -0.2132
 1542TIP3    H126117   4.234   5.325   1.276  0.0492  0.0172  0.6986
 1542TIP3    H226118   4.242   5.191   1.206 -1.2869  0.0100  0.5347
 1543TIP3   OH226119   5.863   1.848   1.071 -0.5731  0.1812 -0.0341
 1543TIP3    H126120   5.810   1.789   1.017 -0.8155  1.3700 -1.1402
 1543TIP3    H226121   5.826   1.935   1.054  0.9160  0.8694  0.1609
 1544TIP3   OH226122   0.902   2.297  16.166 -0.0282 -0.0157  0.3249
 1544TIP3    H126123   0.971   2.311  16.100 -0.4852 -0.7878 -0.3296
 1544TIP3    H226124   0.876   2.385  16.192  1.2234  0.2822  0.5933
 1545TIP3   OH226125   1.619   4.232   1.332  0.4266 -0.0015  0.6256
 1545TIP3    H126126   1.709   4.257   1.352  0.7852 -1.0719  0.3619
 1545TIP3    H226127   1.596   4.285   1.256  0.9333  0.0528  0.5087
 1546TIP3   OH226128   2.275   5.857   4.074  0.3004  0.3959  0.1714
 1546TIP3    H126129   2.258   5.940   4.119  0.2847  0.1112  0.6936
 1546TIP3    H226130   2.203   5.800   4.100 -0.4644  0.6552 -1.3200
 1547TIP3   OH226131   3.501   0.919   3.793 -0.3321 -0.3049  0.0406
 1547TIP3    H126132   3.577   0.972   3.814  0.5524 -1.5851  0.1610
 1547TIP3    H226133   3.433   0.949   3.854  0.1023  0.7684  0.0018
 1548TIP3   OH226134   6.720   3.148  16.018  0.3608  0.0998 -0.1278
 1548TIP3    H126135   6.728   3.055  16.041 -2.8308  0.2179  1.8776
 1548TIP3    H226136   6.753   3.194  16.094  0.1131  0.6017 -0.3271
 1549TIP3   OH226137   2.350   6.784   0.719 -0.5311 -0.1062 -0.4567
 1549TIP3    H126138   2.297   6.864   0.711  1.6627  1.2082 -2.1850
 1549TIP3    H226139   2.361   6.753   0.629 -1.1205 -2.2494  0.1670
 1550TIP3   OH226140   2.554   1.573  13.888 -0.1847  0.2290  0.4162
 1550TIP3    H126141   2.614   1.607  13.822 -0.9913  0.8130 -0.0226
 1550TIP3    H226142   2.599   1.496  13.924 -0.1044 -0.5688 -1.3684
 1551TIP3   OH226143   4.847   3.756  12.938  0.5156 -0.1943 -0.8053
 1551TIP3    H126144   4.896   3.838  12.934 -0.7964  0.7878  1.8472
 1551TIP3    H226145   4.786   3.760  12.865  0.7048  1.0646 -0.9037
 1552TIP3   OH226146   3.972   5.266   1.794  0.3819 -0.0530 -0.0636
 1552TIP3    H126147   3.910   5.206   1.834  2.0983 -1.8328  0.0399
 1552TIP3    H226148   3.962   5.252   1.700 -0.6815  1.0414 -0.1213
 1553TIP3   OH226149   4.406   3.660  10.614  0.2256  0.6007 -0.4998
 1553TIP3    H126150   4.410   3.746  10.572 -1.9646  0.1370 -1.6902
 1553TIP3    H226151   4.333   3.615  10.572 -1.2423 -0.3773  2.9069
 1554TIP3   OH226152   2.019   2.868  12.024 -0.2772 -0.3441  0.3794
 1554TIP3    H126153   1.980   2.786  11.992  0.1028 -0.3652 -0.0306
 1554TIP3    H226154   1.975   2.936  11.973 -0.2710 -0.3249  0.4002
 1555TIP3   OH226155   1.220   2.153  11.347  0.0985  0.1023 -0.7136
 1555TIP3    H126156   1.190   2.148  11.438 -2.3602 -0.0039 -1.4973
 1555TIP3    H226157   1.292   2.091  11.342  0.5361  0.4276  1.2743
 1556TIP3   OH226158   0.278   1.277   0.600  0.0353  0.2482  0.4663
 1556TIP3    H126159   0.303   1.327   0.678 -0.1033  0.8310  0.1452
 1556TIP3    H226160   0.332   1.313   0.530 -1.1877  1.0436 -0.0875
 1557TIP3   OH226161   1.379   2.662   3.551 -0.2715  0.1526 -0.2293
 1557TIP3    H126162   1.443   2.642   3.618 -0.7561  0.3627  0.3033
 1557TIP3    H226163   1.296   2.673   3.599 -0.2332  2.3518 -0.5808
 1558TIP3   OH226164   5.499   5.475   4.808 -0.2188  0.0056  0.2597
 1558TIP3    H126165   5.458   5.436   4.885 -0.0536 -2.3278 -0.7722
 1558TIP3    H226166   5.565   5.535   4.843 -2.5227  1.6619  1.9078
 1559TIP3   OH226167   4.685   0.357  13.426 -0.1792 -0.7370  0.2668
 1559TIP3    H126168   4.648   0.357  13.514  1.0137 -0.3377  0.7800
 1559TIP3    H226169   4.778   0.342  13.439  0.3065  1.1503 -0.7970
 1560TIP3   OH226170   5.710   4.252   2.471  0.7580 -0.0381 -0.1785
 1560TIP3    H126171   5.716   4.215   2.383 -0.2630 -0.7995  0.0553
 1560TIP3    H226172   5.730   4.179   2.529 -2.2091 -0.5543  0.3177
 1561TIP3   OH226173   0.060   6.113   4.992 -0.4305  0.2882  0.5140
 1561TIP3    H126174   0.007   6.085   5.066  0.0237  2.6256  1.7468
 1561TIP3    H226175  -0.003   6.122   4.920 -1.0195 -1.0607  0.8435
 1562TIP3   OH226176   2.300   3.996  13.767  0.6851 -0.1872  0.4173
 1562TIP3    H126177   2.361   3.957  13.830  1.6229  1.2282  0.4123
 1562TIP3    H226178   2.352   4.064  13.724 -0.6405  0.3981 -0.2534
 1563TIP3   OH226179   2.935   1.335  15.369 -0.1535  0.2945 -0.6288
 1563TIP3    H126180   2.938   1.240  15.377 -1.3255  0.1672 -1.4637
 1563TIP3    H226181   2.843   1.354  15.351  0.4164  1.3780 -2.6053
 1564TIP3   OH226182   1.187   2.032   6.321  0.6599  0.2878 -0.2532
 1564TIP3    H126183   1.173   2.082   6.241 -1.8098  0.6041  0.3448
 1564TIP3    H226184   1.106   2.044   6.371  2.2902  0.4117  2.4528
 1565TIP3   OH226185   2.214   2.338  16.736 -0.3436 -0.2421 -0.3618
 1565TIP3    H126186   2.216   2.271  16.804  0.1941  2.7790  2.7307
 1565TIP3    H226187   2.127   2.330  16.697 -2.2442  0.5018  3.4711
 1566TIP3   OH226188   5.675   6.102   3.370  0.3981 -0.3581 -0.6716
 1566TIP3    H126189   5.750   6.048   3.348  0.5162 -0.5114  0.1055
 1566TIP3    H226190   5.630   6.054   3.440 -1.5077 -1.2330 -2.4615
 1567TIP3   OH226191   1.731   3.170   3.836 -0.3772  0.0587 -0.0038
 1567TIP3    H126192   1.666   3.219   3.785 -0.7849  1.2032  1.5899
 1567TIP3    H226193   1.681   3.102   3.880 -0.2028 -0.2009 -0.2035
 1568TIP3   OH226194   0.028   5.435  13.046  0.0934 -0.1184 -0.2590
 1568TIP3    H126195   0.104   5.399  13.002  1.3823  0.8979  1.0871
 1568TIP3    H226196   0.007   5.514  12.996  1.3406  0.8457  0.7125
 1569TIP3   OH226197   3.380   2.075   0.666  0.1721 -0.4809  0.2343
 1569TIP3    H126198   3.408   2.059   0.576  1.3539  0.4285  0.4260
 1569TIP3    H226199   3.316   2.146   0.659  0.3529 -0.3287  0.1141
 1570TIP3   OH226200   0.164   0.373   2.289 -0.2378  0.4808  0.0070
 1570TIP3    H126201   0.250   0.416   2.293  0.2703 -0.2113 -2.4749
 1570TIP3    H226202   0.110   0.422   2.351  2.1715  0.3512  2.3125
 1571TIP3   OH226203   4.902   2.177   5.015  0.2020 -0.3726 -0.3823
 1571TIP3    H126204   4.828   2.117   5.024 -0.7774  1.0342  1.2798
 1571TIP3    H226205   4.933   2.163   4.926  1.5307 -5.0592  0.6753
 1572TIP3   OH226206   3.819   3.767  13.929 -0.5340 -0.5360  0.2690
 1572TIP3    H126207   3.791   3.858  13.919 -0.4378 -0.7040 -1.7129
 1572TIP3    H226208   3.834   3.757  14.023  1.0730  1.9859  0.3401
 1573TIP3   OH226209   3.946   6.181   5.694 -0.2927 -0.1551  0.2780
 1573TIP3    H126210   3.880   6.141   5.751 -0.5794  0.1764  0.1780
 1573TIP3    H226211   4.006   6.110   5.674  0.3409 -0.0712  1.7741
 1574TIP3   OH226212   5.277   3.591  16.398  0.2041  0.3100  0.2864
 1574TIP3    H126213   5.302   3.544  16.477 -0.0454  1.4994  1.0816
 1574TIP3    H226214   5.358   3.595  16.346  0.1676 -1.1876  0.0986
 1575TIP3   OH226215   2.650   3.401   0.910 -0.3392  0.1509 -0.1310
 1575TIP3    H126216   2.738   3.382   0.879 -0.1794  0.0172  0.4010
 1575TIP3    H226217   2.594   3.393   0.832  0.3273  1.7368 -0.7966
 1576TIP3   OH226218   4.848   4.805  11.287  0.5699  0.3120  0.3899
 1576TIP3    H126219   4.810   4.884  11.249 -0.1062  0.2230  0.8824
 1576TIP3    H226220   4.865   4.748  11.211 -1.7225 -0.2789  0.2813
 1577TIP3   OH226221   2.029   3.789   2.148  0.4717  0.3520  0.0430
 1577TIP3    H126222   2.001   3.756   2.063 -0.7599 -2.5970  1.4974
 1577TIP3    H226223   1.963   3.855   2.171 -1.0446 -1.1685  0.1222
 1578TIP3   OH226224   4.718   2.841  10.584 -0.3218 -0.2360 -0.1495
 1578TIP3    H126225   4.644   2.788  10.552 -0.0275 -1.2287  0.7767
 1578TIP3    H226226   4.733   2.810  10.673  1.4323 -0.2813 -0.4372
 1579TIP3   OH226227   4.768   3.604   4.532  0.1181 -0.6104  0.6070
 1579TIP3    H126228   4.780   3.650   4.449 -1.0932 -1.8867 -0.2945
 1579TIP3    H226229   4.685   3.637   4.566 -0.1358 -1.1943  0.5660
 1580TIP3   OH226230   2.787   1.744   0.830  0.3816 -0.3068 -0.1641
 1580TIP3    H126231   2.695   1.733   0.805  0.4491  0.0384 -0.5689
 1580TIP3    H226232   2.807   1.835   0.810  0.2305  0.1984  1.8465
 1581TIP3   OH226233   5.808   2.553  14.658 -0.1466  0.4218  0.0581
 1581TIP3    H126234   5.755   2.505  14.721 -1.1100  1.1014 -0.2297
 1581TIP3    H226235   5.781   2.645  14.669  1.1001  0.8018  0.0512
 1582TIP3   OH226236   1.445   2.303  12.744 -0.1883 -0.0393  0.4754
 1582TIP3    H126237   1.508   2.310  12.673 -0.5071  1.1127  0.2859
 1582TIP3    H226238   1.384   2.235  12.716 -0.1615  0.2307 -0.2370
 1583TIP3   OH226239   6.755   3.887  13.119  0.2492 -0.0192 -0.1015
 1583TIP3    H126240   6.756   3.848  13.206  2.4037  0.3559  0.0710
 1583TIP3    H226241   6.722   3.976  13.133  0.5201  0.0146  0.3334
 1584TIP3   OH226242   5.693   1.204   4.882  0.2549 -0.8505 -0.3740
 1584TIP3    H126243   5.782   1.187   4.851  0.0098 -1.6612 -0.6500
 1584TIP3    H226244   5.656   1.262   4.816  0.8568  0.1948  0.1901
 1585TIP3   OH226245   1.460   1.622   5.027 -0.2548  0.2216 -0.3137
 1585TIP3    H126246   1.460   1.592   5.118 -1.5838 -0.4889 -0.5318
 1585TIP3    H226247   1.467   1.718   5.033  2.4881  0.0293  0.4259
 1586TIP3   OH226248   0.746   5.489  11.235  0.1215  0.1594 -0.3095
 1586TIP3    H126249   0.775   5.576  11.211 -0.4103  0.0040 -1.5390
 1586TIP3    H226250   0.699   5.457  11.158  1.7028 -1.8510 -0.4937
 1587TIP3   OH226251   6.310   0.111   2.188 -0.1874  0.0440 -0.1094
 1587TIP3    H126252   6.225   0.079   2.157 -0.1272 -0.4236  0.1992
 1587TIP3    H226253   6.289   0.174   2.256 -0.3003  0.2896 -0.3745
 1588TIP3   OH226254   1.140   2.753   1.380 -0.1942  0.1060 -0.1517
 1588TIP3    H126255   1.148   2.836   1.428  0.4246 -1.4417  2.5059
 1588TIP3    H226256   1.230   2.720   1.376 -0.6464 -1.1654  0.1485
 1589TIP3   OH226257   0.381   5.956  16.996  0.5134  0.2295 -0.0671
 1589TIP3    H126258   0.357   5.909  17.075 -2.1428 -0.4647 -1.2402
 1589TIP3    H226259   0.303   5.952  16.941  2.9220 -0.9672 -3.5353
 1590TIP3   OH226260   5.924   2.024  12.564  0.3261 -0.6362 -0.3518
 1590TIP3    H126261   5.909   1.972  12.643 -0.5680  0.0348 -0.0725
 1590TIP3    H226262   5.852   2.001  12.506  0.1456 -0.0139 -0.3822
 1591TIP3   OH226263   4.535   1.423  15.083  0.2779 -0.3340  0.0432
 1591TIP3    H126264   4.625   1.391  15.094 -0.6991 -3.1323  0.1974
 1591TIP3    H226265   4.527   1.438  14.988  1.5061  1.8926  0.2474
 1592TIP3   OH226266   2.282   5.997  15.458  0.1489  0.4348  0.4919
 1592TIP3    H126267   2.300   5.941  15.533  1.6837 -1.0170 -0.9182
 1592TIP3    H226268   2.190   5.980  15.436  1.0298 -2.9025 -0.9658
 1593TIP3   OH226269   5.867   5.874   6.464 -0.3341 -0.3613 -0.3271
 1593TIP3    H126270   5.778   5.887   6.495 -0.1133 -0.7757  0.5059
 1593TIP3    H226271   5.877   5.937   6.392 -0.2754  1.9292  1.6054
 1594TIP3   OH226272   3.358   4.537   5.655 -0.1510  0.0370 -0.4627
 1594TIP3    H126273   3.367   4.443   5.664 -2.4478 -0.2249 -0.5787
 1594TIP3    H226274   3.386   4.572   5.740 -2.0455 -0.9688  0.6137
 1595TIP3   OH226275   0.404   5.929  14.668  0.0195  0.3031  0.2773
 1595TIP3    H126276   0.396   5.835  14.649 -0.4373  0.4593 -0.3151
 1595TIP3    H226277   0.483   5.956  14.621 -1.0126  0.6521 -1.2861
 1596TIP3   OH226278   6.545   5.293   5.880  0.3598  0.3193 -0.2847
 1596TIP3    H126279   6.603   5.302   5.955 -1.6017 -2.0966  1.6183
 1596TIP3    H226280   6.486   5.369   5.886 -0.5624 -0.5004  1.3746
 1597TIP3   OH226281   2.123   0.610   5.791 -0.1567 -0.1825  0.3021
 1597TIP3    H126282   2.101   0.682   5.850 -1.3092 -0.0095 -0.3155
 1597TIP3    H226283   2.049   0.607   5.730  0.7232 -0.7599 -0.7369
 1598TIP3   OH226284   1.991   5.899  13.794 -0.3783  0.6264 -0.0877
 1598TIP3    H126285   2.061   5.912  13.857 -2.3051 -0.3669  2.3689
 1598TIP3    H226286   1.926   5.966  13.816 -1.1411  0.1674 -0.9128
 1599TIP3   OH226287   6.628   0.885   4.339  0.2034  0.0619 -0.4275
 1599TIP3    H126288   6.638   0.849   4.251 -1.0455  0.1912 -0.6341
 1599TIP3    H226289   6.702   0.944   4.350  2.5318 -2.8564  0.0695
 1600TIP3   OH226290   5.392   4.898  15.178 -0.0075  0.1553  0.2760
 1600TIP3    H126291   5.427   4.971  15.127 -1.4422 -0.6940 -1.9545
 1600TIP3    H226292   5.416   4.820  15.128 -0.8040 -0.7335  1.2635
 1601TIP3   OH226293   1.351   1.725   3.395  0.0440 -0.1238  0.0313
 1601TIP3    H126294   1.288   1.654   3.408 -2.0310  1.4324 -1.1716
 1601TIP3    H226295   1.400   1.700   3.317  0.4341 -1.0005  0.5545
 1602TIP3   OH226296   2.831   0.197   1.743 -0.4541 -0.0483  0.2522
 1602TIP3    H126297   2.752   0.251   1.752  0.5802  1.7466 -1.0651
 1602TIP3    H226298   2.867   0.222   1.657  1.5995 -0.7576  0.8841
 1603TIP3   OH226299   1.143   6.118  13.408  0.0200 -0.3486 -0.2803
 1603TIP3    H126300   1.138   6.070  13.325  1.1854 -0.6055 -0.2186
 1603TIP3    H226301   1.108   6.058  13.473  0.6790 -0.8035 -0.3356
 1604TIP3   OH226302   4.178   1.939   6.055  0.0738  0.1858  0.1517
 1604TIP3    H126303   4.118   1.956   5.983  0.2603 -1.5095 -0.4156
 1604TIP3    H226304   4.164   2.012   6.115 -0.2481  1.4878 -1.4743
 1605TIP3   OH226305   5.793   1.246   2.412 -0.0904  0.2868 -0.2485
 1605TIP3    H126306   5.878   1.204   2.407 -0.9195 -1.4326 -0.4530
 1605TIP3    H226307   5.770   1.264   2.321 -0.7585 -0.9497 -0.3264
 1606TIP3   OH226308   2.057   1.465   4.176  0.3429 -0.0295  0.3248
 1606TIP3    H126309   2.117   1.528   4.216 -0.1570  0.8099 -0.2186
 1606TIP3    H226310   2.033   1.406   4.247  1.2809  0.0371  0.7077
 1607TIP3   OH226311   4.409   3.167   4.460  0.7030  0.4107  0.0723
 1607TIP3    H126312   4.365   3.121   4.388  0.3648  0.7333  0.0679
 1607TIP3    H226313   4.433   3.098   4.522 -0.4709  0.3027  0.4233
 1608TIP3   OH226314   6.642   4.133  12.323 -0.1157  0.0080 -0.0605
 1608TIP3    H126315   6.658   4.064  12.259  2.1741 -0.1682  0.6713
 1608TIP3    H226316   6.606   4.087  12.399 -1.2549  0.0049 -0.5919
 1609TIP3   OH226317   4.772   3.104   9.868 -0.0143  0.3045 -0.2367
 1609TIP3    H126318   4.860   3.107   9.907  0.3173 -1.4110 -0.7886
 1609TIP3    H226319   4.737   3.019   9.895 -1.3326  0.7887 -0.4045
 1610TIP3   OH226320   5.280   1.662   5.450 -0.0101 -0.6210 -0.1057
 1610TIP3    H126321   5.267   1.587   5.507 -1.2451  1.0173  1.8419
 1610TIP3    H226322   5.207   1.657   5.388 -1.3034  0.0923  1.3207
 1611TIP3   OH226323   6.053   3.922  15.284 -0.3232 -0.0888 -0.1563
 1611TIP3    H126324   5.986   3.854  15.288  0.6679 -1.1569 -1.5167
 1611TIP3    H226325   6.002   4.004  15.281 -1.5373 -0.8069  0.4176
 1612TIP3   OH226326   6.235   0.494   6.386  0.1139 -0.3907  0.1659
 1612TIP3    H126327   6.211   0.563   6.449  0.2035 -1.1774  1.0821
 1612TIP3    H226328   6.160   0.435   6.386  0.1626 -0.4494 -0.3905
 1613TIP3   OH226329   0.968   0.340   2.985  0.0103 -0.5377 -0.4952
 1613TIP3    H126330   0.975   0.373   3.075 -2.2192  0.8562 -0.8069
 1613TIP3    H226331   1.029   0.394   2.935 -1.4530  1.1959 -0.4594
 1614TIP3   OH226332   4.771   0.211   2.427  0.2474 -0.1958  0.3159
 1614TIP3    H126333   4.735   0.260   2.500 -0.2548 -2.2424  1.4595
 1614TIP3    H226334   4.696   0.193   2.371  0.3407 -0.1612  0.1798
 1615TIP3   OH226335   5.947   4.256   6.410  0.0511 -0.2788  0.5100
 1615TIP3    H126336   5.985   4.192   6.350 -0.2215  0.9474 -0.9707
 1615TIP3    H226337   5.900   4.203   6.474  0.3087 -1.5898 -0.3709
 1616TIP3   OH226338   5.142   0.458  13.012  0.3515 -0.2168 -0.1211
 1616TIP3    H126339   5.148   0.552  13.031 -2.1850  0.1246 -0.7527
 1616TIP3    H226340   5.156   0.415  13.097  0.4877  0.7912  0.3727
 1617TIP3   OH226341   0.522   3.634  11.079  0.3309 -0.1992  0.3921
 1617TIP3    H126342   0.486   3.554  11.118  0.2678 -0.1381  0.4590
 1617TIP3    H226343   0.611   3.611  11.053 -0.4466 -1.0037 -1.7164
 1618TIP3   OH226344   6.416   5.675   0.060 -0.5356  0.6358  0.1182
 1618TIP3    H126345   6.403   5.640   0.148 -1.9325 -1.4236 -0.8618
 1618TIP3    H226346   6.357   5.623   0.005  2.3923 -0.0534 -2.4793
 1619TIP3   OH226347   2.154   6.548   2.530 -0.0672  0.0479  0.2143
 1619TIP3    H126348   2.129   6.555   2.623  0.5219 -1.2948  0.4757
 1619TIP3    H226349   2.241   6.587   2.526  0.1138 -0.3523  0.3074
 1620TIP3   OH226350   2.899   4.966   3.563  0.7658  0.2290  0.1316
 1620TIP3    H126351   2.918   4.964   3.657  1.2864  0.3360  0.0300
 1620TIP3    H226352   2.976   4.926   3.522  2.0187  3.1138 -0.4870
 1621TIP3   OH226353   5.932   2.433  13.399 -0.2803  0.1311  0.4090
 1621TIP3    H126354   5.868   2.423  13.329 -1.0568  0.6620  1.0314
 1621TIP3    H226355   6.010   2.388  13.367 -0.7884 -0.0579 -0.5809
 1622TIP3   OH226356   5.005   3.603  17.052 -0.2842 -0.1629 -0.4761
 1622TIP3    H126357   5.029   3.650  17.131 -0.2745 -0.8786 -0.0471
 1622TIP3    H226358   4.952   3.664  17.002  0.2917  0.5351 -0.2394
 1623TIP3   OH226359   6.010   2.258  12.391 -0.4174  0.2041  0.1453
 1623TIP3    H126360   6.099   2.288  12.406 -0.2803 -0.5025  0.8102
 1623TIP3    H226361   5.956   2.336  12.398  0.0543  0.4815  0.6964
 1624TIP3   OH226362   3.127   0.336  11.256 -0.0082  0.8577 -0.2450
 1624TIP3    H126363   3.081   0.363  11.177  0.9015  0.2750 -0.9859
 1624TIP3    H226364   3.065   0.279  11.302 -0.1545  0.3317 -1.0817
 1625TIP3   OH226365   0.809   0.590   4.331 -0.1010  0.1152 -0.5006
 1625TIP3    H126366   0.815   0.685   4.332 -1.2246  0.1834  0.5671
 1625TIP3    H226367   0.883   0.562   4.277 -0.6387  1.6466 -2.1044
 1626TIP3   OH226368   3.582   4.359   1.280 -0.0906 -0.3022  0.7049
 1626TIP3    H126369   3.654   4.421   1.294 -0.0858 -0.4247  1.2555
 1626TIP3    H226370   3.532   4.362   1.362  0.5972 -1.9281  1.2092
 1627TIP3   OH226371   5.849   5.275   4.065 -0.1613 -0.2205 -0.0369
 1627TIP3    H126372   5.898   5.193   4.076 -0.5282 -0.4971 -0.4358
 1627TIP3    H226373   5.915   5.340   4.041  0.0257 -0.5629 -0.4487
 1628TIP3   OH226374   0.460   1.258  11.480  0.4331 -0.4838  0.0418
 1628TIP3    H126375   0.424   1.344  11.458 -0.5095 -0.6453  0.9075
 1628TIP3    H226376   0.526   1.242  11.413  2.3456  1.9858  1.2333
 1629TIP3   OH226377   4.064   6.441  15.048  0.0242  0.2978 -0.1136
 1629TIP3    H126378   4.049   6.358  15.093 -0.8573  1.0000  0.8993
 1629TIP3    H226379   4.015   6.505  15.099 -1.3685  1.0502 -2.3204
 1630TIP3   OH226380   2.332   2.577  15.775 -0.2884 -0.2023  0.5200
 1630TIP3    H126381   2.403   2.542  15.828  1.6606  0.9365 -1.2511
 1630TIP3    H226382   2.340   2.532  15.691  0.0680  1.8734 -0.6079
 1631TIP3   OH226383   1.719   6.378  14.475  0.2116  0.4437 -0.4935
 1631TIP3    H126384   1.807   6.361  14.509 -0.1404  0.1130  0.2636
 1631TIP3    H226385   1.719   6.337  14.388 -0.2725 -2.6191  0.8716
 1632TIP3   OH226386   4.203   1.023  15.575 -0.1713  0.4554 -0.1103
 1632TIP3    H126387   4.291   1.001  15.607  0.0046  2.2364  0.6749
 1632TIP3    H226388   4.186   1.110  15.610 -2.7643 -0.3470  0.7614
 1633TIP3   OH226389   2.131   2.164  11.136  0.5733  0.2631 -0.5055
 1633TIP3    H126390   2.204   2.221  11.111  1.3492  0.1637  1.4702
 1633TIP3    H226391   2.054   2.208  11.102  1.4341  0.9907 -1.5669
 1634TIP3   OH226392   2.829   2.411   3.938 -0.9171  0.4302 -0.0236
 1634TIP3    H126393   2.918   2.423   3.903 -0.5355  2.6540  1.5622
 1634TIP3    H226394   2.812   2.491   3.987 -3.3607 -0.4862  0.7039
 1635TIP3   OH226395   3.401   3.035  15.830 -0.5085  0.3008 -0.3045
 1635TIP3    H126396   3.475   3.091  15.854 -2.4579  1.5910  3.0244
 1635TIP3    H226397   3.437   2.946  15.829  0.9343  0.8067  2.2290
 1636TIP3   OH226398   3.679   3.280  11.484  0.1412  0.1252  0.2364
 1636TIP3    H126399   3.738   3.300  11.412 -0.4654 -0.6739 -0.4933
 1636TIP3    H226400   3.662   3.364  11.525  0.9176  0.5131 -0.2176
 1637TIP3   OH226401   6.316   4.865  15.904  0.7232  0.2841  0.3849
 1637TIP3    H126402   6.394   4.906  15.867  0.4804  2.1832  1.9217
 1637TIP3    H226403   6.246   4.929  15.889  0.0155 -0.2338  1.4505
 1638TIP3   OH226404   2.589   1.690   0.259  0.2816  0.4310 -0.3401
 1638TIP3    H126405   2.678   1.656   0.258  0.4846  0.9928 -1.0753
 1638TIP3    H226406   2.598   1.785   0.247 -0.4652  0.3704 -1.5131
 1639TIP3   OH226407   1.725   5.587  11.836 -0.4024  0.1888 -0.1863
 1639TIP3    H126408   1.665   5.513  11.826 -0.9985  0.7903 -1.1019
 1639TIP3    H226409   1.811   5.546  11.851 -0.2500 -0.7223 -3.3052
 1640TIP3   OH226410   3.260   4.098  13.839 -0.1442  0.1814 -0.8403
 1640TIP3    H126411   3.257   4.176  13.895  1.5977 -0.0339 -0.4048
 1640TIP3    H226412   3.353   4.086  13.820 -0.6251 -0.3262 -2.9897
 1641TIP3   OH226413   1.140   0.120   3.598  0.5857 -0.3282  0.3293
 1641TIP3    H126414   1.158   0.194   3.541  1.3233 -1.1446 -0.5074
 1641TIP3    H226415   1.045   0.110   3.595  0.7476 -1.5526 -2.2937
 1642TIP3   OH226416   1.563   1.575  14.525  0.2438 -0.0887 -0.1315
 1642TIP3    H126417   1.570   1.620  14.610  0.3119 -1.5555  0.6555
 1642TIP3    H226418   1.487   1.614  14.483  0.7515  1.3015  0.2027
 1643TIP3   OH226419   4.511   0.219   4.709  0.5287  0.3263 -0.0963
 1643TIP3    H126420   4.478   0.246   4.795 -1.3243 -0.5901 -0.5028
 1643TIP3    H226421   4.607   0.222   4.719  0.4032 -1.9759  2.7450
 1644TIP3   OH226422   5.429   5.574   2.511  0.3276  0.3413 -0.3133
 1644TIP3    H126423   5.411   5.575   2.605  0.5732  0.2892 -0.2661
 1644TIP3    H226424   5.493   5.504   2.500 -0.6386 -0.4929 -0.6822
 1645TIP3   OH226425   6.475   5.417   3.418  0.1242 -0.5462  0.2043
 1645TIP3    H126426   6.544   5.428   3.353  0.1598 -0.9052  0.1799
 1645TIP3    H226427   6.515   5.364   3.488  0.3364  0.5234  0.9073
 1646TIP3   OH226428   5.384   5.473   0.808  0.1890 -0.3812 -0.5363
 1646TIP3    H126429   5.398   5.469   0.902 -0.6504  1.8966 -0.2742
 1646TIP3    H226430   5.326   5.549   0.796  1.0964 -0.0351 -2.9692
 1647TIP3   OH226431   2.234   5.496   1.374  0.1297  0.1375 -0.1589
 1647TIP3    H126432   2.148   5.472   1.410  0.1046 -0.9526 -0.9212
 1647TIP3    H226433   2.276   5.412   1.355  0.7356  0.6851 -1.2723
 1648TIP3   OH226434   3.158   1.884   3.134  0.1721  0.4422  0.3656
 1648TIP3    H126435   3.150   1.978   3.118 -0.8821  0.1741 -0.7549
 1648TIP3    H226436   3.091   1.865   3.200  1.9193  0.8543  2.3398
 1649TIP3   OH226437   0.353   4.459   1.539 -0.2030  0.0293  0.0167
 1649TIP3    H126438   0.370   4.428   1.628  1.8228 -0.4255 -0.5060
 1649TIP3    H226439   0.313   4.385   1.494  1.0231 -0.5515 -0.1275
 1650TIP3   OH226440   6.221   6.407   4.944  0.2693  0.4983  0.3580
 1650TIP3    H126441   6.244   6.492   4.905  1.3735 -0.0814 -0.2944
 1650TIP3    H226442   6.220   6.346   4.870 -1.8149  0.1809  0.6408
 1651TIP3   OH226443   3.857   2.342  15.728 -0.4684  0.4344  0.2174
 1651TIP3    H126444   3.824   2.273  15.671 -1.3107 -0.8429  2.1713
 1651TIP3    H226445   3.923   2.299  15.782 -2.0003  0.7578  2.4360
 1652TIP3   OH226446   2.915   2.358  10.800 -0.5598 -0.2892 -0.1939
 1652TIP3    H126447   2.975   2.305  10.748 -0.6166 -1.6647  1.0987
 1652TIP3    H226448   2.946   2.448  10.788 -0.4929 -0.5790 -2.4552
 1653TIP3   OH226449   3.469   1.701   3.330 -0.1448 -0.0989 -0.0327
 1653TIP3    H126450   3.501   1.707   3.240  1.8548 -2.3872  0.4480
 1653TIP3    H226451   3.437   1.611   3.337 -1.1816  0.3676  1.2621
 1654TIP3   OH226452   1.386   1.583  14.111 -0.4376  0.2545 -0.0145
 1654TIP3    H126453   1.376   1.498  14.154 -0.2363 -0.7421 -1.8759
 1654TIP3    H226454   1.299   1.602  14.076 -0.7618  1.3691  1.3465
 1655TIP3   OH226455   0.354   2.534  16.186 -0.3758  0.0060  0.1104
 1655TIP3    H126456   0.387   2.617  16.150 -1.3520  0.7419  0.9277
 1655TIP3    H226457   0.261   2.534  16.165 -0.4018 -0.8349  0.2233
 1656TIP3   OH226458   4.738   6.810  15.760  0.3750  0.0229  0.2706
 1656TIP3    H126459   4.782   6.808  15.845  1.6909  0.0783 -0.3842
 1656TIP3    H226460   4.779   6.739  15.710 -0.6316 -0.2335 -0.2005
 1657TIP3   OH226461   0.225   5.709   4.396 -0.2415 -0.1094  0.2457
 1657TIP3    H126462   0.247   5.733   4.307  1.4160 -1.5692  0.2183
 1657TIP3    H226463   0.281   5.764   4.451  0.0833 -0.5039  0.3167
 1658TIP3   OH226464   3.395   5.834  15.491  0.4190  0.2089 -0.1012
 1658TIP3    H126465   3.405   5.747  15.530  0.5767 -0.5458 -1.7648
 1658TIP3    H226466   3.382   5.816  15.397  1.1158  2.0078 -0.5508
 1659TIP3   OH226467   3.513   0.404  11.712 -0.7581 -0.0828 -0.0982
 1659TIP3    H126468   3.430   0.380  11.751 -0.6814 -0.7409 -0.3376
 1659TIP3    H226469   3.513   0.361  11.626 -0.8979  1.2876 -0.8036
 1660TIP3   OH226470   5.916   2.292   1.169 -0.1201 -0.1629  0.2420
 1660TIP3    H126471   5.835   2.263   1.212 -0.9239 -1.3116 -1.9811
 1660TIP3    H226472   5.951   2.214   1.127  1.9395  0.4232  0.7802
 1661TIP3   OH226473   6.809   2.108   4.839 -0.2469 -0.0605 -0.2951
 1661TIP3    H126474   6.864   2.164   4.893  0.9581 -0.6607 -0.8799
 1661TIP3    H226475   6.777   2.167   4.770  1.3147 -0.1652 -1.1224
 1662TIP3   OH226476   6.098   3.851   0.468 -0.3012 -0.8827  0.0136
 1662TIP3    H126477   6.162   3.781   0.450 -2.2677 -2.5105 -0.7867
 1662TIP3    H226478   6.111   3.913   0.396  0.5540 -1.0561  0.0076
 1663TIP3   OH226479   2.282   2.422  11.345  0.2008  0.2394  0.2016
 1663TIP3    H126480   2.290   2.512  11.375  1.7523 -0.2615  1.3398
 1663TIP3    H226481   2.197   2.392  11.379 -0.6047  1.4448 -0.7075
 1664TIP3   OH226482   1.854   2.185  17.115 -0.2113 -0.0894 -0.1424
 1664TIP3    H126483   1.760   2.166  17.123 -0.6005  0.8185 -2.2901
 1664TIP3    H226484   1.861   2.278  17.139  0.1506 -0.1514 -0.0093
 1665TIP3   OH226485   3.211   2.207  16.189  0.4281 -0.1842 -0.0918
 1665TIP3    H126486   3.199   2.284  16.132 -1.0283  0.7206  1.3930
 1665TIP3    H226487   3.253   2.142  16.133  0.9229  1.4069 -1.6190
 1666TIP3   OH226488   1.101   4.773   5.962  0.1508  0.1159  0.2673
 1666TIP3    H126489   1.096   4.696   6.019 -0.8919 -0.1773 -0.1984
 1666TIP3    H226490   1.185   4.813   5.983  0.6047 -1.0209  0.6948
 1667TIP3   OH226491   1.481   4.302   5.981 -0.0722 -0.3136  0.2333
 1667TIP3    H126492   1.428   4.231   6.018 -0.2140  0.1237  0.8735
 1667TIP3    H226493   1.558   4.258   5.945 -0.9948 -0.9956 -0.9724
 1668TIP3   OH226494   4.974   3.253  12.821 -0.4478 -0.3569 -0.3329
 1668TIP3    H126495   5.040   3.289  12.879  0.0298 -0.1712 -0.9853
 1668TIP3    H226496   5.013   3.257  12.734 -1.0222 -0.9389 -0.6285
 1669TIP3   OH226497   0.443   5.763  14.239 -0.1243  0.7473 -0.5574
 1669TIP3    H126498   0.368   5.730  14.289  0.3415  1.6873  0.7812
 1669TIP3    H226499   0.481   5.686  14.198 -0.6660  0.0096  0.3358
 1670TIP3   OH226500   0.517   3.694   2.478 -0.2085 -0.2224 -0.2372
 1670TIP3    H126501   0.506   3.640   2.400  2.4126 -1.0575 -0.0661
 1670TIP3    H226502   0.506   3.784   2.446 -0.5909 -0.6227 -1.2712
 1671TIP3   OH226503   3.887   3.398   2.161  0.4754 -0.5875 -0.4339
 1671TIP3    H126504   3.821   3.467   2.151 -1.0423 -1.9005  0.2885
 1671TIP3    H226505   3.849   3.321   2.120  1.9563 -1.1461 -0.8117
 1672TIP3   OH226506   4.382   3.574  13.074  0.0520 -0.0913 -0.6836
 1672TIP3    H126507   4.350   3.573  13.164 -0.0299  0.9810 -0.6931
 1672TIP3    H226508   4.476   3.556  13.081 -0.1211 -0.9002 -0.4594
 1673TIP3   OH226509   5.625   5.841  14.596  0.3584 -0.0188 -0.4555
 1673TIP3    H126510   5.676   5.796  14.663 -0.3823 -4.2188 -2.5057
 1673TIP3    H226511   5.535   5.840  14.630  0.5578  1.2253  0.1242
 1674TIP3   OH226512   5.457   2.879  17.265  0.1352  0.0083 -0.3940
 1674TIP3    H126513   5.435   2.949  17.203 -1.0834  0.8059  0.9245
 1674TIP3    H226514   5.373   2.856  17.305  0.6752 -1.5881 -0.1506
 1675TIP3   OH226515   0.311   2.210   1.208  0.0267 -0.5681 -0.9791
 1675TIP3    H126516   0.266   2.153   1.146 -0.4795 -1.2604  0.0000
 1675TIP3    H226517   0.254   2.287   1.216 -1.3059 -1.6872  0.6781
 1676TIP3   OH226518   4.717   2.174  14.705  0.1972 -0.3759  0.1052
 1676TIP3    H126519   4.688   2.215  14.623  0.7332 -1.3236 -0.5780
 1676TIP3    H226520   4.674   2.224  14.774 -0.5032  0.2492 -0.7737
 1677TIP3   OH226521   4.764   1.496   4.505  0.0711 -0.0923 -0.6568
 1677TIP3    H126522   4.753   1.412   4.551 -0.4119  0.5210  0.3658
 1677TIP3    H226523   4.833   1.541   4.553 -0.2785  0.4591 -0.6713
 1678TIP3   OH226524   3.674   2.792   1.353  0.0403  0.0544 -0.1999
 1678TIP3    H126525   3.663   2.698   1.362 -3.1187  0.2422 -1.4025
 1678TIP3    H226526   3.681   2.824   1.443 -1.7172 -1.0660  0.3717
 1679TIP3   OH226527   4.412   2.030   4.574  0.2694  0.1041  0.4720
 1679TIP3    H126528   4.468   2.106   4.590  0.6796  0.0982 -0.8458
 1679TIP3    H226529   4.469   1.955   4.592  1.0277  0.0852 -1.8187
 1680TIP3   OH226530   1.285   4.902  12.846 -0.4671  0.0271  0.0363
 1680TIP3    H126531   1.333   4.984  12.833  1.0435 -0.7806  0.3605
 1680TIP3    H226532   1.260   4.903  12.938 -0.4893  0.1419  0.0287
 1681TIP3   OH226533   6.158   3.087  15.521 -0.8417  1.1279  0.5796
 1681TIP3    H126534   6.089   3.145  15.554 -0.1771  1.0827  2.0803
 1681TIP3    H226535   6.193   3.045  15.600 -0.0860  0.0557 -0.3212
 1682TIP3   OH226536   1.574   6.580  13.372  0.3778  0.0082 -0.0452
 1682TIP3    H126537   1.595   6.537  13.455 -0.8831  0.0253  0.2991
 1682TIP3    H226538   1.527   6.514  13.321  1.4607 -0.1169 -0.9005
 1683TIP3   OH226539   0.136   1.983   0.231  0.0967 -0.0785 -0.2145
 1683TIP3    H126540   0.083   2.024   0.300  0.0713 -0.0862 -0.2293
 1683TIP3    H226541   0.191   2.053   0.198 -1.3348  0.4334 -1.5877
 1684TIP3   OH226542   6.795   6.686   2.065  0.2792 -0.6375 -0.2443
 1684TIP3    H126543   6.814   6.610   2.121 -0.0966  0.1703  1.0141
 1684TIP3    H226544   6.718   6.660   2.015  0.8065 -1.4953 -0.6202
 1685TIP3   OH226545   1.718   4.153   5.951  0.0056  0.2770 -0.0582
 1685TIP3    H126546   1.684   4.063   5.950 -0.0137  0.2945 -2.2767
 1685TIP3    H226547   1.772   4.157   6.030 -1.0506 -1.2810  0.7801
 1686TIP3   OH226548   6.397   5.811  14.137 -0.3054 -0.4730  0.7289
 1686TIP3    H126549   6.452   5.885  14.162  0.0448 -0.5652  0.2345
 1686TIP3    H226550   6.441   5.734  14.174  0.1230 -0.5916 -0.0297
 1687TIP3   OH226551   2.578   4.483   0.911 -0.5495 -0.4436  0.2200
 1687TIP3    H126552   2.528   4.450   0.836  1.5482 -0.3901 -1.2392
 1687TIP3    H226553   2.519   4.545   0.953 -2.2023 -1.3538 -0.6930
 1688TIP3   OH226554   0.623   0.906  16.262  0.3576  0.2358  0.1581
 1688TIP3    H126555   0.696   0.964  16.240  0.9829 -0.3639  0.6282
 1688TIP3    H226556   0.554   0.929  16.199  0.3526  1.9488  0.7816
 1689TIP3   OH226557   5.583   2.478  16.087 -0.2731  0.3916  0.3553
 1689TIP3    H126558   5.539   2.418  16.026  1.2383 -1.1482  0.7439
 1689TIP3    H226559   5.516   2.501  16.151 -0.7639 -1.1634  0.4084
 1690TIP3   OH226560   1.647   1.095   6.063 -0.1720  0.6257 -0.1425
 1690TIP3    H126561   1.723   1.121   6.115 -0.5838 -1.8302  1.8087
 1690TIP3    H226562   1.579   1.158   6.086  0.4248  1.1195  0.2959
 1691TIP3   OH226563   3.998   1.886  10.914 -0.2300  0.5256  0.2815
 1691TIP3    H126564   3.996   1.957  10.849  1.6350  0.4147  0.0785
 1691TIP3    H226565   4.028   1.810  10.865 -3.7401 -0.8699  0.1290
 1692TIP3   OH226566   3.544   5.024   5.749  0.8299  0.0449 -0.1112
 1692TIP3    H126567   3.573   4.995   5.835  1.5112 -0.0007 -0.3504
 1692TIP3    H226568   3.459   5.065   5.764  0.3204 -1.1751  0.3829
 1693TIP3   OH226569   2.075   6.058  13.276 -0.3189 -0.1894 -0.1958
 1693TIP3    H126570   2.154   6.087  13.229 -0.0108 -0.0192  0.4253
 1693TIP3    H226571   2.106   5.993  13.338 -0.4645  0.8083  0.9523
 1694TIP3   OH226572   5.708   0.136  14.934  0.5268  0.1805  0.0862
 1694TIP3    H126573   5.619   0.106  14.915  0.2084  1.8123 -1.1059
 1694TIP3    H226574   5.757   0.119  14.853  1.0369  0.2361  0.3825
 1695TIP3   OH226575   4.824   4.190   1.253 -0.1837  0.0946 -0.0697
 1695TIP3    H126576   4.740   4.156   1.220  0.8939 -0.2052 -2.6151
 1695TIP3    H226577   4.818   4.285   1.240 -0.1369  0.0764 -0.2249
 1696TIP3   OH226578   3.529   4.019   3.216  0.6633 -0.1201 -0.0246
 1696TIP3    H126579   3.502   4.096   3.266 -0.2264 -1.2936  1.3359
 1696TIP3    H226580   3.452   3.963   3.213  1.1734 -0.7759 -1.3735
 1697TIP3   OH226581   6.103   4.476   0.807  0.1595 -0.6756 -0.0076
 1697TIP3    H126582   6.123   4.524   0.727 -2.1471 -0.4120 -0.4600
 1697TIP3    H226583   6.165   4.403   0.808  1.3072  0.2750 -1.1581
 1698TIP3   OH226584   1.464   2.896  16.879  0.0941 -0.8695  0.1846
 1698TIP3    H126585   1.488   2.977  16.834  1.5864 -1.1180  0.4988
 1698TIP3    H226586   1.474   2.828  16.813 -1.1925 -0.8100 -0.0910
 1699TIP3   OH226587   1.210   4.809   1.157  0.2486  0.0134 -0.2929
 1699TIP3    H126588   1.299   4.799   1.191  0.0032 -0.2904  0.2692
 1699TIP3    H226589   1.220   4.865   1.080  1.0737 -0.9632 -0.9194
 1700TIP3   OH226590   6.423   3.387  13.752  0.6652  0.1349 -0.3517
 1700TIP3    H126591   6.437   3.439  13.831 -0.5437 -1.2805  0.8285
 1700TIP3    H226592   6.372   3.444  13.695 -1.5923 -0.0872  1.3546
 1701TIP3   OH226593   2.114   3.535   3.938 -0.5063 -0.3365 -0.5713
 1701TIP3    H126594   2.071   3.618   3.917 -0.4253  0.1278  1.0816
 1701TIP3    H226595   2.103   3.525   4.032 -0.6670 -2.3003 -0.7841
 1702TIP3   OH226596   1.095   3.144  14.789 -0.2041  0.1262 -0.2433
 1702TIP3    H126597   1.168   3.117  14.845 -0.9329  2.0834  1.6997
 1702TIP3    H226598   1.019   3.097  14.824 -0.8875  2.2445  1.2250
 1703TIP3   OH226599   0.812   3.591  14.996  0.0151 -0.0071  0.5527
 1703TIP3    H126600   0.888   3.558  15.043 -0.4097  0.6342  1.7369
 1703TIP3    H226601   0.816   3.686  15.007 -1.3289 -0.0141  1.2508
 1704TIP3   OH226602   1.571   3.140  13.871 -0.5309 -0.1056  0.2676
 1704TIP3    H126603   1.639   3.155  13.937 -1.1582 -1.4182  1.2313
 1704TIP3    H226604   1.533   3.227  13.856  0.0695  0.3125  1.1543
 1705TIP3   OH226605   4.607   2.417   6.351 -0.1209 -0.0678  0.2170
 1705TIP3    H126606   4.593   2.343   6.291 -3.3162  0.1606  0.5669
 1705TIP3    H226607   4.636   2.488   6.295 -0.6544 -0.5634 -0.7068
 1706TIP3   OH226608   6.751   1.480   5.470  0.2445  0.4460  0.0973
 1706TIP3    H126609   6.829   1.425   5.471 -0.0098  0.0823  1.0822
 1706TIP3    H226610   6.743   1.509   5.380  0.5139 -0.9644 -0.3936
 1707TIP3   OH226611   6.173   5.185   3.075 -0.0260 -0.0339  0.3690
 1707TIP3    H126612   6.109   5.114   3.088 -0.9533  1.1845  2.9044
 1707TIP3    H226613   6.252   5.140   3.046 -0.4901 -2.1957  2.2309
 1708TIP3   OH226614   6.081   0.768  11.929  0.0655  0.4797  0.8844
 1708TIP3    H126615   6.173   0.756  11.905 -0.3362 -0.3466 -0.2890
 1708TIP3    H226616   6.083   0.830  12.002  1.4610  1.5305 -0.0303
 1709TIP3   OH226617   0.773   4.650   6.407 -0.4791 -0.3082  0.1375
 1709TIP3    H126618   0.761   4.589   6.480 -1.6062 -0.1140  0.1217
 1709TIP3    H226619   0.721   4.727   6.431 -0.6525 -0.1395 -0.7569
 1710TIP3   OH226620   6.711   4.857  16.046 -0.0020 -0.0292  0.0559
 1710TIP3    H126621   6.730   4.947  16.019  0.3381  0.0349  0.5011
 1710TIP3    H226622   6.688   4.812  15.965 -0.6686  0.5850 -0.0993
 1711TIP3   OH226623   5.521   4.586  11.337  0.1427 -0.4483  0.5777
 1711TIP3    H126624   5.512   4.679  11.359  0.5520 -0.6727  1.7889
 1711TIP3    H226625   5.447   4.544  11.381  0.4868 -0.8090  0.8151
 1712TIP3   OH226626   0.327   0.109   4.629 -0.0559 -0.1575 -0.4164
 1712TIP3    H126627   0.399   0.104   4.692  0.7587  0.4208 -1.2814
 1712TIP3    H226628   0.257   0.155   4.676  0.6661  0.5739 -0.0511
 1713TIP3   OH226629   0.038   2.964   4.961  0.2087  0.3492 -0.1910
 1713TIP3    H126630   0.067   2.875   4.941  1.1793  0.4150  0.8731
 1713TIP3    H226631  -0.005   2.956   5.046  1.1857  1.0669  0.3777
 1714TIP3   OH226632   5.884   4.328  16.611 -0.0669  0.0178  0.1415
 1714TIP3    H126633   5.962   4.293  16.654 -0.1653 -1.5032 -0.8861
 1714TIP3    H226634   5.912   4.350  16.523  0.2319  3.5360  1.0664
 1715TIP3   OH226635   3.714   3.689   2.439 -0.1032 -0.1194  0.0690
 1715TIP3    H126636   3.713   3.748   2.363  1.3570  0.0671  0.1776
 1715TIP3    H226637   3.792   3.715   2.488  0.7937 -2.4121 -0.0939
 1716TIP3   OH226638   1.313   1.088  13.759  0.2050  0.1439 -0.0098
 1716TIP3    H126639   1.240   1.123  13.709  0.2537  0.5056  0.1708
 1716TIP3    H226640   1.318   0.996  13.734 -0.3659  0.0996  0.0417
 1717TIP3   OH226641   5.313   4.791   4.184  0.0361 -0.2463  0.4306
 1717TIP3    H126642   5.267   4.738   4.249  0.4674 -1.8442 -0.5432
 1717TIP3    H226643   5.398   4.748   4.174 -0.0189  0.0002 -1.1760
 1718TIP3   OH226644   4.767   5.585   1.199 -0.1825  0.2804  0.0589
 1718TIP3    H126645   4.823   5.522   1.244  0.4118  1.0448  0.4161
 1718TIP3    H226646   4.753   5.654   1.264 -1.8462 -0.0798  0.0996
 1719TIP3   OH226647   4.875   3.030   4.093 -0.4341 -0.4558  0.4215
 1719TIP3    H126648   4.837   3.077   4.018 -0.0167  1.2807  1.2754
 1719TIP3    H226649   4.812   3.044   4.164  1.5255  2.0852  1.7403
 1720TIP3   OH226650   0.216   6.280  16.669 -0.2414 -0.0085 -0.9025
 1720TIP3    H126651   0.153   6.290  16.597  0.8007 -0.6091 -1.9090
 1720TIP3    H226652   0.301   6.300  16.630  0.5193 -1.7907 -0.2220
 1721TIP3   OH226653   5.926   2.944  15.395  0.2314  0.0282  0.0325
 1721TIP3    H126654   6.011   2.976  15.426  1.2659 -1.2874 -1.3397
 1721TIP3    H226655   5.907   2.869  15.452  0.6131 -0.4670 -0.4931
 1722TIP3   OH226656   2.461   1.414   0.157 -0.5001  0.3244  0.8941
 1722TIP3    H126657   2.516   1.473   0.104 -0.5993 -0.2195  0.1825
 1722TIP3    H226658   2.388   1.469   0.185  0.6712  1.1974  2.2790
 1723TIP3   OH226659   3.236   3.854  14.836 -0.1392  0.0710 -0.6446
 1723TIP3    H126660   3.197   3.768  14.850 -0.7259  0.1511 -1.7948
 1723TIP3    H226661   3.228   3.870  14.742  1.4409  0.6784 -0.6938
 1724TIP3   OH226662   0.735   5.364   2.505 -0.1766  0.1297 -0.0026
 1724TIP3    H126663   0.800   5.294   2.498 -1.6201 -1.3528  0.9821
 1724TIP3    H226664   0.678   5.352   2.429 -0.9707 -0.3598  0.6581
 1725TIP3   OH226665   3.755   4.667   6.005  0.6917 -0.8256  0.5287
 1725TIP3    H126666   3.704   4.685   5.926  1.7607 -1.2086 -0.2619
 1725TIP3    H226667   3.729   4.579   6.031  2.5363 -1.9088 -1.1425
 1726TIP3   OH226668   5.087   3.144   5.896 -0.2266 -0.3897 -0.1130
 1726TIP3    H126669   5.011   3.106   5.941  0.4591 -1.5658  0.0686
 1726TIP3    H226670   5.124   3.071   5.846  1.5482 -0.1411  0.8260
 1727TIP3   OH226671   1.312   1.872   2.059 -0.4203  0.5142  0.0991
 1727TIP3    H126672   1.309   1.963   2.030  1.1833  0.5507  0.0033
 1727TIP3    H226673   1.289   1.876   2.152  0.6491  1.1528  0.3481
 1728TIP3   OH226674   5.524   1.917   3.766  0.5626 -0.2414 -0.7730
 1728TIP3    H126675   5.457   1.981   3.744  1.0305  0.6363  0.2951
 1728TIP3    H226676   5.506   1.893   3.857  1.3541 -0.3996 -0.6485
 1729TIP3   OH226677   5.302   5.320   2.694 -0.1701 -0.0204  0.0304
 1729TIP3    H126678   5.317   5.406   2.733  0.3107 -0.0178 -0.1692
 1729TIP3    H226679   5.306   5.335   2.600  0.0336 -0.2889 -0.0013
 1730TIP3   OH226680   2.219   4.949  16.363  0.3791  0.0490  0.1304
 1730TIP3    H126681   2.133   4.907  16.356  1.4933 -2.3340  0.3736
 1730TIP3    H226682   2.221   4.984  16.452  0.2243 -1.1882  0.6286
 1731TIP3   OH226683   5.997   0.388   0.176 -0.2774 -0.0362 -0.1160
 1731TIP3    H126684   6.081   0.383   0.223  0.7587 -1.1248 -2.0027
 1731TIP3    H226685   5.955   0.304   0.193 -0.5148  0.1066 -0.0033
 1732TIP3   OH226686   0.323   1.264  12.168  0.0724  0.3032 -0.1882
 1732TIP3    H126687   0.371   1.331  12.119 -0.1119  1.7436  1.5259
 1732TIP3    H226688   0.371   1.183  12.153  1.7847  1.3130 -0.2653
 1733TIP3   OH226689   5.001   0.358   4.798 -0.1915 -0.4534 -1.0787
 1733TIP3    H126690   4.964   0.442   4.769  0.5079  0.0290 -0.6088
 1733TIP3    H226691   5.001   0.364   4.894  0.1057 -0.8791 -1.0507
 1734TIP3   OH226692   4.707   4.487  12.526 -0.3307  0.2927 -0.3494
 1734TIP3    H126693   4.785   4.482  12.470  0.0521  0.9158  0.1305
 1734TIP3    H226694   4.736   4.533  12.605 -0.4279 -2.0569  1.1196
 1735TIP3   OH226695   1.385   2.911   3.846  0.7033  0.0442 -0.3436
 1735TIP3    H126696   1.373   3.006   3.857  2.8131  0.3429 -0.3349
 1735TIP3    H226697   1.471   2.903   3.804 -0.2244 -1.8007 -1.9612
 1736TIP3   OH226698   6.440   1.766   1.759 -0.4515 -0.1281  0.2821
 1736TIP3    H126699   6.461   1.830   1.691  0.0421  0.8051  1.2976
 1736TIP3    H226700   6.525   1.730   1.785 -0.3589  1.3952  2.2054
 1737TIP3   OH226701   5.510   1.213  11.248  0.3912  0.0619 -0.3512
 1737TIP3    H126702   5.419   1.192  11.269  0.8150 -0.0188  1.5055
 1737TIP3    H226703   5.533   1.152  11.178 -0.8118 -0.2966 -0.4485
 1738TIP3   OH226704   6.631   4.272   2.087  0.6963 -0.3245  0.2590
 1738TIP3    H126705   6.616   4.310   2.174 -0.4370 -0.3273  0.0723
 1738TIP3    H226706   6.583   4.329   2.027 -0.1442 -1.4484 -0.1446
 1739TIP3   OH226707   3.566   3.562  16.178 -0.0060 -0.5414  0.0945
 1739TIP3    H126708   3.550   3.508  16.101 -1.8659 -1.2298  0.9407
 1739TIP3    H226709   3.586   3.500  16.248 -0.4969 -0.0515  0.6759
 1740TIP3   OH226710   0.205   1.390   1.157  0.0375 -0.2304  0.3724
 1740TIP3    H126711   0.235   1.479   1.172  0.3149 -0.6795  2.6917
 1740TIP3    H226712   0.279   1.346   1.115  0.7808  0.0355  1.3661
 1741TIP3   OH226713   4.942   3.204   4.873  0.3869  0.0818  0.4274
 1741TIP3    H126714   4.895   3.257   4.808  1.1709  1.1048  0.6812
 1741TIP3    H226715   4.892   3.123   4.879 -0.8126  0.7885  0.0140
 1742TIP3   OH226716   2.491   6.091  15.092 -0.0963  0.3336 -0.2531
 1742TIP3    H126717   2.546   6.111  15.167 -0.2220 -1.4388  0.3573
 1742TIP3    H226718   2.405   6.128  15.114  0.1573  0.7765 -0.0169
 1743TIP3   OH226719   4.448   1.840  11.366 -0.3875  0.0946  0.2275
 1743TIP3    H126720   4.377   1.781  11.389 -0.1936  0.0572  0.7461
 1743TIP3    H226721   4.442   1.850  11.271 -0.2612 -0.9558  0.1063
 1744TIP3   OH226722   4.759   2.954  14.354  0.2036  0.7968  0.5068
 1744TIP3    H126723   4.817   2.878  14.357 -0.4114  0.3378  0.8921
 1744TIP3    H226724   4.814   3.028  14.381  0.8500  0.5253 -0.0492
 1745TIP3   OH226725   4.716   2.156   1.006 -0.4644 -0.6319  0.0347
 1745TIP3    H126726   4.807   2.172   0.979 -0.3340 -0.2271  0.7124
 1745TIP3    H226727   4.664   2.212   0.949 -0.2223 -0.1385  0.2999
 1746TIP3   OH226728   5.642   6.133   2.661 -0.0377 -0.0796  0.4403
 1746TIP3    H126729   5.675   6.045   2.679  0.0940  0.2698  1.9299
 1746TIP3    H226730   5.617   6.167   2.746 -2.8407  0.2347 -0.4510
 1747TIP3   OH226731   3.942   1.488  13.619 -0.8219 -0.1976 -0.0555
 1747TIP3    H126732   3.974   1.458  13.533 -0.2094  0.2902  0.0084
 1747TIP3    H226733   3.859   1.441  13.630 -0.0438 -1.6034 -0.1270
 1748TIP3   OH226734   0.148   3.769   6.078  0.2543 -0.4636  0.6750
 1748TIP3    H126735   0.176   3.765   6.169 -0.0280 -0.0680  0.7809
 1748TIP3    H226736   0.059   3.804   6.082 -0.5996 -2.5402  0.4104
 1749TIP3   OH226737   5.566   1.044  12.335 -0.0489 -0.0090  0.4928
 1749TIP3    H126738   5.576   1.136  12.307 -1.4320  0.0848  0.2408
 1749TIP3    H226739   5.610   0.994  12.266 -0.1934  0.4196  0.0778
 1750TIP3   OH226740   2.674   6.392   6.884  0.6256 -0.7176 -0.5741
 1750TIP3    H126741   2.630   6.343   6.815  1.4856 -0.7757 -1.0880
 1750TIP3    H226742   2.603   6.438   6.930 -0.3538 -3.4386  0.7701
 1751TIP3   OH226743   1.800   0.388   2.519 -0.3638 -0.0796 -0.3444
 1751TIP3    H126744   1.712   0.405   2.486 -0.9587 -3.1225 -0.4747
 1751TIP3    H226745   1.794   0.401   2.613 -1.6483 -2.8012 -0.0170
 1752TIP3   OH226746   5.706   0.787  12.572 -0.3183 -0.3757  0.5455
 1752TIP3    H126747   5.746   0.871  12.596  0.1424 -0.1910 -0.8193
 1752TIP3    H226748   5.728   0.728  12.644  1.1939  0.1125  0.4893
 1753TIP3   OH226749   3.145   2.357  11.160 -0.0618 -0.0622  0.0671
 1753TIP3    H126750   3.220   2.302  11.137  0.5830  0.8337  0.0042
 1753TIP3    H226751   3.122   2.330  11.249 -0.5236 -1.2850 -0.4159
 1754TIP3   OH226752   5.303   6.257  11.641  0.0264  0.4173  0.1415
 1754TIP3    H126753   5.274   6.168  11.664  2.6679 -0.9472 -1.6060
 1754TIP3    H226754   5.256   6.276  11.559  1.5668 -0.5077 -0.9742
 1755TIP3   OH226755   6.254   1.413  14.013 -0.2629 -0.0472  0.3766
 1755TIP3    H126756   6.341   1.396  13.976 -0.1789  0.0531  0.5257
 1755TIP3    H226757   6.226   1.495  13.972  1.0682  1.6274  2.6778
 1756TIP3   OH226758   2.168   6.411  14.867 -0.4957 -0.2911 -0.0115
 1756TIP3    H126759   2.107   6.484  14.855 -1.1527 -1.2103 -2.7297
 1756TIP3    H226760   2.247   6.439  14.820  0.2720 -0.1698  1.3363
 1757TIP3   OH226761   5.474   4.333  14.167  0.0322 -0.6917  0.0426
 1757TIP3    H126762   5.453   4.425  14.179 -0.7531 -0.8091 -0.3839
 1757TIP3    H226763   5.441   4.291  14.247  1.8393 -0.3836  0.9636
 1758TIP3   OH226764   2.279   4.376   4.847 -0.6818  0.5997  0.6755
 1758TIP3    H126765   2.359   4.428   4.851 -0.0399 -0.3377  0.2005
 1758TIP3    H226766   2.299   4.297   4.897 -0.7917 -0.3086 -0.6701
 1759TIP3   OH226767   3.272   1.135  14.135 -0.2404  0.3101 -0.1129
 1759TIP3    H126768   3.187   1.179  14.140 -0.7239 -0.6765  0.9424
 1759TIP3    H226769   3.329   1.185  14.193  0.3943  1.9891 -2.1575
 1760TIP3   OH226770   5.142   3.568   1.425 -0.8798  0.1143 -0.2326
 1760TIP3    H126771   5.048   3.579   1.409 -0.7617  1.7326  0.1492
 1760TIP3    H226772   5.147   3.511   1.502 -1.5082 -1.9002 -1.6369
 1761TIP3   OH226773   0.023   1.784   5.124 -0.4071 -0.4846  0.0629
 1761TIP3    H126774  -0.052   1.805   5.069 -0.6456 -1.0697  0.1546
 1761TIP3    H226775   0.076   1.725   5.070  0.0260 -0.0157 -0.0284
 1762TIP3   OH226776   0.602   1.404  17.020 -0.6521  0.3933  0.2317
 1762TIP3    H126777   0.643   1.487  17.043  0.4108 -0.1237  0.2221
 1762TIP3    H226778   0.577   1.414  16.928  1.0406  0.0964 -0.2826
 1763TIP3   OH226779   5.466   2.349  15.261  0.0355 -0.1460  0.2467
 1763TIP3    H126780   5.458   2.406  15.184 -1.9707 -0.2989  0.3084
 1763TIP3    H226781   5.415   2.271  15.237  1.2341 -1.1234  0.8747
 1764TIP3   OH226782   3.411   3.817   1.273  0.3323  0.5132  0.5712
 1764TIP3    H126783   3.457   3.894   1.308 -0.9036 -0.7038  5.2006
 1764TIP3    H226784   3.468   3.744   1.295 -1.4217 -0.4960  1.8771
 1765TIP3   OH226785   6.772   1.396   5.058 -0.1431  0.2604 -0.3304
 1765TIP3    H126786   6.696   1.341   5.080 -2.1520  2.8281 -0.5872
 1765TIP3    H226787   6.767   1.468   5.121  2.8115 -0.1331  0.4083
 1766TIP3   OH226788   6.705   4.669  16.949 -0.4918 -0.1801 -0.1115
 1766TIP3    H126789   6.648   4.602  16.914 -2.6647  0.2424  2.4718
 1766TIP3    H226790   6.734   4.634  17.034  0.6778  0.8925 -0.0527
 1767TIP3   OH226791   3.454   0.079   1.649 -0.0785  0.5068  0.1365
 1767TIP3    H126792   3.491   0.101   1.563 -1.2510 -0.1572 -0.5569
 1767TIP3    H226793   3.506   0.006   1.681 -0.0930  0.2822 -0.3490
 1768TIP3   OH226794   6.368   4.290  13.034  0.6607  0.4283 -0.1409
 1768TIP3    H126795   6.315   4.304  13.112 -0.2511 -2.5095 -0.1505
 1768TIP3    H226796   6.442   4.236  13.064  2.4151  2.4832 -0.6006
 1769TIP3   OH226797   0.384   1.628  13.424  0.1400 -0.1462 -0.1210
 1769TIP3    H126798   0.295   1.665  13.427  1.1721  2.3677  0.8226
 1769TIP3    H226799   0.376   1.544  13.468 -1.5670  0.5403  0.9301
 1770TIP3   OH226800   4.809   4.833   0.157  0.1074  0.1013  0.2323
 1770TIP3    H126801   4.734   4.833   0.097  0.6503 -1.3420 -0.4782
 1770TIP3    H226802   4.793   4.906   0.216 -1.1976  0.6217 -0.7452
 1771TIP3   OH226803   6.438   0.333  15.090 -0.0327  0.4470  0.2324
 1771TIP3    H126804   6.421   0.242  15.063 -0.4595  1.1182 -1.8861
 1771TIP3    H226805   6.393   0.342  15.174 -0.7636 -1.0527  0.0222
 1772TIP3   OH226806   1.742   5.882  12.933  0.4652 -0.2063 -0.3253
 1772TIP3    H126807   1.823   5.832  12.936 -0.2234 -1.3012  0.3365
 1772TIP3    H226808   1.762   5.958  12.878  1.3173 -1.5297 -1.8576
 1773TIP3   OH226809   0.344   0.790  14.871 -0.1554 -0.2098  0.4330
 1773TIP3    H126810   0.256   0.786  14.832 -0.2725 -1.0076  0.7832
 1773TIP3    H226811   0.349   0.879  14.907 -0.4172  0.2018 -0.5151
 1774TIP3   OH226812   0.173   4.726  12.463 -0.2624  0.2199  0.5783
 1774TIP3    H126813   0.177   4.651  12.522 -1.6613 -0.5563 -0.2985
 1774TIP3    H226814   0.231   4.703  12.391 -0.2453  0.2296  0.5886
 1775TIP3   OH226815   0.820   1.764  16.279  0.2730  0.0442 -0.2439
 1775TIP3    H126816   0.880   1.700  16.318  0.2415 -0.5348 -1.1430
 1775TIP3    H226817   0.749   1.711  16.243 -1.9054  0.8379  2.6725
 1776TIP3   OH226818   0.694   0.573   4.574 -0.3895 -0.4294 -0.0319
 1776TIP3    H126819   0.619   0.633   4.573 -0.6050 -0.6983 -0.2173
 1776TIP3    H226820   0.721   0.567   4.482 -0.3709 -0.6178 -0.0147
 1777TIP3   OH226821   0.241   5.052  15.433  0.2004  0.5783 -0.1786
 1777TIP3    H126822   0.173   5.081  15.372  1.3799  0.8756 -1.3786
 1777TIP3    H226823   0.292   4.988  15.382 -0.6193 -1.4784  1.4942
 1778TIP3   OH226824   1.607   3.881   0.185  0.0049 -0.2029 -0.7889
 1778TIP3    H126825   1.530   3.848   0.232  0.6228 -0.0560  0.3334
 1778TIP3    H226826   1.570   3.933   0.113 -0.9492 -0.8508 -0.7751
 1779TIP3   OH226827   0.842   4.362  15.963 -0.6778 -0.2457 -0.6395
 1779TIP3    H126828   0.848   4.336  15.871  0.2245 -0.4448 -0.5273
 1779TIP3    H226829   0.930   4.349  15.997 -0.9680  0.0040  0.2103
 1780TIP3   OH226830   6.064   0.580  10.862 -0.5539  0.3677  0.2673
 1780TIP3    H126831   6.032   0.494  10.835 -2.2640  0.5869  1.5268
 1780TIP3    H226832   5.989   0.621  10.905  0.5482  2.0850  0.5835
 1781TIP3   OH226833   5.316   1.039   2.622  0.5839  0.6822  0.3248
 1781TIP3    H126834   5.378   1.078   2.559  0.2066  0.0737 -0.4326
 1781TIP3    H226835   5.348   1.067   2.707  0.2134  2.8238 -0.2167
 1782TIP3   OH226836   3.440   3.671   2.405  0.1406  0.3025  0.4958
 1782TIP3    H126837   3.532   3.657   2.425 -0.1621 -0.9935  1.0604
 1782TIP3    H226838   3.439   3.696   2.312  1.0396  0.1410  0.4391
 1783TIP3   OH226839   5.397   1.200  13.346  0.3916  0.2924 -0.0976
 1783TIP3    H126840   5.343   1.154  13.282  1.4647 -0.7262 -0.2904
 1783TIP3    H226841   5.449   1.131  13.388  1.6687  1.2650 -0.0468
 1784TIP3   OH226842   6.192   3.863   1.429  0.2670 -0.4568 -0.1809
 1784TIP3    H126843   6.173   3.939   1.374  2.5023  0.4413  0.2195
 1784TIP3    H226844   6.186   3.896   1.518 -0.5186 -1.1988  0.0421
 1785TIP3   OH226845   5.901   6.320   4.814  0.0465  0.1919  0.0401
 1785TIP3    H126846   5.827   6.267   4.785 -0.0596  0.6406 -0.5222
 1785TIP3    H226847   5.937   6.273   4.889 -0.6637 -0.1466  0.1653
 1786TIP3   OH226848   2.546   5.346   2.135  0.2932  0.0299 -0.0594
 1786TIP3    H126849   2.510   5.288   2.202 -0.6648 -0.7396 -1.2138
 1786TIP3    H226850   2.583   5.287   2.069  0.0880  0.7498 -0.8288
 1787TIP3   OH226851   4.301   1.243  16.202 -0.0620 -0.1383 -0.1080
 1787TIP3    H126852   4.377   1.185  16.191  0.3931  0.4682 -0.2194
 1787TIP3    H226853   4.339   1.325  16.235 -0.4075  0.8639 -2.1224
 1788TIP3   OH226854   5.459   6.180   1.576 -0.2517  1.0724 -0.0774
 1788TIP3    H126855   5.502   6.173   1.661  1.3712  0.5336 -0.9264
 1788TIP3    H226856   5.450   6.274   1.562 -2.1867  1.1496  1.4958
 1789TIP3   OH226857   2.193   6.437   6.649  0.0600  0.9860 -0.0805
 1789TIP3    H126858   2.207   6.483   6.566  0.6329  1.0689  0.0636
 1789TIP3    H226859   2.156   6.502   6.708 -0.7393  0.8221 -0.3968
 1790TIP3   OH226860   4.640   2.511   4.870  0.5150 -0.5080 -0.7786
 1790TIP3    H126861   4.595   2.488   4.951  1.6852  0.6753  0.2130
 1790TIP3    H226862   4.568   2.530   4.808 -0.3687 -0.4163  0.2612
 1791TIP3   OH226863   2.533   3.402   0.658 -0.2855  0.4760  0.4349
 1791TIP3    H126864   2.493   3.409   0.571 -2.1087  0.4003  1.2313
 1791TIP3    H226865   2.586   3.481   0.666  0.0642  0.3875 -0.8238
 1792TIP3   OH226866   0.186   5.484   2.717  0.1615 -0.4682  0.0039
 1792TIP3    H126867   0.170   5.568   2.673  0.3104  1.1018  2.8134
 1792TIP3    H226868   0.279   5.467   2.703 -0.2375 -1.0519 -2.0308
 1793TIP3   OH226869   3.720   1.233   3.282 -0.1775 -0.5095  0.3509
 1793TIP3    H126870   3.800   1.213   3.331 -0.4244 -1.7321  0.2918
 1793TIP3    H226871   3.746   1.300   3.219  1.1160 -1.7390 -0.4658
 1794TIP3   OH226872   4.399   4.748  13.051 -0.0329 -0.1974 -0.3449
 1794TIP3    H126873   4.402   4.728  12.957 -0.3625 -0.7344 -0.2366
 1794TIP3    H226874   4.469   4.695  13.089 -0.5374 -0.7071 -0.1408
 1795TIP3   OH226875   3.280   3.693  15.517 -0.4184 -0.3077 -0.0313
 1795TIP3    H126876   3.280   3.603  15.485 -2.6104  0.2016 -1.5857
 1795TIP3    H226877   3.243   3.687  15.606 -0.3197 -0.9677 -0.0331
 1796TIP3   OH226878   6.712   3.020   1.744 -0.0885  0.4523 -0.1793
 1796TIP3    H126879   6.673   3.004   1.658 -2.2484  1.2994  0.6158
 1796TIP3    H226880   6.727   2.933   1.780 -1.5954  0.1116 -0.3520
 1797TIP3   OH226881   1.823   1.429  15.965  0.3389  0.1087 -0.2129
 1797TIP3    H126882   1.846   1.348  16.011  0.7678  1.9893  3.0066
 1797TIP3    H226883   1.732   1.446  15.989  0.7787  1.4814  0.5495
 1798TIP3   OH226884   2.112   3.620  14.894  0.6593  0.4020 -0.4588
 1798TIP3    H126885   2.051   3.692  14.879  1.1099  0.5209 -1.7828
 1798TIP3    H226886   2.079   3.548  14.840  0.5161 -0.2135  0.4346
 1799TIP3   OH226887   5.990   4.251   0.064 -0.4037  0.4736 -0.1120
 1799TIP3    H126888   5.949   4.165   0.070  1.0984 -0.2569 -0.0108
 1799TIP3    H226889   6.005   4.277   0.155 -1.3866  1.1010 -0.1298
 1800TIP3   OH226890   2.541   2.965   2.022 -0.4348 -0.2619  0.4137
 1800TIP3    H126891   2.585   3.048   2.005 -0.1291 -0.2469  1.3132
 1800TIP3    H226892   2.568   2.908   1.950  0.5342 -0.0532  0.6163
 1801TIP3   OH226893   0.211   4.251  14.465  0.1882  0.1401 -0.0282
 1801TIP3    H126894   0.139   4.190  14.452 -0.7436  1.0121  0.9587
 1801TIP3    H226895   0.230   4.286  14.377  1.3826 -2.2520 -0.7584
 1802TIP3   OH226896   6.560   2.266  13.593  0.2254  0.0219 -0.1525
 1802TIP3    H126897   6.507   2.209  13.538  0.4071  0.6912 -1.0319
 1802TIP3    H226898   6.576   2.215  13.672  1.6901 -1.7674 -1.5508
 1803TIP3   OH226899   3.194   3.521   1.196 -0.0573 -0.9178  0.0842
 1803TIP3    H126900   3.232   3.480   1.119 -1.4161 -2.5808  0.2859
 1803TIP3    H226901   3.259   3.508   1.265  0.5116 -0.7097 -0.4078
 1804TIP3   OH226902   3.164   5.012  13.866  0.3033  0.0506 -0.1189
 1804TIP3    H126903   3.255   4.983  13.862 -0.0299 -1.1856  1.1008
 1804TIP3    H226904   3.113   4.931  13.859 -0.6982  0.6823 -0.1861
 1805TIP3   OH226905   5.701   2.706  12.910  0.3139  0.0293  0.4595
 1805TIP3    H126906   5.785   2.673  12.939  0.0008 -2.1102 -0.9119
 1805TIP3    H226907   5.719   2.746  12.825  0.0269 -0.0276  0.3706
 1806TIP3   OH226908   4.011   4.861   4.937 -0.2994 -0.4887  0.2912
 1806TIP3    H126909   4.077   4.885   5.002 -0.9584  1.8364  0.1477
 1806TIP3    H226910   4.056   4.799   4.879  1.3693  0.0870  0.9309
 1807TIP3   OH226911   4.732   2.213  16.101 -0.2352  0.2364 -0.1089
 1807TIP3    H126912   4.782   2.255  16.032 -1.0387  0.9213 -0.2835
 1807TIP3    H226913   4.645   2.253  16.096 -0.4239 -0.0057  1.0253
 1808TIP3   OH226914   1.570   1.145   5.531 -0.5269  0.0924 -0.2126
 1808TIP3    H126915   1.661   1.172   5.546 -1.0638  2.3082 -0.6908
 1808TIP3    H226916   1.577   1.057   5.495  1.4429  0.2309 -0.2485
 1809TIP3   OH226917   6.521   0.412   0.791 -0.0139  0.7861 -0.0775
 1809TIP3    H126918   6.435   0.454   0.784  0.0954  1.2468  1.2057
 1809TIP3    H226919   6.547   0.425   0.883  1.2565  0.3292 -0.3589
 1810TIP3   OH226920   4.585   3.461  14.121  0.5851 -0.1091  0.0204
 1810TIP3    H126921   4.644   3.471  14.196  1.5005 -0.2573 -0.6587
 1810TIP3    H226922   4.589   3.546  14.076 -1.1031  0.4671  0.9450
 1811TIP3   OH226923   4.127   6.026  15.393 -0.3134  0.4101 -0.1914
 1811TIP3    H126924   4.041   6.004  15.428 -0.7059 -1.7514 -2.4202
 1811TIP3    H226925   4.149   6.110  15.435 -2.1962 -0.4105  2.5970
 1812TIP3   OH226926   4.937   0.525  15.538  0.0070  0.3125 -0.1768
 1812TIP3    H126927   4.850   0.523  15.497  0.9130  1.4444 -2.2736
 1812TIP3    H226928   4.991   0.572  15.474  2.0869 -0.1284  1.2401
 1813TIP3   OH226929   0.500   1.837   5.948 -0.1022  0.5876  0.1966
 1813TIP3    H126930   0.532   1.782   6.020  2.0655 -0.3640 -1.4379
 1813TIP3    H226931   0.405   1.827   5.950  0.1449 -1.7327  1.0981
 1814TIP3   OH226932   3.226   1.853  16.434 -0.1014  0.2610 -0.5471
 1814TIP3    H126933   3.203   1.800  16.511  2.0139 -0.5332 -0.4157
 1814TIP3    H226934   3.285   1.920  16.469 -1.6348  1.8541 -0.9631
 1815TIP3   OH226935   4.783   3.207  11.305  0.1430 -0.4685 -0.4647
 1815TIP3    H126936   4.790   3.120  11.267  0.2850 -0.2588 -0.9226
 1815TIP3    H226937   4.833   3.203  11.386 -0.8075 -1.1447  0.1017
 1816TIP3   OH226938   6.701   0.259   2.624  0.1538  0.0953 -0.6131
 1816TIP3    H126939   6.737   0.190   2.568  1.0648  0.1104 -0.0626
 1816TIP3    H226940   6.705   0.338   2.570  0.4353 -0.0149 -0.7538
 1817TIP3   OH226941   5.403   0.219   0.666  0.1198 -0.0742 -0.8978
 1817TIP3    H126942   5.487   0.175   0.684 -0.9231 -1.9241 -0.4455
 1817TIP3    H226943   5.347   0.150   0.632 -1.7241  0.8325  0.2690
 1818TIP3   OH226944   5.973   4.227  12.635 -0.3774  0.2220  0.0073
 1818TIP3    H126945   6.006   4.269  12.715  2.4707 -0.2538 -0.8754
 1818TIP3    H226946   5.936   4.144  12.665  2.4628 -0.8660  0.6503
 1819TIP3   OH226947   0.082   3.382  11.084 -0.0469  0.0129 -0.4007
 1819TIP3    H126948   0.025   3.331  11.142  1.1217 -1.6035 -0.6492
 1819TIP3    H226949   0.064   3.348  10.997  1.0486 -0.2979 -0.5167
 1820TIP3   OH226950   3.061   6.678  11.800 -0.6650 -0.0379  0.0788
 1820TIP3    H126951   3.051   6.604  11.739 -0.9982  0.8388 -0.9331
 1820TIP3    H226952   2.978   6.682  11.847 -0.7114 -0.1866  0.0108
 1821TIP3   OH226953   0.969   0.036  14.637 -0.6420  0.0335  0.1337
 1821TIP3    H126954   1.021   0.013  14.714 -0.7346 -2.1163 -0.4254
 1821TIP3    H226955   1.016  -0.003  14.563 -1.0885  1.2277 -0.7983
 1822TIP3   OH226956   2.652   1.873   3.899 -0.4141 -0.2443 -0.2653
 1822TIP3    H126957   2.707   1.925   3.957  0.0360  0.2194 -1.1021
 1822TIP3    H226958   2.575   1.928   3.882 -0.0741  0.0415 -0.9133
 1823TIP3   OH226959   4.619   0.011  14.266  0.1386  0.0744 -0.6109
 1823TIP3    H126960   4.698   0.033  14.216 -0.0070  0.1036 -0.8301
 1823TIP3    H226961   4.651  -0.026  14.348  0.3852  0.6958 -0.4285
 1824TIP3   OH226962   4.416   3.051  13.300  0.3964 -0.0965 -0.9377
 1824TIP3    H126963   4.378   3.083  13.218 -0.9792 -0.9999 -0.6725
 1824TIP3    H226964   4.347   2.996  13.338  1.2904 -0.2536  0.4764
 1825TIP3   OH226965   5.883   6.256  11.970 -0.9171  0.1701 -0.0236
 1825TIP3    H126966   5.959   6.293  11.927 -1.5150 -0.9242 -2.1240
 1825TIP3    H226967   5.844   6.328  12.018  0.1255  1.2936 -0.8490
 1826TIP3   OH226968   4.004   0.714  12.873 -0.3656  0.5582 -0.3708
 1826TIP3    H126969   4.060   0.667  12.935 -1.1537  0.6710  0.4467
 1826TIP3    H226970   3.915   0.685  12.896 -0.6853  0.8456 -1.2445
 1827TIP3   OH226971   6.597   1.443   3.245 -0.1592  0.9124 -0.3492
 1827TIP3    H126972   6.551   1.527   3.237 -2.5440 -0.4178 -1.0448
 1827TIP3    H226973   6.550   1.397   3.314  1.8032  0.5429  0.7670
 1828TIP3   OH226974   4.693   3.609  14.651 -0.0102 -1.1117 -0.1990
 1828TIP3    H126975   4.703   3.631  14.743  2.1704 -1.2501 -0.3850
 1828TIP3    H226976   4.641   3.681  14.615  1.8572  0.6132  0.4762
 1829TIP3   OH226977   4.970   6.122   1.284  0.0360  0.3040  0.2828
 1829TIP3    H126978   4.925   6.158   1.361 -0.2901  1.6250 -0.5247
 1829TIP3    H226979   4.917   6.151   1.210  0.8289 -0.2580 -0.5005
 1830TIP3   OH226980   0.643   6.575  16.718  0.8377  0.1290  0.3860
 1830TIP3    H126981   0.646   6.649  16.779 -0.2335 -0.2593  0.9233
 1830TIP3    H226982   0.617   6.500  16.772  1.9194 -0.6488 -0.1505
 1831TIP3   OH226983   6.417   3.979   3.796  0.0250  0.2292 -0.5706
 1831TIP3    H126984   6.480   4.027   3.744 -0.1927  0.8368 -0.2814
 1831TIP3    H226985   6.344   4.039   3.808  0.6987  0.6569  1.6738
 1832TIP3   OH226986   4.214   6.541  17.040  0.3323  0.9373 -0.4213
 1832TIP3    H126987   4.129   6.498  17.034  0.1046  0.7192  3.3919
 1832TIP3    H226988   4.276   6.470  17.052  0.8686  1.2141 -1.4946
 1833TIP3   OH226989   2.757   5.363   5.588 -0.4743  0.4163 -0.2489
 1833TIP3    H126990   2.820   5.294   5.566 -2.7438 -1.7929 -0.1969
 1833TIP3    H226991   2.755   5.420   5.512  0.7615 -0.1412 -0.6996
 1834TIP3   OH226992   5.109   4.323  15.561 -0.2071  0.2739  0.2094
 1834TIP3    H126993   5.048   4.271  15.508 -0.4048 -0.2712  0.9646
 1834TIP3    H226994   5.165   4.258  15.603  1.1711  0.7806 -0.7949
 1835TIP3   OH226995   0.221   0.833   2.669 -0.2821  0.2349 -0.0209
 1835TIP3    H126996   0.297   0.869   2.715 -0.7470  1.2994 -0.0843
 1835TIP3    H226997   0.162   0.806   2.739  0.3550 -1.0407  0.0352
 1836TIP3   OH226998   3.770   3.730   3.894  0.3063  0.1176  0.4125
 1836TIP3    H126999   3.803   3.640   3.891  3.3235  1.1996 -1.1849
 1836TIP3    H227000   3.771   3.759   3.802 -1.3426  1.5548  0.8138
 1837TIP3   OH227001   2.119   0.582   3.626 -0.8975 -0.7158  0.2517
 1837TIP3    H127002   2.023   0.588   3.623 -0.8301 -0.0731 -0.5006
 1837TIP3    H227003   2.137   0.488   3.622 -1.4827 -0.8249  0.1493
 1838TIP3   OH227004   2.081   3.698  12.054  0.1640 -0.4126  0.1178
 1838TIP3    H127005   2.108   3.785  12.085 -1.7414  0.0746  0.4839
 1838TIP3    H227006   2.042   3.714  11.968 -1.9704 -0.5997  1.0198
 1839TIP3   OH227007   1.490   5.745  14.920 -0.2736 -0.1214 -0.5580
 1839TIP3    H127008   1.479   5.799  14.842 -0.9851  0.0865 -0.3180
 1839TIP3    H227009   1.529   5.804  14.985  2.4793 -0.8876 -1.4471
 1840TIP3   OH227010   6.544   0.587   2.543  0.1627  0.1450  0.2814
 1840TIP3    H127011   6.561   0.681   2.542 -0.4973  0.3000  2.1476
 1840TIP3    H227012   6.574   0.556   2.457 -0.8118  2.2537 -0.8404
 1841TIP3   OH227013   5.534   4.060  14.460 -0.1256 -0.4427 -0.1850
 1841TIP3    H127014   5.592   4.025  14.393 -0.0400 -0.2242 -0.2240
 1841TIP3    H227015   5.468   4.110  14.412  0.2409  0.1532 -0.0711
 1842TIP3   OH227016   4.475   0.424   4.252 -0.5091 -0.5939 -0.2843
 1842TIP3    H127017   4.431   0.339   4.249  2.8234 -2.4323  0.8887
 1842TIP3    H227018   4.488   0.447   4.160 -1.3812 -1.3686 -0.6164
 1843TIP3   OH227019   1.743   4.671  13.431 -0.9514 -0.5772  0.3418
 1843TIP3    H127020   1.827   4.638  13.399 -1.4558  0.1196 -1.7676
 1843TIP3    H227021   1.767   4.742  13.491 -0.0174  0.3733 -1.1097
 1844TIP3   OH227022   1.917   2.514  12.742  0.1199  0.0413 -0.1552
 1844TIP3    H127023   1.971   2.564  12.802 -0.4540  1.3706 -0.7335
 1844TIP3    H227024   1.856   2.578  12.705 -0.1461 -0.9317 -1.4378
 1845TIP3   OH227025   5.324   4.590  16.530 -0.2186 -0.1594 -0.1936
 1845TIP3    H127026   5.351   4.676  16.498 -0.1802 -0.2452 -0.3934
 1845TIP3    H227027   5.292   4.607  16.619 -0.7991  0.1623 -0.4583
 1846TIP3   OH227028   1.737   4.762  13.893  0.0465  0.0902 -0.2973
 1846TIP3    H127029   1.752   4.836  13.952  0.4795 -0.6527  0.5529
 1846TIP3    H227030   1.778   4.788  13.811 -0.8816  1.2945 -0.3948
 1847TIP3   OH227031   5.001   5.394  12.369  0.5772  0.1971  0.4730
 1847TIP3    H127032   4.913   5.358  12.359  0.9016 -0.4166 -0.2058
 1847TIP3    H227033   5.008   5.414  12.462  0.1774 -0.9635  0.7684
 1848TIP3   OH227034   0.853   2.633  12.587 -0.5956  0.8761 -0.5081
 1848TIP3    H127035   0.776   2.576  12.590 -1.1953  1.7272  1.4353
 1848TIP3    H227036   0.822   2.712  12.543  0.3668 -0.4469 -3.6381
 1849TIP3   OH227037   6.603   5.643  14.683  0.0342  0.0963 -0.3145
 1849TIP3    H127038   6.545   5.703  14.636 -0.8935 -0.5624 -0.0145
 1849TIP3    H227039   6.596   5.670  14.775  1.2619  0.8938 -0.4393
 1850TIP3   OH227040   1.272   5.782   3.105  0.4574  0.3893 -0.1644
 1850TIP3    H127041   1.359   5.763   3.069 -0.0544 -2.4367  0.0086
 1850TIP3    H227042   1.290   5.842   3.178  2.2029  0.1652 -0.3732
 1851TIP3   OH227043   3.355   4.499   4.621  0.0576 -0.0649 -0.1122
 1851TIP3    H127044   3.308   4.417   4.604  0.9044 -1.1340  2.3540
 1851TIP3    H227045   3.287   4.566   4.621 -1.1699 -1.2747  1.2447
 1852TIP3   OH227046   4.943   0.607   3.121  0.1961 -0.2299  0.1572
 1852TIP3    H127047   4.958   0.581   3.212 -1.1344 -0.3562  0.3514
 1852TIP3    H227048   4.932   0.702   3.124 -2.5043 -0.5173  0.5268
 1853TIP3   OH227049   5.573   4.672  10.817 -0.5323 -0.5145  0.2376
 1853TIP3    H127050   5.643   4.690  10.879 -0.1114  1.5272 -0.8059
 1853TIP3    H227051   5.618   4.659  10.733 -1.3137 -0.2927 -0.2215
 1854TIP3   OH227052   5.494   6.279  17.254 -0.5158 -0.0402 -0.5678
 1854TIP3    H127053   5.538   6.203  17.215 -0.7847 -1.1110  1.1755
 1854TIP3    H227054   5.414   6.289  17.203 -0.7839 -1.3203 -0.4073
 1855TIP3   OH227055   5.663   4.915   1.644  0.4567 -0.5900 -0.0091
 1855TIP3    H127056   5.672   4.824   1.617 -1.9388 -0.6628 -0.6337
 1855TIP3    H227057   5.723   4.924   1.718  1.0049 -2.5630 -0.1906
 1856TIP3   OH227058   2.766   1.267  14.637  0.3048 -0.1913  0.1851
 1856TIP3    H127059   2.672   1.264  14.618  0.1973  0.3988  0.5744
 1856TIP3    H227060   2.790   1.176  14.655  0.1518 -0.5711 -1.4829
 1857TIP3   OH227061   0.565   1.283   4.964 -0.1091 -0.2662  0.1172
 1857TIP3    H127062   0.572   1.284   5.060 -1.3269  0.0643  0.2155
 1857TIP3    H227063   0.643   1.328   4.933 -1.4570  2.8700  1.0900
 1858TIP3   OH227064   4.022   0.778  14.822 -0.0143  0.6303  0.5466
 1858TIP3    H127065   4.072   0.706  14.785 -1.0849  0.8820 -1.4436
 1858TIP3    H227066   4.032   0.768  14.917 -0.1791 -2.1504  0.3043
 1859TIP3   OH227067   5.320   0.751  14.674  0.1293  0.1626 -0.2110
 1859TIP3    H127068   5.326   0.755  14.770 -2.8082  1.7399 -0.0217
 1859TIP3    H227069   5.368   0.828  14.643 -0.8630  0.9344  0.1385
 1860TIP3   OH227070   0.869   0.252   2.095  0.8130 -0.3180 -0.3421
 1860TIP3    H127071   0.954   0.258   2.138  0.9455 -1.3806 -0.4482
 1860TIP3    H227072   0.890   0.247   2.002  0.6465 -0.7742 -0.3566
 1861TIP3   OH227073   4.783   0.887  11.274 -0.0907 -0.5829 -0.0757
 1861TIP3    H127074   4.753   0.804  11.237 -0.6438  0.6441 -2.4872
 1861TIP3    H227075   4.728   0.900  11.351 -1.3725 -1.4969 -0.8121
 1862TIP3   OH227076   5.896   1.662  13.727  0.1909 -0.8363 -0.1649
 1862TIP3    H127077   5.983   1.686  13.759 -0.2251  2.1959 -1.1275
 1862TIP3    H227078   5.913   1.606  13.651  1.2494 -1.8329  0.7791
 1863TIP3   OH227079   0.389   3.975  11.362  0.1852 -0.0538 -0.0640
 1863TIP3    H127080   0.431   4.057  11.336  0.0433 -0.2673 -0.9616
 1863TIP3    H227081   0.457   3.909  11.353  0.0194 -0.1938 -0.2918
 1864TIP3   OH227082   1.725   4.376  12.267 -0.1238  0.8498 -0.5763
 1864TIP3    H127083   1.696   4.316  12.199 -1.7023  1.1154 -0.1567
 1864TIP3    H227084   1.725   4.324  12.347 -0.0877  1.0276 -0.4604
 1865TIP3   OH227085   2.532   0.818   4.786 -0.1429  0.0747  0.1752
 1865TIP3    H127086   2.546   0.741   4.841 -0.1860 -1.1769 -1.5146
 1865TIP3    H227087   2.616   0.832   4.742 -0.7273 -0.2870 -1.0890
 1866TIP3   OH227088   6.264   3.659  12.034  0.5327 -0.2812  0.4713
 1866TIP3    H127089   6.194   3.723  12.050 -0.1225 -0.7030 -0.6008
 1866TIP3    H227090   6.317   3.699  11.965  3.0091  1.2881  3.2176
 1867TIP3   OH227091   6.277   4.419   2.340 -0.3177 -0.0231  0.6637
 1867TIP3    H127092   6.362   4.454   2.314 -1.2171  0.6652 -1.4362
 1867TIP3    H227093   6.260   4.459   2.425  1.0560  0.5096  0.7017
 1868TIP3   OH227094   2.091   3.329   2.389  0.3959  0.0634  0.0877
 1868TIP3    H127095   2.029   3.264   2.424  0.5200 -1.0862 -1.7698
 1868TIP3    H227096   2.174   3.308   2.432  0.1137 -0.0769  0.5800
 1869TIP3   OH227097   4.338   1.059   0.592 -0.4560  0.2565 -0.0570
 1869TIP3    H127098   4.396   0.992   0.557 -2.2430 -2.3064  1.6926
 1869TIP3    H227099   4.376   1.083   0.676 -0.4213  0.6052 -0.1724
 1870TIP3   OH227100   4.916   3.689   1.672  0.3194  0.4289 -0.5748
 1870TIP3    H127101   4.856   3.645   1.732 -0.1327  0.6753 -0.8522
 1870TIP3    H227102   4.997   3.699   1.723  0.5288 -1.0038 -0.6125
 1871TIP3   OH227103   6.200   3.498  11.741 -0.0682 -0.8264  0.1663
 1871TIP3    H127104   6.206   3.500  11.645 -2.1612 -0.5404  0.0084
 1871TIP3    H227105   6.288   3.517  11.771  0.3662  0.2681 -1.7195
 1872TIP3   OH227106   4.866   6.535  12.080 -0.4774 -0.1936  0.4567
 1872TIP3    H127107   4.957   6.551  12.104 -0.6118  1.6032 -0.1444
 1872TIP3    H227108   4.823   6.511  12.162  0.1591  0.7446  1.0718
 1873TIP3   OH227109   0.034   0.760  11.308 -0.0919 -0.1558  0.3266
 1873TIP3    H127110   0.093   0.694  11.345 -0.5782 -0.8429 -0.1374
 1873TIP3    H227111  -0.032   0.710  11.260 -0.4203  0.6664 -0.0851
 1874TIP3   OH227112   4.274   1.594  12.528  0.5090 -0.0420  0.4122
 1874TIP3    H127113   4.204   1.564  12.586 -0.1765  1.8522  0.6193
 1874TIP3    H227114   4.333   1.519  12.520 -0.4179 -0.9659  1.9671
 1875TIP3   OH227115   1.081   4.509  15.563 -0.1431  0.2724 -0.1214
 1875TIP3    H127116   1.094   4.423  15.601  1.0968  0.1023 -0.8912
 1875TIP3    H227117   0.993   4.505  15.524  0.3874 -1.0656 -1.2301
 1876TIP3   OH227118   2.961   5.601  15.088  0.8671  0.1705 -0.2608
 1876TIP3    H127119   3.042   5.623  15.133  0.7282 -0.9381  0.5621
 1876TIP3    H227120   2.910   5.552  15.153 -0.5503  1.0421 -0.7001
 1877TIP3   OH227121   5.724   5.200  12.423 -0.2619  0.2210  0.3358
 1877TIP3    H127122   5.724   5.285  12.381  0.2653  0.0287 -0.0561
 1877TIP3    H227123   5.762   5.216  12.510 -0.4466  0.4375  0.3757
 1878TIP3   OH227124   3.973   5.832   4.654 -0.3451 -0.3181  0.4007
 1878TIP3    H127125   4.020   5.815   4.736  2.8289 -0.3288 -1.3149
 1878TIP3    H227126   4.035   5.804   4.586 -1.4446  3.0158 -2.0898
 1879TIP3   OH227127   1.387   5.405  11.451 -0.3329 -0.2127  0.5745
 1879TIP3    H127128   1.370   5.375  11.362  2.2523 -0.9767  0.2843
 1879TIP3    H227129   1.482   5.421  11.453 -0.4177  0.1485  3.0721
 1880TIP3   OH227130   0.913   1.131   1.172 -0.2468  0.1120  0.2143
 1880TIP3    H127131   0.923   1.036   1.179 -0.4356  0.0870  0.1426
 1880TIP3    H227132   1.002   1.163   1.152 -0.2516 -0.0838 -0.1181
 1881TIP3   OH227133   4.027   6.399   5.330  0.7881  0.0448 -0.0873
 1881TIP3    H127134   4.012   6.317   5.284 -0.7478  2.3452 -3.9695
 1881TIP3    H227135   3.943   6.445   5.324  1.6681  2.0018  1.8365
 1882TIP3   OH227136   1.237   0.541   0.812 -0.6181  0.4091 -0.0515
 1882TIP3    H127137   1.190   0.623   0.796 -2.1106  0.0619  2.2553
 1882TIP3    H227138   1.169   0.475   0.814  0.1562 -0.3606  1.6745
 1883TIP3   OH227139   6.453   1.398  11.996 -0.0815  0.1807  0.1971
 1883TIP3    H127140   6.508   1.408  11.917 -2.1192  0.4546 -1.2200
 1883TIP3    H227141   6.406   1.481  12.002 -0.3702 -0.0681  1.3904
 1884TIP3   OH227142   6.135   4.674   4.186  0.7042  0.1786 -0.0394
 1884TIP3    H127143   6.052   4.719   4.172  0.3349 -0.3269  0.5408
 1884TIP3    H227144   6.197   4.744   4.206  0.6298  0.6510 -1.3683
 1885TIP3   OH227145   3.139   1.046  14.780  0.4522  0.1029 -0.5273
 1885TIP3    H127146   3.149   1.135  14.812 -1.3605  0.2178 -0.1969
 1885TIP3    H227147   3.225   1.006  14.790  0.9805  1.4719  0.4065
 1886TIP3   OH227148   0.466   5.115  11.973 -0.5919  0.4071 -0.0088
 1886TIP3    H127149   0.375   5.091  11.955 -1.0292  0.0225  2.5642
 1886TIP3    H227150   0.460   5.186  12.036  0.8860  0.7868 -0.2854
 1887TIP3   OH227151   1.441   4.860  12.452 -0.2407  0.4227 -0.3441
 1887TIP3    H127152   1.487   4.929  12.404 -0.4854  2.7555  2.5909
 1887TIP3    H227153   1.483   4.859  12.538 -1.4818 -1.8467  0.2602
 1888TIP3   OH227154   1.459   3.020  16.215  0.6307  0.1916 -0.4649
 1888TIP3    H127155   1.455   2.925  16.202  0.2897  0.3629 -1.6751
 1888TIP3    H227156   1.453   3.057  16.127  1.8821  1.3062 -0.1086
 1889TIP3   OH227157   2.479   0.924   1.801  0.3106 -0.3236 -0.3948
 1889TIP3    H127158   2.420   0.994   1.828 -0.8093 -0.7932 -1.6220
 1889TIP3    H227159   2.567   0.963   1.810 -0.2838  1.2090 -1.0011
 1890TIP3   OH227160   3.052   5.175  13.092  0.5270  0.4960  0.3025
 1890TIP3    H127161   3.051   5.192  13.186 -1.0532  1.7481  0.0925
 1890TIP3    H227162   2.995   5.099  13.080  0.5426  0.4792  0.3363
 1891TIP3   OH227163   3.592   3.583   4.420  0.0436 -0.1778 -0.3729
 1891TIP3    H127164   3.661   3.545   4.475 -0.1198  0.0839  0.0213
 1891TIP3    H227165   3.609   3.550   4.332  0.2611 -0.6667 -0.1452
 1892TIP3   OH227166   5.624   0.115  15.441 -0.0977  0.0221 -0.1469
 1892TIP3    H127167   5.664   0.039  15.483  0.3226  0.2436 -0.1421
 1892TIP3    H227168   5.648   0.189  15.497 -1.9155 -0.0546  0.7688
 1893TIP3   OH227169   1.467   6.333  14.698 -0.6653  0.2541  0.8569
 1893TIP3    H127170   1.388   6.321  14.646  1.1690 -0.9853 -1.7536
 1893TIP3    H227171   1.505   6.416  14.666  0.0872 -0.1341  0.7310
 1894TIP3   OH227172   2.026   0.748   5.303 -0.1787 -0.0015 -0.5577
 1894TIP3    H127173   2.051   0.771   5.214  0.2939 -0.2311 -0.4824
 1894TIP3    H227174   1.995   0.658   5.297 -0.6868  0.1737 -0.5933
 1895TIP3   OH227175   2.489   4.104   6.469  0.0986 -0.0095  0.0908
 1895TIP3    H127176   2.407   4.140   6.433  0.1065  0.3938  0.4800
 1895TIP3    H227177   2.470   4.011   6.480 -0.4971  0.1794  0.7056
 1896TIP3   OH227178   4.461   0.745   1.045  0.1159 -0.1454  0.1096
 1896TIP3    H127179   4.514   0.699   1.110 -0.4291  0.4682  1.0034
 1896TIP3    H227180   4.524   0.775   0.979  0.5885 -1.3568 -0.0046
 1897TIP3   OH227181   0.618   5.507   5.869  0.0460 -0.0878 -0.5108
 1897TIP3    H127182   0.631   5.601   5.884  1.3713 -0.5702  1.4920
 1897TIP3    H227183   0.664   5.489   5.787 -2.4931  1.4982 -2.3747
 1898TIP3   OH227184   4.412   0.616  12.161 -0.3445  0.1623  0.2521
 1898TIP3    H127185   4.489   0.628  12.106 -1.8145 -1.0994 -2.1502
 1898TIP3    H227186   4.398   0.701  12.203  1.5644  0.7633 -0.2909
 1899TIP3   OH227187   4.662   3.439  16.559 -0.7170 -0.2161 -0.2806
 1899TIP3    H127188   4.640   3.470  16.471  0.4942 -1.7962 -1.1734
 1899TIP3    H227189   4.750   3.402  16.551 -0.7193 -0.6848  1.5135
 1900TIP3   OH227190   6.085   5.410   5.265  0.6370  0.9719 -0.0040
 1900TIP3    H127191   6.106   5.408   5.172  0.2210  0.9770 -0.0974
 1900TIP3    H227192   6.170   5.421   5.309  0.9204  0.1347 -0.3434
 1901TIP3   OH227193   4.346   4.271   0.766  0.1388  0.4284  0.1681
 1901TIP3    H127194   4.430   4.298   0.803 -0.1121 -0.1049  1.1601
 1901TIP3    H227195   4.367   4.238   0.678  1.1486 -0.7865  0.8431
 1902TIP3   OH227196   0.035   3.842  13.363 -0.3804 -0.1063  0.3419
 1902TIP3    H127197   0.072   3.795  13.438 -1.5616  0.3629  1.2324
 1902TIP3    H227198  -0.014   3.915  13.401  0.3415  1.0959 -0.9627
 1903TIP3   OH227199   1.992   4.433  12.263  0.5431 -0.0213 -0.1608
 1903TIP3    H127200   2.003   4.510  12.206  1.1728  1.8682  2.4064
 1903TIP3    H227201   1.899   4.434  12.286  1.0187  1.5696  1.9208
 1904TIP3   OH227202   3.875   4.281  12.455 -0.0956  0.0276  0.1290
 1904TIP3    H127203   3.880   4.335  12.376 -0.7146  0.3011  0.2684
 1904TIP3    H227204   3.794   4.309  12.498 -1.1182 -1.9066 -0.4466
 1905TIP3   OH227205   3.750   4.706  12.282 -0.3704 -0.5570 -0.4759
 1905TIP3    H127206   3.765   4.740  12.370 -1.2007  2.3765 -1.4132
 1905TIP3    H227207   3.788   4.618  12.283  2.0607  0.4617  1.9951
 1906TIP3   OH227208   2.863   0.642  15.902 -0.2549  0.1784 -0.2889
 1906TIP3    H127209   2.953   0.616  15.924 -0.2248  0.0490 -0.5563
 1906TIP3    H227210   2.815   0.559  15.896 -1.0345  0.3701  2.5355
 1907TIP3   OH227211   6.322   5.533  11.353 -0.0031 -0.4512  0.0378
 1907TIP3    H127212   6.379   5.607  11.333 -2.1588  1.2321 -0.0991
 1907TIP3    H227213   6.269   5.521  11.274 -0.7761 -1.0919  0.6450
 1908TIP3   OH227214   5.104   4.986  16.174  0.2016  0.1825 -0.0798
 1908TIP3    H127215   5.015   5.020  16.168  0.1290  0.3037  1.4141
 1908TIP3    H227216   5.157   5.061  16.198  0.4734 -0.1729  0.4537
 1909TIP3   OH227217   2.032   3.842  11.402 -0.4326  0.3240  0.1653
 1909TIP3    H127218   2.117   3.808  11.428 -0.4002 -0.4740 -0.9489
 1909TIP3    H227219   2.050   3.929  11.367 -0.0248  0.0285 -0.3722
 1910TIP3   OH227220   6.059   1.615   3.785  0.0401 -0.1938  0.6475
 1910TIP3    H127221   5.989   1.576   3.837  0.5900 -2.7137 -0.4249
 1910TIP3    H227222   6.129   1.550   3.787  0.9036  0.6409 -1.3759
 1911TIP3   OH227223   5.563   4.341  15.602 -0.2452  0.5860  0.6313
 1911TIP3    H127224   5.601   4.423  15.633  2.2952 -0.6102  0.7938
 1911TIP3    H227225   5.549   4.290  15.681  0.3333 -0.0166  0.3503
 1912TIP3   OH227226   2.611   4.145  11.007  0.1968  0.1416  0.0958
 1912TIP3    H127227   2.673   4.152  11.080  2.3102 -1.1794 -1.5096
 1912TIP3    H227228   2.633   4.218  10.950  0.9420 -0.8628 -0.9366
 1913TIP3   OH227229   5.120   0.055   4.292  0.3045  0.6492 -0.0363
 1913TIP3    H127230   5.030   0.070   4.264  0.1589  0.2348  0.1966
 1913TIP3    H227231   5.170   0.051   4.211  0.3487  2.3269 -0.1165
 1914TIP3   OH227232   2.122   2.430  13.010  0.1745 -0.1936 -0.1618
 1914TIP3    H127233   2.053   2.379  13.053 -0.9895  0.3655 -1.3647
 1914TIP3    H227234   2.174   2.365  12.963  0.0668 -0.5308  0.1782
 1915TIP3   OH227235   5.483   4.984   3.370 -0.1546  0.6263  0.0112
 1915TIP3    H127236   5.444   5.071   3.368  1.2995  1.3064  0.6535
 1915TIP3    H227237   5.563   4.994   3.423 -0.4318 -1.2715  0.8567
 1916TIP3   OH227238   0.509   2.201  12.969  0.1663 -0.0434  0.4382
 1916TIP3    H127239   0.552   2.154  12.897 -1.3263 -1.3235  0.3672
 1916TIP3    H227240   0.582   2.233  13.022  1.2674  0.0209 -1.0636
 1917TIP3   OH227241   6.499   2.185   4.007 -0.6969 -0.1374  0.5369
 1917TIP3    H127242   6.445   2.192   4.086 -0.3354  0.9851  0.7020
 1917TIP3    H227243   6.471   2.103   3.966 -0.7988 -0.7969  1.8875
 1918TIP3   OH227244   5.024   4.601  10.719  0.6166 -0.3589  0.0515
 1918TIP3    H127245   5.022   4.692  10.751  1.0806 -0.3237 -0.0275
 1918TIP3    H227246   5.092   4.600  10.652 -0.2800 -0.4609 -0.8722
 1919TIP3   OH227247   1.809   3.671  17.219 -0.4233  0.2356 -0.7042
 1919TIP3    H127248   1.750   3.673  17.144 -1.5434 -2.5651  0.0467
 1919TIP3    H227249   1.774   3.737  17.279 -0.9769  0.7345 -1.5657
 1920TIP3   OH227250   0.791   6.488   3.134  0.0962 -0.0394  0.7947
 1920TIP3    H127251   0.783   6.524   3.223  0.6523  2.3181 -0.0730
 1920TIP3    H227252   0.807   6.565   3.079 -0.0361 -1.5058 -1.3219
 1921TIP3   OH227253   4.041   6.420  12.819  0.5416 -0.2891  0.1784
 1921TIP3    H127254   3.952   6.453  12.832  0.5915  0.5612 -1.4646
 1921TIP3    H227255   4.097   6.498  12.823  1.4917 -1.0474  3.2431
 1922TIP3   OH227256   0.255   0.395   5.937  0.3994 -0.3334 -0.3615
 1922TIP3    H127257   0.226   0.465   5.996  1.2868  0.4893 -0.8739
 1922TIP3    H227258   0.186   0.391   5.870 -0.3651 -0.9381  0.4438
 1923TIP3   OH227259   4.654   6.370   6.247 -0.3804 -0.3584 -0.0626
 1923TIP3    H127260   4.649   6.367   6.151 -1.5232 -0.2086 -0.0150
 1923TIP3    H227261   4.682   6.459   6.267 -0.2407 -0.3577 -0.2593
 1924TIP3   OH227262   6.138   5.173   1.221 -0.2768 -0.8288  0.3532
 1924TIP3    H127263   6.154   5.114   1.294 -1.6555 -1.5504  0.1017
 1924TIP3    H227264   6.137   5.260   1.259 -2.1023 -1.2864  1.4031
 1925TIP3   OH227265   6.522   2.589  15.805 -0.8788 -0.1329 -0.3159
 1925TIP3    H127266   6.484   2.506  15.776 -0.1801 -0.6695  0.2702
 1925TIP3    H227267   6.459   2.655  15.777 -2.4884 -1.0385  1.0518
 1926TIP3   OH227268   3.655   4.766   1.679  0.0149  0.1205  0.5021
 1926TIP3    H127269   3.616   4.854   1.681  0.2442  0.3074 -2.1372
 1926TIP3    H227270   3.703   4.762   1.597 -0.7369 -2.8029  0.1404
 1927TIP3   OH227271   1.630   5.646  11.230 -0.3862  0.4588  0.1160
 1927TIP3    H127272   1.710   5.686  11.197  0.8313 -3.2315 -1.6931
 1927TIP3    H227273   1.569   5.649  11.156 -0.2050 -1.1328 -0.1172
 1928TIP3   OH227274   3.077   5.951  11.833  0.5446  0.4233 -0.9192
 1928TIP3    H127275   3.163   5.961  11.874  0.7885 -0.9829 -1.0634
 1928TIP3    H227276   3.096   5.924  11.743 -0.0273  1.7826 -1.4711
 1929TIP3   OH227277   1.383   0.829  15.978 -0.3164  0.3143 -0.0305
 1929TIP3    H127278   1.466   0.804  16.018 -0.6039 -1.1466 -0.3130
 1929TIP3    H227279   1.407   0.872  15.896  0.2055  1.4107  0.6905
 1930TIP3   OH227280   5.616   2.747   6.086  0.5133 -0.5889 -0.8497
 1930TIP3    H127281   5.589   2.765   6.176  0.4217 -2.3442 -0.4891
 1930TIP3    H227282   5.549   2.788   6.032  0.7774  0.8061 -0.1298
 1931TIP3   OH227283   1.730   1.994   1.361  0.6909 -0.4127  0.2198
 1931TIP3    H127284   1.649   2.035   1.330 -0.4205 -1.0847  2.1823
 1931TIP3    H227285   1.768   2.060   1.420  0.0618 -1.2690  1.5972
 1932TIP3   OH227286   3.675   3.328   3.390 -0.0627 -1.1707  0.1672
 1932TIP3    H127287   3.594   3.283   3.413  0.1502 -1.3127  0.6572
 1932TIP3    H227288   3.648   3.418   3.372 -0.3567 -1.2613  0.1502
 1933TIP3   OH227289   6.153   0.256  17.013 -0.3275 -0.2672  0.1158
 1933TIP3    H127290   6.176   0.295  16.928  2.2232 -0.3362  0.7343
 1933TIP3    H227291   6.236   0.254  17.062 -1.3062 -2.3366  1.7701
 1934TIP3   OH227292   3.283   5.046  11.522  0.6525 -0.7907  0.6786
 1934TIP3    H127293   3.229   4.971  11.499  2.0288 -1.6729  0.2842
 1934TIP3    H227294   3.253   5.116  11.463 -1.6157 -0.5768  2.0307
 1935TIP3   OH227295   1.947   0.029  10.547 -0.0982 -0.2252 -0.1274
 1935TIP3    H127296   1.862  -0.011  10.563  0.0773 -0.7152 -0.4212
 1935TIP3    H227297   1.941   0.063  10.458  0.6838 -1.9767 -0.8662
 1936TIP3   OH227298   1.543   6.240  16.629  0.5164  0.2195  0.5021
 1936TIP3    H127299   1.564   6.194  16.547  0.6918 -2.1429  1.8282
 1936TIP3    H227300   1.623   6.233  16.680 -0.1076  0.2840  1.4895
 1937TIP3   OH227301   2.202   1.613  11.879 -0.4571 -0.0932 -0.1615
 1937TIP3    H127302   2.149   1.686  11.847 -1.5670 -0.6910  0.3016
 1937TIP3    H227303   2.144   1.537  11.875  0.0490 -0.5762  1.2396
 1938TIP3   OH227304   1.997   4.415   3.830  0.1252  0.0834  0.2711
 1938TIP3    H127305   2.043   4.388   3.750  0.9082  0.9090  0.4195
 1938TIP3    H227306   2.068   4.438   3.891 -0.4776  0.6706  0.7605
 1939TIP3   OH227307   5.590   0.947  11.599  0.2854  0.4834 -0.7646
 1939TIP3    H127308   5.658   0.935  11.533  0.2485 -0.6740 -0.6082
 1939TIP3    H227309   5.567   0.858  11.626 -0.3537  0.9138  0.1407
 1940TIP3   OH227310   2.479   0.943  16.426  0.3691 -0.0437 -0.5116
 1940TIP3    H127311   2.503   0.898  16.345  0.8918  1.4603 -1.2138
 1940TIP3    H227312   2.561   0.982  16.457 -0.0404  0.2719  0.1752
 1941TIP3   OH227313   1.795   3.315   1.855  0.6523  0.1386  0.4604
 1941TIP3    H127314   1.858   3.317   1.928  0.1009 -1.3116  0.9975
 1941TIP3    H227315   1.810   3.231   1.812  1.8912  1.5469 -1.9691
 1942TIP3   OH227316   6.239   1.417   2.646 -0.7254  0.3333  0.2929
 1942TIP3    H127317   6.281   1.493   2.688  2.0278 -0.4351 -0.9437
 1942TIP3    H227318   6.281   1.412   2.560 -1.2143 -2.3081  0.1841
 1943TIP3   OH227319   3.022   6.448   5.577 -0.0771 -0.1652 -0.3249
 1943TIP3    H127320   3.081   6.395   5.523  1.9097  0.4447  1.1619
 1943TIP3    H227321   3.038   6.538   5.547 -1.1213 -0.1065 -0.7040
 1944TIP3   OH227322   1.035   2.198  14.847  0.1690  0.2494  0.2074
 1944TIP3    H127323   1.053   2.141  14.772  1.7713 -1.7565  2.0353
 1944TIP3    H227324   1.108   2.260  14.849  0.8769 -0.5798  0.8705
 1945TIP3   OH227325   6.162   2.260   4.555  0.2873  0.0737  0.3610
 1945TIP3    H127326   6.103   2.260   4.480  0.9419 -0.9340 -0.1625
 1945TIP3    H227327   6.159   2.171   4.588  0.0556  0.4975  1.4969
 1946TIP3   OH227328   2.693   4.367   2.560  0.8915  0.2762 -0.2907
 1946TIP3    H127329   2.602   4.377   2.589  0.8694  0.1745 -0.3223
 1946TIP3    H227330   2.745   4.373   2.640  0.8068 -0.3301 -0.1844
 1947TIP3   OH227331   2.675   4.464  15.865 -0.0398 -0.4231 -0.1672
 1947TIP3    H127332   2.646   4.393  15.922 -1.5774  1.0337  0.9374
 1947TIP3    H227333   2.621   4.455  15.787 -2.9241  1.6732  1.4744
 1948TIP3   OH227334   3.557   2.227  12.352  0.7675 -0.5597  0.4416
 1948TIP3    H127335   3.621   2.159  12.374  2.6179  1.2068  0.7125
 1948TIP3    H227336   3.508   2.190  12.279  0.8011 -2.7327  1.4823
 1949TIP3   OH227337   2.986   3.867  14.277 -0.8521  0.2648  0.0940
 1949TIP3    H127338   3.080   3.849  14.285 -0.7430  0.9233  0.3203
 1949TIP3    H227339   2.951   3.849  14.364 -1.4119 -2.6494 -0.6715
 1950TIP3   OH227340   6.799   2.152   0.864 -0.5074 -0.0843 -0.0139
 1950TIP3    H127341   6.785   2.240   0.897 -0.8879 -0.7721  1.6976
 1950TIP3    H227342   6.874   2.119   0.912  0.2010 -0.3760 -1.3022
 1951TIP3   OH227343   4.343   1.688   3.392 -0.0129  0.3314 -0.4418
 1951TIP3    H127344   4.395   1.727   3.462  1.4787 -1.3358 -0.5822
 1951TIP3    H227345   4.362   1.741   3.315  1.9380 -0.5764 -0.6156
 1952TIP3   OH227346   5.689   2.840  14.451  0.0789  0.0209 -0.0578
 1952TIP3    H127347   5.705   2.935  14.452  0.7085 -0.0570 -1.3000
 1952TIP3    H227348   5.610   2.828  14.504 -0.0242  1.2476  0.0782
 1953TIP3   OH227349   4.781   4.052  15.676 -0.2087  0.3110 -0.2303
 1953TIP3    H127350   4.722   4.006  15.616 -1.9789  0.8364  1.0564
 1953TIP3    H227351   4.813   4.127  15.625 -0.1461 -0.3415 -1.1602
 1954TIP3   OH227352   1.250   0.446  14.344 -0.3011  0.5329  0.4926
 1954TIP3    H127353   1.275   0.441  14.252 -0.9218  1.0242  0.2941
 1954TIP3    H227354   1.309   0.385  14.389  0.1730  0.4884 -0.1918
 1955TIP3   OH227355   4.038   0.994  12.940 -0.4852  0.3159  0.6541
 1955TIP3    H127356   4.124   1.024  12.912 -0.7816 -0.2705 -0.8840
 1955TIP3    H227357   4.031   0.904  12.908 -1.7327  0.4134  0.6214
 1956TIP3   OH227358   3.505   5.010   6.073  0.3967  0.0346  0.1166
 1956TIP3    H127359   3.540   4.935   6.121  0.9217 -0.0390 -0.3754
 1956TIP3    H227360   3.414   5.018   6.103  0.4846 -0.4956  0.5284
 1957TIP3   OH227361   3.784   1.418   3.529  0.4010 -0.2663  0.2305
 1957TIP3    H127362   3.713   1.356   3.545 -1.4426  1.2502 -1.7746
 1957TIP3    H227363   3.814   1.399   3.440 -0.8541  2.2869 -0.7992
 1958TIP3   OH227364   5.746   3.045  10.585  0.2300 -0.1843  1.0594
 1958TIP3    H127365   5.818   3.043  10.648  0.7468 -0.0687  0.4841
 1958TIP3    H227366   5.759   2.966  10.532  0.3983  0.2511  0.4489
 1959TIP3   OH227367   3.731   3.996   4.636  0.0026 -0.1332 -0.0933
 1959TIP3    H127368   3.706   3.912   4.675  0.4112 -0.3926 -0.3834
 1959TIP3    H227369   3.764   3.973   4.549 -0.3589  0.3799 -0.3696
 1960TIP3   OH227370   3.106   0.019  12.645 -0.5536 -0.5729 -0.1161
 1960TIP3    H127371   3.132   0.075  12.571 -0.7818 -0.9020 -0.4505
 1960TIP3    H227372   3.034   0.066  12.686  0.5239  0.3061  0.7704
 1961TIP3   OH227373   2.211   3.565   0.846  0.4468 -0.0052  0.3601
 1961TIP3    H127374   2.269   3.640   0.831  2.7073 -1.7583  0.0412
 1961TIP3    H227375   2.124   3.597   0.820  1.1894  2.7526  1.0513
 1962TIP3   OH227376   3.243   6.170  12.009 -0.1364  0.4353 -0.0278
 1962TIP3    H127377   3.332   6.154  12.041  0.0201 -0.3259 -0.8271
 1962TIP3    H227378   3.256   6.211  11.923 -0.5590  0.5810 -0.0194
 1963TIP3   OH227379   2.813   0.027   4.937  0.0155  0.0563 -0.5110
 1963TIP3    H127380   2.789  -0.056   4.979  0.5572 -0.3080 -0.9184
 1963TIP3    H227381   2.730   0.065   4.910 -0.4064  0.5764  1.4275
 1964TIP3   OH227382   4.280   0.585  16.053  0.1270  0.7687  0.1310
 1964TIP3    H127383   4.318   0.669  16.025 -1.4353  1.1016 -1.0486
 1964TIP3    H227384   4.236   0.551  15.975 -1.5983  0.1726  1.3337
 1965TIP3   OH227385   2.082   4.636   1.722  0.0535  0.3126  0.2407
 1965TIP3    H127386   2.146   4.594   1.779 -0.7247 -1.7290 -0.3325
 1965TIP3    H227387   2.000   4.631   1.771  0.3501  3.1468  1.0859
 1966TIP3   OH227388   2.212   0.497  12.720 -0.0051 -0.1467  0.2595
 1966TIP3    H127389   2.167   0.528  12.641  0.2185 -0.2558  0.0878
 1966TIP3    H227390   2.160   0.533  12.792 -0.2334 -0.0772  0.0631
 1967TIP3   OH227391   4.287   0.189  13.929 -0.5393 -0.3159 -0.4132
 1967TIP3    H127392   4.287   0.284  13.942  1.2270 -0.6143  2.1578
 1967TIP3    H227393   4.232   0.156  14.000  1.1996 -1.3673  0.4824
 1968TIP3   OH227394   3.723   0.491   2.670  0.8134  0.0041 -0.2756
 1968TIP3    H127395   3.732   0.463   2.579 -0.7099  1.1845 -0.8189
 1968TIP3    H227396   3.719   0.587   2.666 -1.4396  0.0120  0.7850
 1969TIP3   OH227397   0.627   3.273   1.143  0.0581  0.1515 -0.1688
 1969TIP3    H127398   0.596   3.209   1.207 -0.4564  0.3029 -0.2616
 1969TIP3    H227399   0.653   3.349   1.195 -0.1977  0.2091 -0.1201
 1970TIP3   OH227400   1.688   3.534  16.837 -0.3748 -0.2097  0.0773
 1970TIP3    H127401   1.630   3.525  16.761 -0.5157 -0.5278  0.2198
 1970TIP3    H227402   1.772   3.499  16.808 -0.6039 -0.9276  0.2646
 1971TIP3   OH227403   3.338   5.977   5.108  0.0614  0.3109  0.7675
 1971TIP3    H127404   3.279   5.906   5.084  0.8338 -0.9128  2.3697
 1971TIP3    H227405   3.393   5.989   5.030  0.0187 -0.9481  0.5262
 1972TIP3   OH227406   3.503   3.004  12.307 -0.1391  0.2269 -0.7133
 1972TIP3    H127407   3.475   2.913  12.300 -0.5905  0.1363  1.8278
 1972TIP3    H227408   3.426   3.055  12.281 -1.1688 -0.0922  1.5837
 1973TIP3   OH227409   0.876   2.959  15.626  0.0293  0.1290 -0.1911
 1973TIP3    H127410   0.816   2.885  15.621 -0.2155  0.3458 -0.4948
 1973TIP3    H227411   0.828   3.026  15.675 -0.0464  0.3604 -0.5720
 1974TIP3   OH227412   3.131   4.491  11.460 -0.2530  0.6299  0.4014
 1974TIP3    H127413   3.113   4.468  11.369 -0.4076 -0.8384  0.8033
 1974TIP3    H227414   3.053   4.463  11.507 -0.6017  2.2905  0.8587
 1975TIP3   OH227415   4.401   1.220  14.209  0.1403 -0.2858  0.1093
 1975TIP3    H127416   4.374   1.173  14.288 -1.6915  1.4437  0.5496
 1975TIP3    H227417   4.358   1.175  14.137 -0.2467 -0.3168  0.3607
 1976TIP3   OH227418   4.135   4.223   4.099 -0.2359  0.6994 -0.1099
 1976TIP3    H127419   4.146   4.317   4.112 -0.0272  0.5915  0.4925
 1976TIP3    H227420   4.166   4.183   4.180 -3.2177  0.2934  0.9197
 1977TIP3   OH227421   3.163   3.198  12.593 -0.7600  0.6590  0.0022
 1977TIP3    H127422   3.216   3.277  12.580  0.0975  0.7727  3.5924
 1977TIP3    H227423   3.073   3.227  12.580 -0.1804  1.1520 -3.1836
 1978TIP3   OH227424   6.149   5.196   1.852  0.4341  0.5259  0.6460
 1978TIP3    H127425   6.099   5.147   1.918  1.6068  1.1911  2.0672
 1978TIP3    H227426   6.218   5.136   1.826  0.7588  0.7409  1.0068
 1979TIP3   OH227427   3.499   6.415   3.356  0.6468 -0.4729 -0.6791
 1979TIP3    H127428   3.501   6.453   3.268  3.7642 -0.7856 -0.8170
 1979TIP3    H227429   3.525   6.324   3.343 -0.6805 -1.0073  0.3749
 1980TIP3   OH227430   4.849   1.632   5.634  0.0568 -0.4418 -0.2874
 1980TIP3    H127431   4.878   1.699   5.573 -0.3125  0.1780  0.2092
 1980TIP3    H227432   4.861   1.671   5.720  0.7719 -1.3906  0.0480
 1981TIP3   OH227433   3.050   6.615  15.414 -0.2195  0.4051 -0.7420
 1981TIP3    H127434   3.090   6.694  15.377  0.2443  1.4071  1.8201
 1981TIP3    H227435   3.112   6.545  15.392  0.4972  1.1278 -1.0781
 1982TIP3   OH227436   3.727   6.301   3.560 -0.3987 -0.5024 -0.6035
 1982TIP3    H127437   3.753   6.349   3.481  1.5086 -0.2988  0.1247
 1982TIP3    H227438   3.660   6.239   3.529  1.3375 -1.4151 -2.6587
 1983TIP3   OH227439   2.393   4.243   3.511 -0.3324  0.3682  0.5196
 1983TIP3    H127440   2.414   4.251   3.418 -1.5231  0.6112  0.2543
 1983TIP3    H227441   2.466   4.194   3.549  0.5847  1.0543 -0.3732
 1984TIP3   OH227442   4.839   4.091  11.927 -0.1514  1.0415 -0.2036
 1984TIP3    H127443   4.925   4.075  11.966 -0.2140  0.2981 -0.3629
 1984TIP3    H227444   4.856   4.098  11.833 -0.3512  0.2232 -0.3049
 1985TIP3   OH227445   1.512   6.348   2.921  0.2459 -0.7215 -0.2744
 1985TIP3    H127446   1.558   6.264   2.911  1.1385 -0.1723 -0.8551
 1985TIP3    H227447   1.448   6.349   2.850 -0.3001 -1.2606  0.2133
 1986TIP3   OH227448   1.381   4.227   0.974 -0.0328 -0.4912  0.6768
 1986TIP3    H127449   1.375   4.318   1.003  0.4642 -0.2696  0.1000
 1986TIP3    H227450   1.473   4.215   0.949 -0.3289 -0.8277 -0.2793
 1987TIP3   OH227451   5.489   3.130   4.129  0.5656  0.2629  0.5703
 1987TIP3    H127452   5.503   3.131   4.224  0.5016  1.0592  0.5734
 1987TIP3    H227453   5.427   3.201   4.113 -0.8494 -1.0444  0.1417
 1988TIP3   OH227454   0.993   6.082  15.911  0.1458  0.1116  0.5167
 1988TIP3    H127455   0.908   6.084  15.867  0.9241  2.1752 -0.9483
 1988TIP3    H227456   0.979   6.131  15.992  0.2993  1.6731 -0.3976
 1989TIP3   OH227457   0.451   4.892  15.890 -0.0110 -0.2309  0.1132
 1989TIP3    H127458   0.457   4.803  15.855 -1.2557 -1.1219  2.0978
 1989TIP3    H227459   0.359   4.904  15.911  0.4003  0.9670  1.2987
 1990TIP3   OH227460   4.200   6.353   6.230 -0.5059  0.0768 -0.6444
 1990TIP3    H127461   4.139   6.419   6.195  0.9726  0.8874 -1.7349
 1990TIP3    H227462   4.193   6.280   6.169 -1.4555 -0.4239  0.0485
 1991TIP3   OH227463   3.260   3.692   5.909  0.2275 -0.7168 -0.1577
 1991TIP3    H127464   3.333   3.734   5.955 -1.0642 -0.8306  2.0762
 1991TIP3    H227465   3.213   3.765   5.869  0.9402 -0.5334 -0.6660
 1992TIP3   OH227466   0.637   1.614  17.195  0.4078  0.1088  0.0899
 1992TIP3    H127467   0.551   1.644  17.168  0.0343 -0.2147  0.8918
 1992TIP3    H227468   0.624   1.580  17.284  0.9831 -1.6054 -0.4529
 1993TIP3   OH227469   4.662   0.399   2.680 -0.4220 -0.3590 -0.0131
 1993TIP3    H127470   4.637   0.318   2.724 -0.7702  0.1231  0.6852
 1993TIP3    H227471   4.753   0.414   2.705 -0.9632  0.5242  1.5033
 1994TIP3   OH227472   0.810   3.415  11.749 -0.4224  0.3646 -0.6868
 1994TIP3    H127473   0.752   3.418  11.673 -0.8975 -3.4004 -0.5703
 1994TIP3    H227474   0.808   3.323  11.777  0.1814  1.5129  3.5226
 1995TIP3   OH227475   6.197   4.402   1.725  0.0413  0.0971 -0.5284
 1995TIP3    H127476   6.199   4.491   1.688  2.8715 -1.0968 -3.4885
 1995TIP3    H227477   6.153   4.350   1.658  2.2431 -1.5043 -0.7767
 1996TIP3   OH227478   5.641   2.238  14.566 -0.0763  0.2060  0.1867
 1996TIP3    H127479   5.606   2.194  14.643 -0.4822 -0.1670 -0.2153
 1996TIP3    H227480   5.736   2.231  14.576 -0.1220 -2.9290 -1.1178
 1997TIP3   OH227481   6.188   4.758   6.534  0.1012 -0.1022  0.3330
 1997TIP3    H127482   6.178   4.767   6.629  2.6853  0.3942  0.5859
 1997TIP3    H227483   6.205   4.847   6.504  2.2141 -0.6582 -0.1958
 1998TIP3   OH227484   3.219   6.160  15.019 -0.3715  0.0160  0.6606
 1998TIP3    H127485   3.168   6.236  14.991  0.1942  0.6291  1.2821
 1998TIP3    H227486   3.182   6.086  14.970 -2.6055  0.2433  1.9345
 1999TIP3   OH227487   1.055   0.233  13.704 -0.8192 -0.1500  0.0460
 1999TIP3    H127488   0.962   0.216  13.719 -0.6192 -1.5069 -0.2099
 1999TIP3    H227489   1.069   0.209  13.612 -1.0023  3.5498 -1.0408
 2000TIP3   OH227490   6.693   0.550   5.914  1.1893 -0.5445 -0.5118
 2000TIP3    H127491   6.674   0.551   6.008 -1.8470 -1.1765 -1.0494
 2000TIP3    H227492   6.777   0.595   5.906  0.5097  1.3976  2.3006
 2001TIP3   OH227493   3.182   3.143  11.631 -0.0980 -0.8132  0.2961
 2001TIP3    H127494   3.259   3.168  11.580 -1.0018  0.4081 -0.4926
 2001TIP3    H227495   3.188   3.195  11.711 -0.2825 -0.4393  0.0710
 2002TIP3   OH227496   6.536   4.364   5.778 -0.0797 -0.4146  0.0515
 2002TIP3    H127497   6.540   4.456   5.751 -0.2857  0.6353  3.4020
 2002TIP3    H227498   6.601   4.320   5.722 -0.3877  1.6244 -1.9910
 2003TIP3   OH227499   4.570   0.026  11.021 -0.5419  0.1780  0.2903
 2003TIP3    H127500   4.647   0.082  11.015 -0.1304 -0.5990 -2.1497
 2003TIP3    H227501   4.509   0.060  10.955 -2.2128  0.6151  2.0000
 2004TIP3   OH227502   2.565   1.455   0.739  0.2975 -0.7011 -0.1536
 2004TIP3    H127503   2.505   1.451   0.814 -1.5874 -2.0155 -1.6803
 2004TIP3    H227504   2.558   1.544   0.707 -0.8246 -0.8339 -0.2959
 2005TIP3   OH227505   5.760   6.720  15.573  0.4993  0.5542  0.2035
 2005TIP3    H127506   5.705   6.707  15.651  1.1167  1.0139  0.7195
 2005TIP3    H227507   5.848   6.729  15.608  0.6970  1.3856 -0.5066
 2006TIP3   OH227508   5.431   5.907  16.556  0.1364  0.2429 -0.1075
 2006TIP3    H127509   5.486   5.954  16.617 -0.0117 -1.3453  1.2927
 2006TIP3    H227510   5.358   5.874  16.609 -0.9288  0.3470 -1.4768
 2007TIP3   OH227511   3.341   0.064  15.340  0.4041 -0.6502 -0.1583
 2007TIP3    H127512   3.435   0.064  15.323  0.0955 -1.5130 -1.9243
 2007TIP3    H227513   3.317   0.157  15.344  0.9605 -0.4306 -1.7870
 2008TIP3   OH227514   4.302   3.710   2.267 -0.5821 -0.2418 -0.5702
 2008TIP3    H127515   4.206   3.712   2.270 -0.5733  1.3083 -0.6515
 2008TIP3    H227516   4.325   3.618   2.279 -2.0369 -0.4188  1.0779
 2009TIP3   OH227517   0.413   3.160  11.150 -0.1601  0.2511  0.7281
 2009TIP3    H127518   0.401   3.073  11.187  1.9015 -0.5529 -0.3968
 2009TIP3    H227519   0.407   3.148  11.055 -1.1831  1.5609  0.6136
 2010TIP3   OH227520   5.116   6.121   4.821  0.0051  0.1318 -0.6691
 2010TIP3    H127521   5.085   6.122   4.912  2.0263  0.8814  0.0266
 2010TIP3    H227522   5.114   6.212   4.794 -0.1823 -0.0424 -1.2538
 2011TIP3   OH227523   1.718   1.955  16.729  0.0151 -0.6424  0.4374
 2011TIP3    H127524   1.735   2.047  16.745  1.3033 -0.7160 -0.3947
 2011TIP3    H227525   1.805   1.917  16.716 -0.5641 -1.7684 -0.2503
 2012TIP3   OH227526   0.954   5.935  16.867  0.7819 -0.0713  0.4051
 2012TIP3    H127527   1.038   5.905  16.833  1.2377  1.9253 -0.2575
 2012TIP3    H227528   0.971   6.022  16.902 -1.2533  0.8771 -0.8439
 2013TIP3   OH227529   2.866   3.679   2.209  0.1264  0.5202 -0.0672
 2013TIP3    H127530   2.946   3.709   2.166  0.8540 -0.1804  0.7670
 2013TIP3    H227531   2.851   3.591   2.173  1.6358 -0.7410  2.2058
 2014TIP3   OH227532   1.010   2.797  12.936  0.4881 -0.6028  0.1156
 2014TIP3    H127533   1.099   2.829  12.951  0.6020 -0.2346 -1.2854
 2014TIP3    H227534   0.966   2.869  12.892  0.6346 -2.1902 -2.7187
 2015TIP3   OH227535   3.774   1.262  14.139 -0.2969  0.5517  0.2927
 2015TIP3    H127536   3.841   1.330  14.149  0.3382 -0.0410  0.1890
 2015TIP3    H227537   3.695   1.309  14.114 -0.7465  1.6040  3.4351
 2016TIP3   OH227538   6.252   3.737   4.239  0.6182 -0.4776  0.4737
 2016TIP3    H127539   6.262   3.741   4.334 -1.7692 -3.5334  0.9304
 2016TIP3    H227540   6.214   3.822   4.215 -0.2909 -0.3075  2.4734
 2017TIP3   OH227541   6.256   0.328   0.633  0.4676 -0.0136  0.1331
 2017TIP3    H127542   6.253   0.418   0.665 -1.2489 -0.3614  1.0310
 2017TIP3    H227543   6.247   0.274   0.712  1.6973 -0.9833 -0.3745
 2018TIP3   OH227544   2.023   1.642  16.531  0.3765  0.2926 -0.3570
 2018TIP3    H127545   1.986   1.558  16.556  0.7331  0.1599 -0.2773
 2018TIP3    H227546   1.976   1.666  16.451 -1.6691  1.3175  1.0860
 2019TIP3   OH227547   5.417   1.295   3.960  0.6446  0.0242 -0.4031
 2019TIP3    H127548   5.341   1.343   3.927  0.7636 -0.2155 -1.0240
 2019TIP3    H227549   5.381   1.215   3.998  0.5719 -0.0023 -0.5304
 2020TIP3   OH227550   1.756   4.074  10.456  0.5230  0.0062  0.3463
 2020TIP3    H127551   1.773   4.046  10.546 -1.0852 -1.6385  0.1707
 2020TIP3    H227552   1.669   4.114  10.459  0.2200 -0.5639 -0.5662
 2021TIP3   OH227553   3.844   5.022   4.795 -0.4631 -0.4064  0.2114
 2021TIP3    H127554   3.789   4.980   4.729  2.0486 -2.9389 -0.3964
 2021TIP3    H227555   3.899   4.951   4.830  0.2108  1.3999  3.0539
 2022TIP3   OH227556   0.506   3.919   4.387  0.6293 -0.3239  0.5417
 2022TIP3    H127557   0.598   3.903   4.366  0.5215 -0.3338  0.0561
 2022TIP3    H227558   0.465   3.832   4.384  0.7653 -0.4212  1.5675
 2023TIP3   OH227559   2.686   4.691   5.333  0.9895 -0.6997  0.2616
 2023TIP3    H127560   2.633   4.769   5.350 -0.0682 -1.4352  0.3858
 2023TIP3    H227561   2.707   4.697   5.240  0.2945 -0.6413  0.1033
 2024TIP3   OH227562   0.828   5.945  12.944  0.1441 -0.4456  0.2817
 2024TIP3    H127563   0.916   5.962  12.912  0.4798 -1.8925  0.4115
 2024TIP3    H227564   0.770   5.970  12.872  0.6052  1.0352  0.3990
 2025TIP3   OH227565   6.258   4.666  13.911 -0.0150 -0.1457  0.4572
 2025TIP3    H127566   6.272   4.589  13.967  0.1614 -1.5654 -1.4921
 2025TIP3    H227567   6.327   4.726  13.936  0.1701 -0.8395  1.6548
 2026TIP3   OH227568   0.940   1.143   3.965  0.2203  0.2770 -0.2071
 2026TIP3    H127569   0.911   1.190   4.043 -0.0037 -0.4221  0.1325
 2026TIP3    H227570   1.035   1.157   3.963  0.2492  0.1404  0.2862
 2027TIP3   OH227571   0.466   1.727   1.741 -0.3810  0.1514  0.1558
 2027TIP3    H127572   0.378   1.706   1.712 -0.0074 -0.0358 -0.8741
 2027TIP3    H227573   0.481   1.671   1.817 -1.1524  0.1935  0.3384
 2028TIP3   OH227574   0.091   1.343  12.045 -0.1309 -0.7538  0.1919
 2028TIP3    H127575   0.115   1.296  11.965 -0.8981 -0.9551  0.0755
 2028TIP3    H227576   0.162   1.324  12.106  0.9623  0.2299 -0.7690
 2029TIP3   OH227577   4.670   2.074  16.514 -0.7968 -0.2357  0.4229
 2029TIP3    H127578   4.706   2.105  16.598 -2.3606  1.3247  0.5558
 2029TIP3    H227579   4.659   2.154  16.462 -1.0009 -1.0546 -0.8111
 2030TIP3   OH227580   4.216   6.699  12.334  0.0409 -0.1486 -0.2208
 2030TIP3    H127581   4.242   6.790  12.322 -0.4632  0.4502  2.9348
 2030TIP3    H227582   4.171   6.676  12.252 -0.6387  2.7138 -0.7030
 2031TIP3   OH227583   1.433   2.678  10.333  0.6495 -0.1779 -0.3586
 2031TIP3    H127584   1.387   2.662  10.415 -0.1998  1.0071 -0.5816
 2031TIP3    H227585   1.526   2.670  10.355  0.3616 -2.0993  0.2137
 2032TIP3   OH227586   3.864   6.350   0.932  0.2151  0.4493 -0.7804
 2032TIP3    H127587   3.818   6.419   0.980  1.0315 -0.1497  0.9088
 2032TIP3    H227588   3.847   6.369   0.840 -0.5527  2.2104 -0.2914
 2033TIP3   OH227589   2.022   5.106  15.944 -0.0356  0.2122  0.2870
 2033TIP3    H127590   2.092   5.112  16.008 -1.8021  0.5230  2.2361
 2033TIP3    H227591   2.048   5.034  15.886  2.3935  1.0323  0.3109
 2034TIP3   OH227592   5.402   1.479  13.019  0.4211 -0.0898 -0.5682
 2034TIP3    H127593   5.474   1.525  13.061  0.7768 -1.7348  0.6517
 2034TIP3    H227594   5.444   1.412  12.965 -0.1062  0.8219 -2.1763
 2035TIP3   OH227595   4.241   5.495  14.399 -0.0539 -0.3196 -0.3537
 2035TIP3    H127596   4.330   5.463  14.385 -0.0801 -0.5506  0.0240
 2035TIP3    H227597   4.252   5.587  14.423  0.0110  0.0244 -1.6342
 2036TIP3   OH227598   5.597   6.497  17.041  0.3081  0.5669  0.2788
 2036TIP3    H127599   5.510   6.505  17.000  0.2696  1.5642  0.5386
 2036TIP3    H227600   5.634   6.585  17.034  1.0356  0.2938  0.7648
 2037TIP3   OH227601   3.027   2.042   0.378  0.0472 -0.3039 -0.4428
 2037TIP3    H127602   3.048   2.078   0.464 -0.2100  1.2489 -1.0241
 2037TIP3    H227603   3.032   1.947   0.390  1.0824 -0.0749  1.0096
 2038TIP3   OH227604   3.666   2.841   2.229  0.0908  0.1961  0.4439
 2038TIP3    H127605   3.586   2.860   2.179  0.6392  3.2154  0.6570
 2038TIP3    H227606   3.634   2.797   2.307 -0.8609 -3.7826 -2.0119
 2039TIP3   OH227607   0.723   1.353  11.952 -0.0097 -0.3024  0.1400
 2039TIP3    H127608   0.776   1.415  11.902  0.0592  0.3585  1.0320
 2039TIP3    H227609   0.748   1.267  11.917  0.4707  0.1090 -0.5467
 2040TIP3   OH227610   4.539   3.177   4.179 -0.4371 -0.2233 -0.0836
 2040TIP3    H127611   4.607   3.139   4.235 -0.3744  0.2638  0.1691
 2040TIP3    H227612   4.488   3.233   4.237 -0.3264  0.3391 -0.5318
 2041TIP3   OH227613   5.887   3.618  16.461  0.0470 -0.8245 -0.3192
 2041TIP3    H127614   5.943   3.578  16.528  1.3767 -0.3414 -1.1339
 2041TIP3    H227615   5.845   3.691  16.506  1.2418 -0.2523 -0.1011
 2042TIP3   OH227616   3.162   4.435  12.516 -0.2795 -0.1388 -0.1446
 2042TIP3    H127617   3.078   4.389  12.516 -0.1696 -0.3385 -0.7526
 2042TIP3    H227618   3.172   4.468  12.427  0.0862  0.2564  0.0404
 2043TIP3   OH227619   3.150   1.558   3.389 -0.5844 -0.4816  0.1133
 2043TIP3    H127620   3.160   1.555   3.484 -0.9393  1.1965  0.2136
 2043TIP3    H227621   3.229   1.517   3.355 -0.6333 -1.4576  1.1267
 2044TIP3   OH227622   0.625   2.577   2.368 -0.4988 -0.3556 -0.4791
 2044TIP3    H127623   0.552   2.545   2.422 -0.5005  1.2049  0.4636
 2044TIP3    H227624   0.582   2.619   2.293 -0.5387 -0.2620 -0.4029
 2045TIP3   OH227625   2.030   3.947   4.654  0.2016 -0.3011  0.0833
 2045TIP3    H127626   2.091   3.999   4.706 -0.6620 -2.5066  3.4758
 2045TIP3    H227627   2.065   3.858   4.659 -0.9245 -0.8549 -1.6080
 2046TIP3   OH227628   5.456   0.268  12.894  0.3777  0.1410  0.2076
 2046TIP3    H127629   5.422   0.331  12.830  0.7261  0.6337  0.5091
 2046TIP3    H227630   5.379   0.216  12.919  0.1564  0.2230 -0.2940
 2047TIP3   OH227631   3.066   0.447  12.320  0.0463  0.2491  0.1324
 2047TIP3    H127632   2.997   0.511  12.339 -1.4177 -1.0852 -0.5567
 2047TIP3    H227633   3.123   0.491  12.257 -0.4046  1.2102  0.3769
 2048TIP3   OH227634   1.930   4.202   5.145  0.2631 -0.4046 -0.2970
 2048TIP3    H127635   2.002   4.139   5.152  0.7675  0.0691 -1.1171
 2048TIP3    H227636   1.879   4.189   5.225  1.5616 -0.3832  0.5645
 2049TIP3   OH227637   0.608   2.101   2.733  0.3580 -0.0793  0.0421
 2049TIP3    H127638   0.633   2.160   2.804 -1.6976  0.1475  0.6109
 2049TIP3    H227639   0.591   2.018   2.776 -1.0156  0.0920 -0.1601
 2050TIP3   OH227640   2.685   0.943  14.133 -0.2059  0.5517  0.2056
 2050TIP3    H127641   2.682   0.848  14.121  0.1268  0.4395  0.9601
 2050TIP3    H227642   2.774   0.968  14.109 -0.6121  0.8355 -1.0598
 2051TIP3   OH227643   0.680   0.888   1.272 -0.0023  0.5385 -0.2947
 2051TIP3    H127644   0.620   0.912   1.201 -0.0445 -0.0826 -0.4691
 2051TIP3    H227645   0.707   0.799   1.252  0.0540  0.3880  0.4223
 2052TIP3   OH227646   1.763   0.412   4.001 -0.4280  0.4143 -0.2528
 2052TIP3    H127647   1.829   0.478   3.978  0.4306 -0.9701 -1.8880
 2052TIP3    H227648   1.809   0.350   4.058 -0.3015 -0.5476 -1.3843
 2053TIP3   OH227649   6.472   4.728  15.043 -0.0221  0.0841 -0.1584
 2053TIP3    H127650   6.453   4.680  15.124  1.4339  0.1641  0.2519
 2053TIP3    H227651   6.561   4.762  15.056  0.7616 -1.0295 -2.3499
 2054TIP3   OH227652   0.334   4.317  11.847  0.0683 -0.6990 -0.5042
 2054TIP3    H127653   0.388   4.239  11.861 -1.3408 -1.1526  2.8396
 2054TIP3    H227654   0.346   4.369  11.926 -1.8791  0.7335 -1.1173
 2055TIP3   OH227655   5.350   2.591   1.940 -0.4739  0.6600  0.2359
 2055TIP3    H127656   5.341   2.666   1.882  0.5685  2.6192  2.4859
 2055TIP3    H227657   5.261   2.556   1.947 -1.2516  2.5210  0.1865
 2056TIP3   OH227658   1.983   0.163  13.048  0.6439  0.1288  0.0786
 2056TIP3    H127659   1.902   0.208  13.072  0.6351  0.1885 -0.0626
 2056TIP3    H227660   1.968   0.132  12.959 -0.1134 -1.9338  0.9079
 2057TIP3   OH227661   5.002   2.295  14.569 -0.1269 -0.6314  0.5896
 2057TIP3    H127662   4.926   2.311  14.626 -0.6381  0.7925 -0.4613
 2057TIP3    H227663   4.964   2.263  14.487  0.4853 -1.0383  0.4656
 2058TIP3   OH227664   5.431   3.048  16.010  0.3849  0.4367  0.0716
 2058TIP3    H127665   5.406   3.109  15.941  0.1108 -0.6662 -0.8217
 2058TIP3    H227666   5.438   2.963  15.966 -0.5818 -0.4318  1.5342
 2059TIP3   OH227667   2.056   5.598  16.296  0.3253  0.2648 -0.2008
 2059TIP3    H127668   2.009   5.573  16.376  3.2595 -0.9068  1.2311
 2059TIP3    H227669   2.047   5.522  16.238  0.4258  0.0552  0.0596
 2060TIP3   OH227670   5.385   4.060   0.256 -0.4811 -0.0690 -0.3104
 2060TIP3    H127671   5.448   4.133   0.257 -1.0277  0.4150 -0.8531
 2060TIP3    H227672   5.415   4.004   0.185  0.4357 -0.8226  0.6536
 2061TIP3   OH227673   2.067   0.184  12.667 -0.4942  0.2785 -0.1760
 2061TIP3    H127674   2.050   0.261  12.612 -1.3709 -0.6343 -1.2177
 2061TIP3    H227675   1.981   0.161  12.703 -0.4515 -0.8998 -0.8050
 2062TIP3   OH227676   3.648   1.468  13.405  0.0189  0.6320 -0.1237
 2062TIP3    H127677   3.557   1.470  13.437  0.2271 -0.9749  0.6249
 2062TIP3    H227678   3.681   1.556  13.422 -1.3181  1.1562 -0.1485
 2063TIP3   OH227679   2.442   0.680  17.012 -0.0647  0.0148 -0.0018
 2063TIP3    H127680   2.375   0.645  17.070 -0.9667 -0.0229 -1.0450
 2063TIP3    H227681   2.525   0.653  17.051 -0.6159  1.0829  1.9598
 2064TIP3   OH227682   0.353   1.177   4.385 -0.1382  0.3243 -0.1536
 2064TIP3    H127683   0.351   1.200   4.292 -0.3799 -1.6907 -0.6723
 2064TIP3    H227684   0.261   1.164   4.409  0.1016 -2.2084 -0.4586
 2065TIP3   OH227685   6.743   0.040   4.708 -0.2035 -0.2203  0.1982
 2065TIP3    H127686   6.826   0.050   4.756 -0.7879  0.1208  1.1596
 2065TIP3    H227687   6.719   0.130   4.684  1.1568 -0.5414 -2.6496
 2066TIP3   OH227688   4.370   5.005  15.141  0.5521  0.1696  0.2910
 2066TIP3    H127689   4.440   5.070  15.145 -0.5439  1.4750 -1.1017
 2066TIP3    H227690   4.290   5.056  15.129 -0.2581 -1.4673 -1.5316
 2067TIP3   OH227691   4.395   6.176  12.765 -0.1365  0.1412  0.3730
 2067TIP3    H127692   4.381   6.244  12.831  1.6065  0.2978  0.5878
 2067TIP3    H227693   4.309   6.133  12.758 -0.1534 -0.4609  3.3821
 2068TIP3   OH227694   4.220   1.553   3.164  0.3445 -0.1266 -0.9118
 2068TIP3    H127695   4.131   1.528   3.188  0.3059  1.3503  0.5531
 2068TIP3    H227696   4.251   1.605   3.238  1.8581  0.7201 -2.1174
 2069TIP3   OH227697   6.200   4.603  12.373 -0.0743  0.5743 -0.0200
 2069TIP3    H127698   6.138   4.606  12.300  1.9199 -0.2363 -1.7989
 2069TIP3    H227699   6.216   4.695  12.395 -0.4988  0.8318 -0.7577
 2070TIP3   OH227700   2.477   5.952  13.604 -0.1823 -0.2847  0.2770
 2070TIP3    H127701   2.453   6.041  13.632  0.9159 -0.2702  1.2178
 2070TIP3    H227702   2.433   5.941  13.520 -0.0766  1.2736 -0.0002
 2071TIP3   OH227703   6.379   6.429   3.680 -0.2956  0.4257  0.2898
 2071TIP3    H127704   6.315   6.367   3.645 -0.2815  0.3114  0.4619
 2071TIP3    H227705   6.343   6.455   3.765  1.0932 -1.5613  1.5495
 2072TIP3   OH227706   5.202   1.848  16.644 -0.0232  0.4999 -0.5524
 2072TIP3    H127707   5.145   1.814  16.575  0.0317  1.1845 -0.9452
 2072TIP3    H227708   5.226   1.771  16.696 -1.5522  0.2397 -0.1926
 2073TIP3   OH227709   6.501   4.498  16.851 -0.4836 -0.0867 -0.2659
 2073TIP3    H127710   6.415   4.460  16.833  0.0427 -1.3703 -0.1556
 2073TIP3    H227711   6.517   4.557  16.777 -1.5617  0.3604 -0.1580
 2074TIP3   OH227712   3.480   4.035   2.481 -0.4595  0.1164 -0.2122
 2074TIP3    H127713   3.513   4.117   2.516 -2.0054  1.3390 -1.5474
 2074TIP3    H227714   3.548   4.004   2.422 -0.0535  0.6501 -0.0225
 2075TIP3   OH227715   3.444   4.888  14.747 -0.0220 -0.1416  0.0480
 2075TIP3    H127716   3.408   4.820  14.803 -0.9730  0.3493  0.0265
 2075TIP3    H227717   3.539   4.878  14.756 -0.1463 -1.8550 -0.4120
 2076TIP3   OH227718   1.916   6.752   5.610 -0.6404  0.3416  0.2232
 2076TIP3    H127719   1.919   6.675   5.553 -1.4004 -0.9327  1.8616
 2076TIP3    H227720   1.974   6.815   5.567  3.1762 -2.5529  0.8409
 2077TIP3   OH227721   1.498   6.777   4.669 -0.2762  0.0933 -0.0761
 2077TIP3    H127722   1.530   6.864   4.645 -1.7849 -0.2586 -3.6695
 2077TIP3    H227723   1.465   6.787   4.758 -1.2277  3.4246 -0.7372
 2078TIP3   OH227724   6.491   1.447  11.592 -0.1827 -0.8656  0.6988
 2078TIP3    H127725   6.497   1.353  11.574 -1.6166 -0.5579 -1.5331
 2078TIP3    H227726   6.406   1.457  11.636 -0.3165 -0.5531  0.3740
 2079TIP3   OH227727   6.313   2.298  14.315  0.3110  0.4297  0.0499
 2079TIP3    H127728   6.238   2.251  14.278 -0.6072  1.8440  0.0924
 2079TIP3    H227729   6.284   2.327  14.401  0.8432  1.1589 -0.0136
 2080TIP3   OH227730   3.226   0.986  13.745 -0.0241  0.3420 -0.0432
 2080TIP3    H127731   3.133   0.967  13.729 -0.8143  2.3961  1.7738
 2080TIP3    H227732   3.250   1.046  13.675 -0.2947  0.4188 -0.0738
 2081TIP3   OH227733   4.944   0.352   4.334  0.2478 -0.2855  0.0045
 2081TIP3    H127734   4.933   0.257   4.329  2.3194 -0.6089  1.2024
 2081TIP3    H227735   4.861   0.383   4.372 -0.4543 -1.6053 -0.4177
 2082TIP3   OH227736   3.947   2.716   4.543 -0.0793 -0.2283 -0.4043
 2082TIP3    H127737   3.937   2.688   4.452 -0.5438  0.0051 -0.4269
 2082TIP3    H227738   4.037   2.746   4.550 -0.1081 -0.0435 -0.8419
 2083TIP3   OH227739   3.645   1.948  13.339  0.5359 -0.3871 -0.0806
 2083TIP3    H127740   3.648   2.036  13.301  0.6823  0.2164  1.2782
 2083TIP3    H227741   3.581   1.901  13.285 -0.7362  1.0317  0.1280
 2084TIP3   OH227742   0.171   4.924   4.002  0.1964 -0.0654  0.2114
 2084TIP3    H127743   0.183   4.886   4.090 -1.1184  0.6006  0.6957
 2084TIP3    H227744   0.116   5.001   4.017 -0.4503 -0.2320 -1.2700
 2085TIP3   OH227745   5.412   6.299   5.255  0.3522  0.2189 -0.2129
 2085TIP3    H127746   5.460   6.369   5.299  2.6248 -0.9206 -0.7692
 2085TIP3    H227747   5.448   6.218   5.292  0.2772 -0.7040 -2.0838
 2086TIP3   OH227748   5.038   1.762   1.887 -0.0944  0.0886 -0.1605
 2086TIP3    H127749   5.067   1.748   1.977  3.5091  2.0334 -0.9174
 2086TIP3    H227750   5.053   1.677   1.844  2.2872  0.3451  0.0886
 2087TIP3   OH227751   3.184   6.197   4.869 -0.1993  0.4136 -0.0849
 2087TIP3    H127752   3.248   6.246   4.920 -0.5935  2.0129 -1.0960
 2087TIP3    H227753   3.101   6.210   4.916 -0.5719  1.9272 -1.1180
 2088TIP3   OH227754   1.959   3.072  15.997  0.6520  0.2711  0.2427
 2088TIP3    H127755   1.878   3.047  15.952  0.8330 -0.7078  0.4530
 2088TIP3    H227756   1.945   3.163  16.021  0.6417  0.8992 -2.0152
 2089TIP3   OH227757   1.001   0.038  17.220  0.3392  0.1467  0.2451
 2089TIP3    H127758   1.094   0.054  17.233  0.5158 -0.8489  0.2690
 2089TIP3    H227759   0.983   0.072  17.132  0.9767 -0.6630 -0.2111
 2090TIP3   OH227760   0.137   6.036   2.256 -1.1277 -0.2421 -0.6045
 2090TIP3    H127761   0.207   6.035   2.190 -0.4284  0.5222  0.1076
 2090TIP3    H227762   0.058   6.061   2.207 -0.4636  1.1377 -1.0110
 2091TIP3   OH227763   3.362   2.377   0.399 -0.0462 -0.0518 -0.1134
 2091TIP3    H127764   3.401   2.437   0.462  0.4301  1.5500 -1.9067
 2091TIP3    H227765   3.268   2.379   0.420  0.4087 -1.6616  2.2947
 2092TIP3   OH227766   4.178   3.850  16.060 -0.2769 -0.1905  0.3315
 2092TIP3    H127767   4.103   3.825  16.113  1.6833 -2.2276  2.2636
 2092TIP3    H227768   4.175   3.946  16.058 -1.9305 -0.1856  1.8285
 2093TIP3   OH227769   5.098   5.880  14.861  0.0226  0.2070 -0.2139
 2093TIP3    H127770   5.178   5.834  14.837 -0.6495 -0.4080 -1.3085
 2093TIP3    H227771   5.076   5.846  14.948  1.1383  0.6554  0.2566
 2094TIP3   OH227772   0.745   4.753   3.611 -0.6998 -0.0119  0.3846
 2094TIP3    H127773   0.670   4.749   3.670 -0.2990 -3.2408  0.7738
 2094TIP3    H227774   0.819   4.723   3.664  0.3217  0.2954 -0.8347
 2095TIP3   OH227775   5.242   0.621   1.663  0.2313 -0.5706 -0.5357
 2095TIP3    H127776   5.336   0.601   1.666  0.6114  0.9929 -1.6512
 2095TIP3    H227777   5.201   0.549   1.712  2.1186 -0.5239  1.1859
 2096TIP3   OH227778   4.837   3.431   0.171 -0.0786  0.0678 -0.0564
 2096TIP3    H127779   4.847   3.523   0.148  0.5639 -0.2009 -0.8954
 2096TIP3    H227780   4.831   3.386   0.087 -0.4532 -0.6570  0.3479
 2097TIP3   OH227781   1.584   5.027   6.424  0.4392  0.0444  0.3618
 2097TIP3    H127782   1.627   4.941   6.422 -0.1065 -0.3017  2.4048
 2097TIP3    H227783   1.504   5.014   6.374  2.1697  0.4322 -2.6376
 2098TIP3   OH227784   6.198   4.268   5.608 -0.0150 -0.5793 -0.2100
 2098TIP3    H127785   6.225   4.349   5.565  1.9135 -0.9654  0.2322
 2098TIP3    H227786   6.219   4.282   5.701 -2.7381 -0.3420  0.4183
 2099TIP3   OH227787   2.097   4.708   4.666  0.0133 -0.1440  0.3462
 2099TIP3    H127788   2.160   4.636   4.656  0.7512  0.3750  1.1451
 2099TIP3    H227789   2.069   4.703   4.757 -0.3968  0.2033  0.2412
 2100TIP3   OH227790   2.045   0.157   1.726  0.6253  0.4445  0.1227
 2100TIP3    H127791   2.070   0.246   1.704  0.1767  0.7482  0.8279
 2100TIP3    H227792   1.991   0.166   1.805 -0.0817 -0.3744 -0.2633
 2101TIP3   OH227793   3.143   5.314  11.446 -0.2869 -0.2365  0.1832
 2101TIP3    H127794   3.085   5.359  11.506 -0.3643  0.0874 -0.1316
 2101TIP3    H227795   3.092   5.239  11.415 -0.6890  0.2604 -0.3905
 2102TIP3   OH227796   6.227   0.160   0.838  0.3125  0.4097  0.1186
 2102TIP3    H127797   6.159   0.126   0.779  0.4635 -0.7237  0.5677
 2102TIP3    H227798   6.181   0.174   0.921  0.7809 -1.1503  0.6619
 2103TIP3   OH227799   6.706   3.057   0.811 -0.4970  0.3238  0.1311
 2103TIP3    H127800   6.641   3.113   0.769  0.1704 -0.0022 -1.3649
 2103TIP3    H227801   6.790   3.090   0.779 -0.0453 -0.7665  0.1619
 2104TIP3   OH227802   2.455   5.638   2.398  0.4600  0.6259  0.3948
 2104TIP3    H127803   2.469   5.731   2.412  0.3154  0.6522  0.3726
 2104TIP3    H227804   2.528   5.595   2.442 -0.0128  0.7066  1.2867
 2105TIP3   OH227805   4.606   6.101   0.437  0.6427  0.5149  0.3411
 2105TIP3    H127806   4.596   6.118   0.530  0.3173  1.8925  0.0668
 2105TIP3    H227807   4.685   6.047   0.430 -0.6625 -1.6167  1.6001
 2106TIP3   OH227808   6.412   1.978  16.732  0.2017  0.0614  0.1550
 2106TIP3    H127809   6.338   2.038  16.721 -0.4482 -0.9623 -1.3194
 2106TIP3    H227810   6.473   2.003  16.663 -0.0628 -0.9187 -0.4580
 2107TIP3   OH227811   0.802   4.269  16.381  0.3724  0.0868  0.4314
 2107TIP3    H127812   0.895   4.280  16.400  0.6514  0.9305 -1.3402
 2107TIP3    H227813   0.759   4.279  16.466  1.7453  1.6063  0.9744
 2108TIP3   OH227814   1.319   2.713   1.815  0.1624 -0.1271 -0.0302
 2108TIP3    H127815   1.322   2.807   1.834  2.1270 -0.1937  0.0494
 2108TIP3    H227816   1.303   2.672   1.899  0.1211  0.0862  0.0670
 2109TIP3   OH227817   2.339   4.956  14.684 -0.7200  0.0206  0.0356
 2109TIP3    H127818   2.425   4.951  14.641 -0.2410  2.0322  0.7188
 2109TIP3    H227819   2.276   4.942  14.613  0.1505 -1.0171 -0.5513
 2110TIP3   OH227820   1.890   5.448  13.364 -0.1947  0.1157 -0.1724
 2110TIP3    H127821   1.800   5.468  13.392 -0.9794 -1.2546 -1.6254
 2110TIP3    H227822   1.912   5.518  13.303  0.0871  0.9590  0.8693
 2111TIP3   OH227823   3.758   3.585  12.032 -0.8730  0.1933 -0.4970
 2111TIP3    H127824   3.797   3.498  12.032 -0.4915  0.3597  0.0845
 2111TIP3    H227825   3.677   3.576  12.083  0.4073  0.7088  1.6963
 2112TIP3   OH227826   4.527   2.959  12.939 -0.1727  0.2850  0.0120
 2112TIP3    H127827   4.553   2.887  12.882  1.8777 -0.1834  1.4990
 2112TIP3    H227828   4.596   2.964  13.005 -1.6873  1.8439  1.5311
 2113TIP3   OH227829   1.017   3.721   1.011  0.7133 -0.0963  0.1277
 2113TIP3    H127830   0.922   3.733   1.021  0.4847 -1.0067 -0.8613
 2113TIP3    H227831   1.055   3.802   1.046 -0.5453  1.3538 -1.7428
 2114TIP3   OH227832   6.682   1.408   2.052 -0.0136 -0.4937 -0.0782
 2114TIP3    H127833   6.754   1.464   2.079  0.3434 -0.4036 -1.1577
 2114TIP3    H227834   6.693   1.399   1.957 -1.7143 -0.0703 -0.3436
 2115TIP3   OH227835   0.256   6.660   4.479  0.0117  0.4957  0.2421
 2115TIP3    H127836   0.337   6.704   4.506 -0.8440  1.4143  1.3583
 2115TIP3    H227837   0.276   6.623   4.393  1.1085  2.1397 -0.2317
 2116TIP3   OH227838   3.782   3.856   5.120  0.0284 -0.1414 -0.1420
 2116TIP3    H127839   3.831   3.829   5.043 -1.6673 -0.6593 -1.0653
 2116TIP3    H227840   3.785   3.780   5.179  1.3854  0.2815  0.3666
 2117TIP3   OH227841   4.181   0.531   2.424 -0.1401  0.2898  0.3289
 2117TIP3    H127842   4.140   0.616   2.433 -1.9389 -0.8864  4.3624
 2117TIP3    H227843   4.111   0.473   2.392 -0.1968 -0.6197  2.0636
 2118TIP3   OH227844   3.261   4.822  15.261 -0.6337 -0.6027  0.2465
 2118TIP3    H127845   3.351   4.791  15.253  0.3667  1.8320  1.4354
 2118TIP3    H227846   3.225   4.818  15.172  1.6878  1.3786 -0.8299
 2119TIP3   OH227847   1.459   3.106  11.452  0.0362  0.7448  0.2375
 2119TIP3    H127848   1.379   3.089  11.502 -0.1007  4.3708  1.4096
 2119TIP3    H227849   1.530   3.088  11.514  0.0173  0.7154  0.2503
 2120TIP3   OH227850   6.482   3.086  11.323 -0.7961 -0.3561 -0.4041
 2120TIP3    H127851   6.421   3.021  11.287 -0.4768 -0.7620 -0.2248
 2120TIP3    H227852   6.473   3.162  11.265 -1.7009 -0.2951 -0.1855
 2121TIP3   OH227853   6.155   6.766   5.431 -0.5882 -0.3084  0.0919
 2121TIP3    H127854   6.087   6.698   5.434 -0.3514 -0.5103  0.8984
 2121TIP3    H227855   6.218   6.734   5.367 -0.8696 -0.4807 -0.1010
 2122TIP3   OH227856   5.890   3.603  11.220  0.3052 -0.2703  0.0258
 2122TIP3    H127857   5.851   3.520  11.249  0.5011 -0.4602 -0.2506
 2122TIP3    H227858   5.879   3.662  11.294  1.2607 -0.8961  0.6688
 2123TIP3   OH227859   0.660   2.836  17.193 -0.4272 -0.5628  0.0499
 2123TIP3    H127860   0.661   2.917  17.243 -0.2070 -1.1839  1.0598
 2123TIP3    H227861   0.672   2.767  17.258 -1.5550 -1.4748 -0.6716
 2124TIP3   OH227862   5.594   1.643   4.777  0.4537 -0.1818  0.1804
 2124TIP3    H127863   5.532   1.611   4.843 -1.9170  0.8374 -1.5335
 2124TIP3    H227864   5.588   1.580   4.705 -0.8158  1.5250 -1.2443
 2125TIP3   OH227865   4.863   3.411   1.435  0.0778  0.5702 -0.2216
 2125TIP3    H127866   4.793   3.346   1.430  0.0224  0.6071  0.0771
 2125TIP3    H227867   4.925   3.377   1.499  1.2652 -0.3411 -1.8214
 2126TIP3   OH227868   3.373   5.765  11.645 -0.7875  0.1177 -0.8876
 2126TIP3    H127869   3.416   5.737  11.565 -4.1014 -1.9003 -2.0818
 2126TIP3    H227870   3.361   5.860  11.634  2.6031  0.6184 -0.7785
 2127TIP3   OH227871   0.168   2.775  11.287  0.1032 -0.4165 -0.3503
 2127TIP3    H127872   0.139   2.686  11.267  0.4363 -0.3658 -1.0446
 2127TIP3    H227873   0.086   2.823  11.303 -0.1431 -0.5408 -1.2222
 2128TIP3   OH227874   6.040   6.440   2.720  0.1555  0.3573  0.8948
 2128TIP3    H127875   6.036   6.475   2.809  0.7091  2.8505 -0.0089
 2128TIP3    H227876   5.948   6.434   2.693  0.0488  2.2560  0.7004
 2129TIP3   OH227877   2.864   5.463  15.308 -0.5021  0.2357 -0.1708
 2129TIP3    H127878   2.806   5.489  15.379 -0.2075 -0.9920  0.5325
 2129TIP3    H227879   2.948   5.445  15.351  0.9449  3.6874 -1.3802
 2130TIP3   OH227880   4.519   0.932  12.076  0.2802  0.1547  0.2057
 2130TIP3    H127881   4.486   0.888  12.154 -0.0744 -1.3599 -0.7845
 2130TIP3    H227882   4.614   0.932  12.088  0.1994  0.3498  0.8624
 2131TIP3   OH227883   1.369   3.531   1.334 -0.2031  0.6759 -0.1051
 2131TIP3    H127884   1.373   3.620   1.371  1.6922  0.9878 -0.9854
 2131TIP3    H227885   1.460   3.502   1.334 -0.7338 -1.0009 -0.5190
 2132TIP3   OH227886   4.089   5.936   2.507 -0.0203 -0.4036 -0.3313
 2132TIP3    H127887   4.007   5.960   2.463 -0.0068  1.2052  0.5007
 2132TIP3    H227888   4.101   6.004   2.573  1.4245 -1.2532  0.2777
 2133TIP3   OH227889   3.252   6.404  15.428 -0.5015 -0.2304  0.3126
 2133TIP3    H127890   3.191   6.372  15.495 -0.4205  2.0783  1.5481
 2133TIP3    H227891   3.271   6.327  15.374 -0.8773 -2.0919  2.7203
 2134TIP3   OH227892   6.447   3.657   3.687 -0.4791 -0.0714 -0.0923
 2134TIP3    H127893   6.452   3.618   3.600  1.6136  2.3868 -1.1644
 2134TIP3    H227894   6.401   3.740   3.674  0.1613  0.4904  1.0752
 2135TIP3   OH227895   0.753   0.656  11.591 -0.5512 -0.2549  0.5018
 2135TIP3    H127896   0.764   0.561  11.598  0.4704  0.0093  2.6828
 2135TIP3    H227897   0.770   0.689  11.679 -1.2709  1.9293 -0.1482
 2136TIP3   OH227898   0.784   6.057  12.181 -0.6826 -0.0655 -0.2423
 2136TIP3    H127899   0.877   6.067  12.161 -1.0331 -0.8048 -2.4614
 2136TIP3    H227900   0.761   6.136  12.230  0.9277  0.5443 -0.4415
 2137TIP3   OH227901   1.588   3.900  14.988  0.5066 -0.3062  0.0889
 2137TIP3    H127902   1.556   3.835  14.926  1.9517 -0.7706 -0.1964
 2137TIP3    H227903   1.530   3.892  15.064 -1.8200  0.8736 -1.5098
 2138TIP3   OH227904   2.053   2.885   0.947 -0.0097 -0.5179 -0.3270
 2138TIP3    H127905   2.132   2.883   0.999  0.1149 -1.3393 -0.5417
 2138TIP3    H227906   2.083   2.878   0.856 -0.2230  0.8475 -0.5164
 2139TIP3   OH227907   4.452   2.652  12.818  0.0232 -0.3041  0.9722
 2139TIP3    H127908   4.366   2.654  12.777 -0.2375 -0.9961  1.4789
 2139TIP3    H227909   4.513   2.662  12.745 -0.4949  0.8552  0.6877
 2140TIP3   OH227910   5.005   1.481  17.226  0.2228  0.0079  0.3440
 2140TIP3    H127911   5.044   1.536  17.158  0.6594 -1.3045 -0.5001
 2140TIP3    H227912   5.038   1.517  17.308  1.9862 -0.0910 -0.2831
 2141TIP3   OH227913   2.114   3.094  12.389 -0.3946  0.2148 -0.5167
 2141TIP3    H127914   2.153   3.139  12.314  0.8417 -0.1002 -0.0894
 2141TIP3    H227915   2.021   3.089  12.370  0.0719 -0.9397 -2.6039
 2142TIP3   OH227916   2.814   5.754   5.983  0.1959  0.2831 -0.2242
 2142TIP3    H127917   2.778   5.842   5.979 -0.1483  0.0720 -1.8652
 2142TIP3    H227918   2.763   5.710   6.051 -0.7218  0.8532 -0.5391
 2143TIP3   OH227919   4.282   2.665  14.093  0.5501 -0.7503 -0.0356
 2143TIP3    H127920   4.334   2.666  14.173 -0.1827 -0.9774  0.4432
 2143TIP3    H227921   4.192   2.680  14.122  0.0867 -2.1921 -0.6674
 2144TIP3   OH227922   6.535   3.626  15.937 -0.3893 -0.2268  0.0310
 2144TIP3    H127923   6.456   3.640  15.884  0.4771  0.4078 -1.1088
 2144TIP3    H227924   6.607   3.624  15.874  0.6975  0.8325  1.1908
 2145TIP3   OH227925   1.887   0.984  14.725  0.0528 -0.0037  0.3721
 2145TIP3    H127926   1.871   1.070  14.764  0.1777  0.3538 -0.3532
 2145TIP3    H227927   1.806   0.963  14.678  0.2931  0.0597 -0.0766
 2146TIP3   OH227928   6.316   5.103   2.554  0.1213 -0.1275 -0.2974
 2146TIP3    H127929   6.251   5.034   2.539 -0.5638  0.7942 -1.7262
 2146TIP3    H227930   6.290   5.143   2.637 -1.7806  0.9061 -1.3601
 2147TIP3   OH227931   3.093   0.127   1.880  0.2846 -0.4658  0.1479
 2147TIP3    H127932   3.113   0.111   1.973  0.1002 -2.7337 -0.1771
 2147TIP3    H227933   2.999   0.145   1.879  0.1588 -1.0961  0.3301
 2148TIP3   OH227934   5.202   3.894  12.657  0.2292  0.4591  0.0737
 2148TIP3    H127935   5.169   3.867  12.743 -0.6231 -0.8572 -0.6479
 2148TIP3    H227936   5.126   3.935  12.614  0.9451  2.1219  0.3545
 2149TIP3   OH227937   0.010   5.362  14.970 -0.1714 -0.1596 -0.2709
 2149TIP3    H127938  -0.085   5.374  14.978  0.0789  1.5305  0.3812
 2149TIP3    H227939   0.042   5.362  15.061  0.1552 -3.6452 -0.3125
 2150TIP3   OH227940   4.606   5.174  15.167 -0.2101  0.1000 -0.0398
 2150TIP3    H127941   4.702   5.177  15.171 -0.1515  0.7301 -1.8149
 2150TIP3    H227942   4.578   5.224  15.244  0.8620 -1.1610  1.2152
 2151TIP3   OH227943   1.945   0.335  15.047 -0.3127  0.0354 -0.5852
 2151TIP3    H127944   1.954   0.427  15.022  0.6585  0.0251 -0.2885
 2151TIP3    H227945   2.029   0.296  15.025 -1.0992 -1.0362 -1.7468
 2152TIP3   OH227946   0.717   4.475   6.210  0.1224  0.2719 -0.2618
 2152TIP3    H127947   0.741   4.527   6.287 -0.3547 -0.2804  0.2653
 2152TIP3    H227948   0.621   4.473   6.212  0.1450 -0.9342 -0.0646
 2153TIP3   OH227949   6.767   5.705  12.283 -0.2332  0.6306 -0.2658
 2153TIP3    H127950   6.722   5.687  12.200  0.1400 -0.1440 -0.3022
 2153TIP3    H227951   6.780   5.800  12.283 -1.2214  0.7663 -0.5827
 2154TIP3   OH227952   1.292   5.887  12.941  0.6445  0.2384  0.3342
 2154TIP3    H127953   1.324   5.837  12.866 -0.6116 -0.4455  0.2248
 2154TIP3    H227954   1.222   5.833  12.977 -0.0240  1.4296  0.8646
 2155TIP3   OH227955   5.783   4.669  11.000 -0.2147  0.1958 -0.6031
 2155TIP3    H127956   5.877   4.663  10.986 -0.1228 -2.2310  0.8653
 2155TIP3    H227957   5.772   4.747  11.055  0.9515  0.3198 -0.5468
 2156TIP3   OH227958   3.083   1.414   2.787  0.7372 -0.4960 -0.4764
 2156TIP3    H127959   3.011   1.477   2.777 -0.3119 -2.0597 -3.2185
 2156TIP3    H227960   3.082   1.391   2.880 -0.5448  1.5415  0.0431
 2157TIP3   OH227961   2.069   3.876  11.074 -0.1810  0.5812  0.2778
 2157TIP3    H127962   1.978   3.861  11.048  0.1285  2.0918 -1.8322
 2157TIP3    H227963   2.079   3.972  11.070  1.6233  0.3931 -0.0017
 2158TIP3   OH227964   4.846   4.830   6.172  0.1902  0.5387 -0.4624
 2158TIP3    H127965   4.935   4.798   6.186  0.0222 -1.2672 -3.0218
 2158TIP3    H227966   4.857   4.920   6.142  1.0863  0.6729  0.2452
 2159TIP3   OH227967   5.483   5.974   2.215  0.0364  0.3013  0.2414
 2159TIP3    H127968   5.389   5.973   2.230  0.1969  1.1013  1.3552
 2159TIP3    H227969   5.521   5.926   2.289  0.3471 -2.3920 -1.5928
 2160TIP3   OH227970   3.870   4.006  15.419  0.8998  0.6405 -0.2017
 2160TIP3    H127971   3.827   4.055  15.489  0.7439  0.9333 -0.5000
 2160TIP3    H227972   3.924   4.071  15.374  0.4473  0.6094 -0.8002
 2161TIP3   OH227973   3.681   3.713   0.635 -0.4284 -0.6369  0.1391
 2161TIP3    H127974   3.770   3.747   0.643 -0.5562 -0.3617  0.4042
 2161TIP3    H227975   3.689   3.640   0.574  0.3086 -1.8302  1.6388
 2162TIP3   OH227976   0.498   6.765  15.540 -0.0869  0.0375 -0.2195
 2162TIP3    H127977   0.425   6.823  15.562 -0.7310 -1.5126  1.8587
 2162TIP3    H227978   0.566   6.787  15.604  0.0257 -0.7964 -0.0450
 2163TIP3   OH227979   3.779   3.631  11.162  0.6171  0.8924  0.5705
 2163TIP3    H127980   3.701   3.608  11.113  1.1611  2.0444 -0.8805
 2163TIP3    H227981   3.851   3.622  11.100  1.8165 -1.2466  2.1882
 2164TIP3   OH227982   1.620   6.601   5.099  0.0906  0.0021 -0.0000
 2164TIP3    H127983   1.669   6.528   5.062  1.0270  1.9122 -2.7500
 2164TIP3    H227984   1.685   6.654   5.144 -0.0787  0.5550 -0.3873
 2165TIP3   OH227985   5.972   3.692  17.229  0.1647  0.2171  0.6618
 2165TIP3    H127986   5.934   3.609  17.199  2.1815 -0.3098 -0.5425
 2165TIP3    H227987   5.908   3.759  17.202 -1.4496 -0.9118  1.5896
 2166TIP3   OH227988   5.549   0.730   1.317 -0.0117 -0.0234 -0.4111
 2166TIP3    H127989   5.602   0.675   1.375 -0.7713 -1.1445 -0.7568
 2166TIP3    H227990   5.460   0.695   1.325 -0.6510  1.6170 -0.1042
 2167TIP3   OH227991   0.591   2.210  12.279  0.3020 -0.1521  0.4966
 2167TIP3    H127992   0.634   2.289  12.312 -2.0116  0.7842  1.4418
 2167TIP3    H227993   0.654   2.170  12.220  3.7186 -0.5889  4.2138
 2168TIP3   OH227994   0.552   1.606   0.888 -0.2447  0.2975 -0.1859
 2168TIP3    H127995   0.508   1.656   0.820  1.2119  0.7154 -0.8486
 2168TIP3    H227996   0.561   1.667   0.961 -1.1834  0.0648  0.1256
 2169TIP3   OH227997   5.281   5.081   4.939  0.2436 -0.0768  0.4465
 2169TIP3    H127998   5.368   5.120   4.928  0.5188 -0.8150  0.0043
 2169TIP3    H227999   5.297   4.987   4.945 -0.5153 -0.2052  0.5242
 2170TIP3   OH228000   1.562   2.662   2.771  0.3687  0.2618 -0.1405
 2170TIP3    H128001   1.567   2.743   2.722 -0.2953 -0.4018 -1.3111
 2170TIP3    H228002   1.470   2.654   2.797  0.6758  0.5187  1.0604
 2171TIP3   OH228003   5.886   4.995  14.424 -0.9122  0.3592  0.3617
 2171TIP3    H128004   5.874   4.906  14.391 -2.0078  0.6870 -0.1554
 2171TIP3    H228005   5.975   5.019  14.400 -0.4813 -0.7371  0.8481
 2172TIP3   OH228006   0.163   6.592   0.069 -0.0199 -0.0130  0.1630
 2172TIP3    H128007   0.205   6.595  -0.017 -2.2846 -0.6321 -0.9965
 2172TIP3    H228008   0.185   6.676   0.110 -0.8294  1.2570 -1.9494
 2173TIP3   OH228009   1.029   5.026  16.822  0.6149 -0.5536 -0.4579
 2173TIP3    H128010   1.086   5.024  16.745  0.8490 -3.4775 -0.2617
 2173TIP3    H228011   1.069   5.091  16.879  2.1167 -0.4701 -1.5574
 2174TIP3   OH228012   5.408   2.872   4.044  0.1247  0.3722 -0.7768
 2174TIP3    H128013   5.385   2.964   4.054 -2.5595 -0.3821  0.3667
 2174TIP3    H228014   5.485   2.860   4.101  2.2368  2.4683 -3.0648
 2175TIP3   OH228015   3.978   3.415  12.905 -0.3754 -0.5440 -0.4228
 2175TIP3    H128016   3.975   3.378  12.816 -0.1398  0.3929 -0.8283
 2175TIP3    H228017   4.064   3.456  12.911 -1.5460  2.1483 -0.9113
 2176TIP3   OH228018   5.511   6.128   1.312  0.0583  0.2052  0.1228
 2176TIP3    H128019   5.435   6.165   1.267  1.0785  2.5319  0.2301
 2176TIP3    H228020   5.487   6.127   1.405 -1.2720 -2.6994 -0.1950
 2177TIP3   OH228021   2.279   0.008  13.389  0.1133  0.0764 -0.0604
 2177TIP3    H128022   2.261   0.076  13.324  1.6437 -0.0482 -0.6389
 2177TIP3    H228023   2.362   0.034  13.429 -1.8798  1.3139  3.4265
 2178TIP3   OH228024   1.243   6.313   6.653 -0.5338 -0.3891  0.0972
 2178TIP3    H128025   1.217   6.238   6.600 -0.8864 -1.3001  1.5158
 2178TIP3    H228026   1.330   6.290   6.685 -0.0854  0.4055 -0.5345
 2179TIP3   OH228027   0.268   1.375  16.400  0.0594 -0.5410  0.0881
 2179TIP3    H128028   0.304   1.401  16.315 -0.3712  1.0280  0.3517
 2179TIP3    H228029   0.240   1.284  16.388  2.9620 -1.4045 -0.4640
 2180TIP3   OH228030   5.377   1.625   0.089 -1.0090 -0.2713  0.0900
 2180TIP3    H128031   5.282   1.639   0.089 -0.8833  0.8122 -1.4605
 2180TIP3    H228032   5.389   1.544   0.039 -1.3589 -2.9673  4.1277
 2181TIP3   OH228033   4.705   6.754   5.999  0.4313  0.1255  0.6653
 2181TIP3    H128034   4.688   6.845   5.977  0.6630  0.1132  0.4304
 2181TIP3    H228035   4.662   6.703   5.930  0.7515  0.0732  0.5034
 2182TIP3   OH228036   1.990   4.418  13.520 -0.4117  0.7878 -0.2146
 2182TIP3    H128037   1.896   4.431  13.526 -0.3223  1.3217  0.0465
 2182TIP3    H228038   2.000   4.330  13.483 -1.0153  1.8929 -3.1304
 2183TIP3   OH228039   3.697   5.519   5.595 -0.3806 -0.2112 -0.0131
 2183TIP3    H128040   3.607   5.536   5.621 -0.0186  1.2530  0.3248
 2183TIP3    H228041   3.702   5.424   5.585 -2.1821 -0.2291 -0.8735
 2184TIP3   OH228042   0.885   3.831   2.135 -0.2286 -0.0335 -0.0874
 2184TIP3    H128043   0.866   3.737   2.136 -0.7943  0.0465  3.2584
 2184TIP3    H228044   0.980   3.836   2.147 -0.3446 -0.2081  1.0210
 2185TIP3   OH228045   6.568   0.769   3.487  0.3724 -0.1597  0.2330
 2185TIP3    H128046   6.605   0.786   3.401  3.2700  2.3107  1.8703
 2185TIP3    H228047   6.631   0.711   3.530  0.7738  1.4891  1.9360
 2186TIP3   OH228048   6.687   0.866  13.663 -0.0981  0.1559  0.0687
 2186TIP3    H128049   6.626   0.836  13.731 -1.5301  1.3094 -0.6603
 2186TIP3    H228050   6.642   0.845  13.580  1.5065 -1.0036 -0.5433
 2187TIP3   OH228051   6.817   0.867   0.740  0.1966 -0.2509 -0.7086
 2187TIP3    H128052   6.758   0.937   0.769 -0.7844 -0.7152 -1.5871
 2187TIP3    H228053   6.762   0.808   0.689  0.6591 -2.5529  1.3532
 2188TIP3   OH228054   0.402   0.171   2.737  0.2925  0.2369  0.2836
 2188TIP3    H128055   0.358   0.184   2.653 -1.6808  0.8367  1.3811
 2188TIP3    H228056   0.446   0.086   2.729 -0.6058 -0.1105 -1.0484
 2189TIP3   OH228057   6.392   5.494  15.826  0.6225 -0.4068  0.1912
 2189TIP3    H128058   6.333   5.507  15.901  1.4044 -0.2943  0.7861
 2189TIP3    H228059   6.361   5.413  15.785 -1.4666  0.9188 -0.9183
 2190TIP3   OH228060   1.381   3.902   3.745 -0.1896 -0.0321 -0.7345
 2190TIP3    H128061   1.445   3.921   3.677  0.6458 -1.0035 -0.2390
 2190TIP3    H228062   1.297   3.898   3.699  0.6408 -2.8515 -2.0880
 2191TIP3   OH228063   0.595   4.850   0.435  0.4358  0.0024  0.0513
 2191TIP3    H128064   0.528   4.863   0.502 -0.7876 -1.0431 -0.9445
 2191TIP3    H228065   0.638   4.768   0.459  1.1440  0.5036  0.5062
 2192TIP3   OH228066   5.357   6.381   2.514  0.5207  0.2958  0.2686
 2192TIP3    H128067   5.446   6.411   2.498  0.7099  0.0614  0.8824
 2192TIP3    H228068   5.367   6.298   2.560 -0.0112  0.0139 -0.1217
 2193TIP3   OH228069   5.629   1.813   2.142 -0.2745 -0.2294 -0.1907
 2193TIP3    H128070   5.670   1.729   2.122  1.3485 -0.0327  2.1267
 2193TIP3    H228071   5.700   1.877   2.134 -0.8236  0.5279  0.9372
 2194TIP3   OH228072   5.301   0.747   2.811 -0.1258  0.2909  0.3024
 2194TIP3    H128073   5.351   0.705   2.741  0.3226  1.6847 -0.2369
 2194TIP3    H228074   5.216   0.766   2.772  0.2663  1.4494 -0.0196
 2195TIP3   OH228075   3.005   4.079   2.906 -0.2202 -0.8449  0.0531
 2195TIP3    H128076   3.051   4.148   2.857 -0.6804 -0.2913  0.4046
 2195TIP3    H228077   3.017   4.000   2.852 -2.0568  0.0726 -1.7776
 2196TIP3   OH228078   0.407   2.308  11.330 -0.6243  0.8218 -0.2042
 2196TIP3    H128079   0.485   2.256  11.350  0.0766  1.9405  0.0797
 2196TIP3    H228080   0.334   2.250  11.347  0.1710 -0.5446 -1.3510
 2197TIP3   OH228081   1.085   2.106   4.988  0.0786  0.1667 -0.0609
 2197TIP3    H128082   1.020   2.175   5.002  0.7859  0.8825 -0.2714
 2197TIP3    H228083   1.056   2.061   4.908  0.3727  1.1104 -0.7048
 2198TIP3   OH228084   6.330   0.728   2.257 -0.1594 -0.4550 -0.0120
 2198TIP3    H128085   6.237   0.707   2.250 -0.3212  0.2331 -0.0042
 2198TIP3    H228086   6.365   0.712   2.169 -0.3532 -0.3930 -0.1005
 2199TIP3   OH228087   0.475   5.486   2.783 -0.2587  0.4528 -0.5098
 2199TIP3    H128088   0.451   5.401   2.747 -3.5535  0.5569  1.2569
 2199TIP3    H228089   0.481   5.472   2.877 -0.6407  2.1455 -0.2171
 2200TIP3   OH228090   6.701   1.024   3.940 -0.0082 -0.1644 -0.0178
 2200TIP3    H128091   6.765   0.952   3.943 -0.2934 -0.4352 -0.4017
 2200TIP3    H228092   6.635   0.994   3.878 -0.2690  0.3185  0.0295
 2201TIP3   OH228093   5.779   0.613  12.773  1.0309  0.0604  0.3772
 2201TIP3    H128094   5.782   0.518  12.790  2.3295 -0.0056 -0.1374
 2201TIP3    H228095   5.813   0.652  12.854  2.5279 -0.0233 -0.1964
 2202TIP3   OH228096   3.948   3.836   2.137 -0.0048  0.2136  0.1797
 2202TIP3    H128097   3.993   3.903   2.188 -0.8344  0.5099  0.5343
 2202TIP3    H228098   3.952   3.868   2.047  0.1818  0.4105  0.2584
 2203TIP3   OH228099   2.063   0.363   2.357 -0.4419  0.2330 -0.4483
 2203TIP3    H128100   1.968   0.359   2.367 -0.4891  0.2364 -0.8793
 2203TIP3    H228101   2.077   0.370   2.263 -0.0984  2.5272 -0.2541
 2204TIP3   OH228102   6.659   5.220  14.555 -0.5200 -0.1041  0.0629
 2204TIP3    H128103   6.666   5.125  14.560  0.3199 -0.0721 -0.3940
 2204TIP3    H228104   6.749   5.251  14.564 -0.7004  0.6103 -0.5620
 2205TIP3   OH228105   4.901   2.693   2.990  0.1131 -0.3869 -0.3609
 2205TIP3    H128106   4.851   2.768   3.023  1.4674 -0.3678  1.7639
 2205TIP3    H228107   4.990   2.708   3.021  0.7282 -2.1157 -1.2140
 2206TIP3   OH228108   3.835   6.084  11.711 -0.2797  0.5673  0.1258
 2206TIP3    H128109   3.905   6.047  11.657  0.8026  0.6184  1.4660
 2206TIP3    H228110   3.817   6.169  11.672 -0.7499 -0.1386 -1.2182
 2207TIP3   OH228111   2.726   4.415   1.231  0.2419  0.1088 -0.1439
 2207TIP3    H128112   2.637   4.407   1.264 -0.1958  1.1282 -1.0638
 2207TIP3    H228113   2.725   4.368   1.147  1.0334 -1.4236  0.6913
 2208TIP3   OH228114   4.592   1.776  15.622 -0.0758  0.0165 -0.2337
 2208TIP3    H128115   4.563   1.689  15.650  1.0363 -0.3005 -0.0686
 2208TIP3    H228116   4.609   1.824  15.703  1.7220 -0.4272 -0.3292
 2209TIP3   OH228117   6.606   6.355   0.111 -0.4028 -0.2606 -0.2461
 2209TIP3    H128118   6.657   6.279   0.085  0.1610  0.0250  0.0079
 2209TIP3    H228119   6.515   6.326   0.107 -0.1348 -1.3483  1.1610
 2210TIP3   OH228120   3.649   5.646   4.710  0.1561  0.1106  0.0461
 2210TIP3    H128121   3.637   5.729   4.755  0.8945 -0.0874  0.6195
 2210TIP3    H228122   3.614   5.580   4.770 -1.2719  0.0819 -0.7988
 2211TIP3   OH228123   0.228   0.203  11.941 -0.5290 -0.1581  0.2143
 2211TIP3    H128124   0.227   0.221  11.846 -1.4545  0.0097  0.2493
 2211TIP3    H228125   0.143   0.234  11.971 -0.3854 -0.5800  1.0419
 2212TIP3   OH228126   2.836   4.112  12.057 -0.7307  0.4361 -0.2068
 2212TIP3    H128127   2.814   4.030  12.013 -0.9209  0.9952 -1.1734
 2212TIP3    H228128   2.755   4.164  12.054 -0.2317  1.1931 -0.8159
 2213TIP3   OH228129   3.660   2.755  15.885  0.3855 -0.1032 -0.6075
 2213TIP3    H128130   3.582   2.725  15.837  1.7654 -4.2753 -0.4560
 2213TIP3    H228131   3.626   2.781  15.970 -1.1452  0.3491 -1.3313
 2214TIP3   OH228132   1.184   6.017  13.828 -0.4985 -0.0479 -0.4299
 2214TIP3    H128133   1.131   6.091  13.856 -0.5846 -0.1373 -0.3549
 2214TIP3    H228134   1.176   6.017  13.732  0.7998  0.9960 -0.5443
 2215TIP3   OH228135   3.743   1.496   4.255  0.8811  0.3443  0.6465
 2215TIP3    H128136   3.746   1.587   4.284 -0.3609  0.7384 -0.4443
 2215TIP3    H228137   3.824   1.483   4.205 -0.8311  2.0762 -2.7378
 2216TIP3   OH228138   3.771   3.071   4.682 -0.4733  0.5063  0.0027
 2216TIP3    H128139   3.784   3.143   4.745  1.0740  0.3717 -0.1311
 2216TIP3    H228140   3.788   2.992   4.733  1.5423  0.4310 -0.7292
 2217TIP3   OH228141   5.039   0.151  16.606 -0.3762 -0.2728  0.3277
 2217TIP3    H128142   5.057   0.112  16.520  2.4952 -0.3101  0.8939
 2217TIP3    H228143   5.045   0.245  16.591 -2.0990 -0.1811  0.0611
 2218TIP3   OH228144   1.613   5.217   2.422  0.0840 -0.4657  0.9229
 2218TIP3    H128145   1.562   5.291   2.455 -0.4144 -0.5687  0.3798
 2218TIP3    H228146   1.549   5.161   2.379  0.7637 -0.2138 -0.4482
 2219TIP3   OH228147   1.814   2.133  13.863 -0.3276 -0.2136  0.3002
 2219TIP3    H128148   1.741   2.180  13.822  0.9803  0.5286 -1.2421
 2219TIP3    H228149   1.862   2.201  13.911 -1.4373 -0.9526  2.5261
 2220TIP3   OH228150   5.390   6.088  13.233  0.2178  0.1288 -0.1850
 2220TIP3    H128151   5.475   6.044  13.235 -0.1946 -0.6625  1.2150
 2220TIP3    H228152   5.360   6.086  13.324 -1.8558 -0.7282 -0.8376
 2221TIP3   OH228153   2.210   3.397   5.622  0.0119  0.4587 -0.3001
 2221TIP3    H128154   2.301   3.374   5.601  0.1565  1.9046 -1.3455
 2221TIP3    H228155   2.217   3.457   5.696 -0.1221  0.2231 -0.0966
 2222TIP3   OH228156   4.317   2.094  12.791 -0.2634  0.0186  0.2449
 2222TIP3    H128157   4.354   2.063  12.873  1.3937  0.4921 -0.2906
 2222TIP3    H228158   4.281   2.180  12.812 -0.7855 -0.3156  0.7145
 2223TIP3   OH228159   4.254   2.707  11.399  0.4234 -0.1479 -0.2206
 2223TIP3    H128160   4.212   2.621  11.395 -1.3659  0.6015  1.6066
 2223TIP3    H228161   4.263   2.734  11.308 -1.4640 -1.1109 -0.7074
 2224TIP3   OH228162   0.131   1.768   3.555 -0.0854 -0.9088  0.1270
 2224TIP3    H128163   0.036   1.774   3.565  0.0689  2.0405  0.2945
 2224TIP3    H228164   0.144   1.731   3.467 -1.3701 -1.0563 -0.0134
 2225TIP3   OH228165   6.115   3.340  14.916 -0.6965  0.0420  0.6176
 2225TIP3    H128166   6.164   3.406  14.965 -1.8088  0.5286  1.1003
 2225TIP3    H228167   6.147   3.256  14.950  0.0260  0.3426  0.6930
 2226TIP3   OH228168   2.228   4.934   0.427  0.1660 -0.8692 -1.0147
 2226TIP3    H128169   2.226   5.004   0.493  0.4815 -1.6510 -0.1712
 2226TIP3    H228170   2.271   4.861   0.471 -0.0969 -1.5746 -1.9227
 2227TIP3   OH228171   0.392   5.500  11.624  0.0733  0.5197 -0.1079
 2227TIP3    H128172   0.477   5.469  11.593  0.2151  1.3537 -0.5607
 2227TIP3    H228173   0.387   5.590  11.594 -0.5010  0.8206  0.8807
 2228TIP3   OH228174   0.146   2.459   2.578  0.1530  0.2013  0.1795
 2228TIP3    H128175   0.091   2.392   2.537  1.4779 -0.7007 -0.1621
 2228TIP3    H228176   0.106   2.476   2.663 -1.0976  0.1379 -0.3905
 2229TIP3   OH228177   1.050   1.788  13.805  0.4122 -0.9635 -0.3864
 2229TIP3    H128178   0.967   1.815  13.765  0.1378 -0.1771  0.6970
 2229TIP3    H228179   1.107   1.769  13.730 -0.4025 -0.4563 -1.1514
 2230TIP3   OH228180   2.070   5.071   4.146 -0.0611 -0.2374  0.1290
 2230TIP3    H128181   2.164   5.052   4.147 -0.1912 -0.9029  0.3507
 2230TIP3    H228182   2.060   5.147   4.203  0.2783 -0.4793  0.5145
 2231TIP3   OH228183   0.896   0.967  13.792  0.2623 -0.0399 -0.0218
 2231TIP3    H128184   0.968   0.992  13.733  0.2470  1.3672  0.5294
 2231TIP3    H228185   0.822   1.021  13.763  0.0215  0.0415  0.7378
 2232TIP3   OH228186   3.876   0.915  13.973 -0.8347  0.1348 -0.0169
 2232TIP3    H128187   3.803   0.930  14.033 -0.1255  0.4855  0.7759
 2232TIP3    H228188   3.880   0.995  13.920 -0.2935  0.6202  0.7375
 2233TIP3   OH228189   2.048   1.362  16.321 -0.2224  0.3775 -0.3334
 2233TIP3    H128190   1.960   1.331  16.341 -0.2155  0.1627 -0.6249
 2233TIP3    H228191   2.099   1.342  16.400  0.1264 -1.7412 -1.0555
 2234TIP3   OH228192   5.171   6.592   2.766  0.0682  0.0373 -0.4586
 2234TIP3    H128193   5.152   6.500   2.749 -0.2050  0.0015  0.0465
 2234TIP3    H228194   5.133   6.610   2.852 -0.8036  0.9003 -1.0137
 2235TIP3   OH228195   2.873   0.265   6.124 -0.4300 -0.0007  0.4077
 2235TIP3    H128196   2.925   0.336   6.161 -0.9515  0.9301 -0.6083
 2235TIP3    H228197   2.798   0.257   6.183  0.5730 -0.9761  1.5651
 2236TIP3   OH228198   6.344   5.915   2.155  0.0618  0.8978 -0.2433
 2236TIP3    H128199   6.274   5.978   2.141 -2.1001 -1.6773 -1.5350
 2236TIP3    H228200   6.360   5.917   2.249 -2.4932  0.7898  0.2239
 2237TIP3   OH228201   6.071   0.893  15.022 -0.0887  0.2014 -0.3074
 2237TIP3    H128202   6.131   0.897  15.096  0.8055  1.2864 -1.0724
 2237TIP3    H228203   6.000   0.836  15.051  2.6161 -3.3231 -0.2678
 2238TIP3   OH228204   3.245   2.641   5.894 -0.4314  0.0986  0.6044
 2238TIP3    H128205   3.309   2.620   5.962  0.4232  3.3335  0.8669
 2238TIP3    H228206   3.172   2.681   5.941 -0.9797 -0.0575 -0.0978
 2239TIP3   OH228207   1.689   1.966   0.685  0.6032 -0.2686 -0.5034
 2239TIP3    H128208   1.603   1.948   0.723  1.8695 -2.0514  1.6016
 2239TIP3    H228209   1.712   1.885   0.640  1.7906 -0.2862  0.1354
 2240TIP3   OH228210   3.160   3.025   0.522  0.0990 -0.5330 -0.5617
 2240TIP3    H128211   3.172   2.965   0.595  2.8082 -0.8661 -1.2165
 2240TIP3    H228212   3.249   3.045   0.493 -0.8589  1.4776 -2.2376
 2241TIP3   OH228213   1.864   4.842  14.835 -0.5703 -0.2732  0.0019
 2241TIP3    H128214   1.813   4.795  14.769 -1.0570 -0.5875  0.6031
 2241TIP3    H228215   1.900   4.918  14.788 -0.1918 -0.9714 -0.8428
 2242TIP3   OH228216   4.086   5.232  16.808 -0.3609  0.1055  0.5744
 2242TIP3    H128217   4.039   5.149  16.794 -0.7319  0.2861  0.7339
 2242TIP3    H228218   4.059   5.287  16.734  1.8061 -0.7530 -0.8878
 2243TIP3   OH228219   3.130   4.499  11.174  0.5451 -0.0802  0.0558
 2243TIP3    H128220   3.041   4.468  11.160  1.4621 -2.8767  0.0630
 2243TIP3    H228221   3.143   4.568  11.108 -1.6771  0.5477  0.2518
 2244TIP3   OH228222   2.374   4.208  14.216  0.4411 -0.0373 -0.0304
 2244TIP3    H128223   2.315   4.243  14.283 -1.6043 -0.0374 -1.7928
 2244TIP3    H228224   2.350   4.254  14.136  2.2450 -0.6981 -0.9922
 2245TIP3   OH228225   1.857   5.836   5.749  0.3425  0.5016 -0.3251
 2245TIP3    H128226   1.836   5.898   5.819  0.4168  0.9020 -0.6549
 2245TIP3    H228227   1.831   5.751   5.784  0.5675  0.6740  0.2722
 2246TIP3   OH228228   1.564   4.975  15.442  0.4944  0.3278  0.3073
 2246TIP3    H128229   1.489   4.959  15.500  0.3325  0.0716  0.0264
 2246TIP3    H228230   1.602   5.056  15.476  0.6956 -0.0802  1.0750
 2247TIP3   OH228231   2.326   2.654   1.873  0.2464  0.1160 -0.4942
 2247TIP3    H128232   2.408   2.633   1.918  0.2844 -0.7304 -0.9552
 2247TIP3    H228233   2.300   2.572   1.831 -0.7365  0.4341 -0.5129
 2248TIP3   OH228234   1.896   6.025  15.253 -0.9205  0.1887  0.0044
 2248TIP3    H128235   1.899   6.063  15.165  3.4769 -0.7329 -0.3609
 2248TIP3    H228236   1.882   5.931  15.238 -0.7309  0.1126  0.2966
 2249TIP3   OH228237   0.292   6.201   0.384  0.2311  0.7825 -0.0664
 2249TIP3    H128238   0.341   6.120   0.390 -1.8705 -0.3881  2.2233
 2249TIP3    H228239   0.301   6.229   0.293  0.3990 -2.3841 -1.0481
 2250TIP3   OH228240   4.224   6.494   0.834  0.5290 -0.0602  0.6275
 2250TIP3    H128241   4.130   6.483   0.820  0.9400 -1.0813 -1.5052
 2250TIP3    H228242   4.250   6.415   0.881 -0.0353  1.2499  3.2512
 2251TIP3   OH228243   3.746   6.455  13.312 -0.4005  0.3137 -0.3411
 2251TIP3    H128244   3.691   6.424  13.240 -0.5974 -1.3258  0.4892
 2251TIP3    H228245   3.819   6.393  13.315  1.9697  2.8926 -1.9225
 2252TIP3   OH228246   6.164   5.089   5.649  0.3559 -0.6939  0.3665
 2252TIP3    H128247   6.225   5.076   5.722  0.4541  2.3243  0.8646
 2252TIP3    H228248   6.157   5.184   5.640 -3.2958 -0.9820 -0.5259
 2253TIP3   OH228249   2.065   5.164  14.610 -0.4252 -0.1396  0.2411
 2253TIP3    H128250   2.101   5.242  14.652 -1.1916  0.1027  0.4543
 2253TIP3    H228251   2.034   5.109  14.682  0.3289 -0.7580  0.1036
 2254TIP3   OH228252   3.041   6.342   5.051 -0.6405  0.1232  0.2917
 2254TIP3    H128253   2.958   6.298   5.066  0.3812 -1.8200  0.4514
 2254TIP3    H228254   3.100   6.305   5.117  0.9258 -0.1503 -1.2209
 2255TIP3   OH228255   4.083   1.013   0.137 -0.2530  0.4546 -0.3502
 2255TIP3    H128256   4.157   1.066   0.106 -0.2286 -0.6547 -2.2572
 2255TIP3    H228257   4.105   0.992   0.227  1.8875 -0.0504 -0.9701
 2256TIP3   OH228258   3.273   1.413  10.560  0.1497 -0.8498 -0.1130
 2256TIP3    H128259   3.222   1.442  10.484  1.2865 -0.6026 -0.8065
 2256TIP3    H228260   3.360   1.451  10.546 -0.3844  1.6512  2.7942
 2257TIP3   OH228261   4.388   1.311   0.397 -0.2051 -0.0732  0.3458
 2257TIP3    H128262   4.385   1.223   0.435  0.2193 -0.0637  0.3979
 2257TIP3    H228263   4.404   1.369   0.472 -0.3017  0.0343  0.2844
 2258TIP3   OH228264   2.327   4.522   4.554 -0.4086 -0.0552  0.2838
 2258TIP3    H128265   2.396   4.542   4.616 -2.3828 -0.6860  2.7665
 2258TIP3    H228266   2.366   4.461   4.492  0.4197 -2.9098  3.4817
 2259TIP3   OH228267   1.251   0.715  13.173 -0.2371  0.5937  0.1346
 2259TIP3    H128268   1.226   0.803  13.147  1.5859  0.0482 -3.9668
 2259TIP3    H228269   1.206   0.658  13.111 -0.0538 -1.2459  1.6506
 2260TIP3   OH228270   6.282   5.809   0.553 -0.8451  0.1589 -0.5705
 2260TIP3    H128271   6.209   5.779   0.499 -2.0292  1.4397  0.2733
 2260TIP3    H228272   6.308   5.892   0.513 -0.1077 -0.0999 -0.6310
 2261TIP3   OH228273   4.741   0.605  15.894 -0.7567  0.0950  0.5087
 2261TIP3    H128274   4.797   0.533  15.865 -1.1888  0.1782 -0.5836
 2261TIP3    H228275   4.695   0.632  15.815 -1.0584  1.1647  1.0429
 2262TIP3   OH228276   3.306   0.814   5.140  0.0501  0.0411 -0.0132
 2262TIP3    H128277   3.270   0.901   5.157  0.0676  0.0722 -0.1311
 2262TIP3    H228278   3.361   0.826   5.063 -0.0044 -0.0896 -0.0728
 2263TIP3   OH228279   5.356   0.881  12.007  0.2223 -0.6025  1.0166
 2263TIP3    H128280   5.429   0.819  12.014  1.0334  0.5281  3.0297
 2263TIP3    H228281   5.311   0.874  12.091  0.2687  1.4592  1.2280
 2264TIP3   OH228282   5.344   6.043  14.389 -0.3116  0.3247  0.7484
 2264TIP3    H128283   5.354   6.047  14.484  0.8190  1.9367  0.5904
 2264TIP3    H228284   5.431   6.022  14.356 -0.5750  0.3093  0.0504
 2265TIP3   OH228285   5.552   0.481   2.404  0.3337 -0.4126 -0.0148
 2265TIP3    H128286   5.499   0.412   2.362  2.1343 -0.4830 -2.2682
 2265TIP3    H228287   5.527   0.561   2.358  1.5770 -0.3306 -0.5788
 2266TIP3   OH228288   6.019   5.106   4.415  0.3944  0.3289 -0.3428
 2266TIP3    H128289   6.087   5.162   4.375 -1.3403  2.2373 -0.7205
 2266TIP3    H228290   5.981   5.161   4.483 -1.7252 -0.2000 -1.0847
 2267TIP3   OH228291   2.724   3.980  15.063  0.0717  0.7075  0.1737
 2267TIP3    H128292   2.816   3.956  15.066  0.0702  0.8827  1.9079
 2267TIP3    H228293   2.695   3.953  14.975  2.2526  2.5103 -1.1521
 2268TIP3   OH228294   1.602   0.101  17.194  0.1627  0.3599 -0.4915
 2268TIP3    H128295   1.667   0.146  17.248  1.1937  0.2531 -1.6386
 2268TIP3    H228296   1.632   0.112  17.104 -0.8005 -0.6569 -0.9590
 2269TIP3   OH228297   1.857   4.252  11.553 -0.0859  0.0652  0.5454
 2269TIP3    H128298   1.786   4.316  11.552 -0.8264 -0.7305  1.4929
 2269TIP3    H228299   1.820   4.176  11.597  1.7042  0.0494  2.0848
 2270TIP3   OH228300   2.827   0.467   4.190 -0.0116 -0.3957 -0.0676
 2270TIP3    H128301   2.888   0.503   4.125 -0.9330 -0.0206 -0.7382
 2270TIP3    H228302   2.769   0.409   4.140  0.4787 -1.6103  0.7512
 2271TIP3   OH228303   0.926   4.153   0.512 -0.5572  0.6532 -0.4513
 2271TIP3    H128304   0.873   4.191   0.583 -0.8009 -0.9053  0.2158
 2271TIP3    H228305   1.016   4.174   0.536 -0.6717  0.5905  0.0477
 2272TIP3   OH228306   0.600   0.271   4.508 -0.0593  0.2029 -0.0738
 2272TIP3    H128307   0.625   0.281   4.600  0.5881 -0.4888 -0.1729
 2272TIP3    H228308   0.577   0.360   4.480 -3.4439 -0.0287  1.6649
 2273TIP3   OH228309   2.296   3.970  11.451  0.6733 -0.1698 -0.2509
 2273TIP3    H128310   2.338   3.950  11.368 -0.5264 -0.8947 -0.6884
 2273TIP3    H228311   2.224   4.029  11.429  0.1951 -0.5629  0.2338
 2274TIP3   OH228312   4.330   5.701  11.802  0.4315 -0.9244  0.2553
 2274TIP3    H128313   4.347   5.672  11.712 -1.4403  0.2470 -0.5206
 2274TIP3    H228314   4.416   5.719  11.839  1.2976 -2.5395 -0.9236
 2275TIP3   OH228315   4.548   4.626   2.285  0.4846  0.3992 -1.2245
 2275TIP3    H128316   4.478   4.679   2.246 -0.0654 -0.6401 -1.6752
 2275TIP3    H228317   4.628   4.675   2.267 -0.2490  2.3108  0.5300
 2276TIP3   OH228318   6.004   0.711   4.946  0.3649  0.2111 -0.0965
 2276TIP3    H128319   5.990   0.622   4.915  1.4453 -0.6281  1.7147
 2276TIP3    H228320   5.923   0.733   4.993  0.2133  0.0723 -0.2956
 2277TIP3   OH228321   6.034   0.847  16.130 -0.3455  0.6381  0.7178
 2277TIP3    H128322   5.956   0.809  16.090  1.2939 -2.8914  0.6414
 2277TIP3    H228323   6.076   0.896  16.060 -1.3387  0.6866  0.1475
 2278TIP3   OH228324   3.489   6.388   3.874 -0.3355  0.2147  0.4959
 2278TIP3    H128325   3.482   6.309   3.927  1.6368  1.4421  2.7325
 2278TIP3    H228326   3.583   6.397   3.857 -0.7678  0.8655 -1.6467
 2279TIP3   OH228327   5.107   5.513   4.629 -0.2854 -0.2920  0.7813
 2279TIP3    H128328   5.202   5.499   4.623 -0.4257 -1.5457  1.2880
 2279TIP3    H228329   5.087   5.574   4.558  0.5858 -1.7240 -0.7288
 2280TIP3   OH228330   0.097   1.682  17.273  0.3332  0.2943  0.2154
 2280TIP3    H128331   0.033   1.674  17.202  0.2741 -3.5756  0.5906
 2280TIP3    H228332   0.049   1.723  17.345 -0.0579  2.7576 -1.3810
 2281TIP3   OH228333   1.626   3.817  11.308 -0.6438 -0.2470  0.0487
 2281TIP3    H128334   1.611   3.909  11.288 -1.7040 -0.6341 -0.9779
 2281TIP3    H228335   1.685   3.787  11.239 -3.3821 -1.2970 -1.8864
 2282TIP3   OH228336   5.878   6.136  12.667 -0.0383 -0.0220 -0.1578
 2282TIP3    H128337   5.952   6.179  12.709  0.2885  1.3997 -2.1168
 2282TIP3    H228338   5.868   6.181  12.583 -2.3974 -0.9481 -0.4312
 2283TIP3   OH228339   2.379   0.192  13.650 -0.0318  0.3899  0.1994
 2283TIP3    H128340   2.377   0.286  13.669 -0.1744  0.4111  0.0783
 2283TIP3    H228341   2.424   0.186  13.565 -0.9959  0.4351 -0.3273
 2284TIP3   OH228342   1.128   5.617  12.967  0.0631 -0.1295 -0.3121
 2284TIP3    H128343   1.099   5.638  12.878 -0.5634 -0.5596 -0.2139
 2284TIP3    H228344   1.051   5.577  13.009  1.5849 -3.8805 -0.8964
 2285TIP3   OH228345   2.976   6.307   2.752  0.4877 -0.1603  0.2843
 2285TIP3    H128346   2.985   6.265   2.838 -3.3727  1.3532  1.5710
 2285TIP3    H228347   2.931   6.242   2.699 -0.5133  0.2721  0.5896
 2286TIP3   OH228348   5.926   5.921  13.384  0.1056 -0.4451 -0.1035
 2286TIP3    H128349   5.942   5.827  13.389  0.3313 -0.3122  2.7497
 2286TIP3    H228350   5.831   5.929  13.378  0.1146 -0.8451 -0.8873
 2287TIP3   OH228351   4.870   1.186  15.752  0.1831 -0.2697  0.2291
 2287TIP3    H128352   4.866   1.090  15.751  1.8413 -0.3496 -1.9848
 2287TIP3    H228353   4.960   1.206  15.781 -0.2624  0.6449  1.0256
 2288TIP3   OH228354   1.150   5.486   5.642 -0.5425 -0.0558  0.1699
 2288TIP3    H128355   1.143   5.441   5.557  1.5541  2.0224 -1.1646
 2288TIP3    H228356   1.077   5.547   5.643 -1.9578 -1.7121  0.9279
 2289TIP3   OH228357   0.187   6.234   5.974  0.5891  0.2487  0.8804
 2289TIP3    H128358   0.261   6.282   6.010 -0.8101  0.9000  3.0042
 2289TIP3    H228359   0.146   6.193   6.051 -1.7421  0.6115 -0.1427
 2290TIP3   OH228360   2.409   1.853   4.132 -0.2223  0.2042 -0.1217
 2290TIP3    H128361   2.335   1.870   4.190 -0.2568  0.9799 -0.3876
 2290TIP3    H228362   2.428   1.938   4.092 -0.0167 -0.2629 -1.0242
 2291TIP3   OH228363   6.733   5.420   3.243 -0.0918 -0.1280 -0.5798
 2291TIP3    H128364   6.736   5.515   3.250  1.9746 -0.1984 -0.0610
 2291TIP3    H228365   6.785   5.400   3.165  0.6097 -0.8921  0.0742
 2292TIP3   OH228366   0.146   5.176  17.202 -0.2669 -0.2137 -0.5093
 2292TIP3    H128367   0.238   5.201  17.203 -0.2046 -0.3760 -1.5708
 2292TIP3    H228368   0.144   5.090  17.245  0.1254 -0.3455 -0.7465
 2293TIP3   OH228369   1.175   6.770   2.402  0.0247  0.5774  0.0648
 2293TIP3    H128370   1.244   6.704   2.406 -1.3592 -0.8611  1.0553
 2293TIP3    H228371   1.126   6.747   2.323  0.2106  1.1040 -0.2013
 2294TIP3   OH228372   0.879   3.800  11.554 -0.1341 -0.4627 -0.1513
 2294TIP3    H128373   0.829   3.882  11.545 -2.3272 -1.8150 -0.6426
 2294TIP3    H228374   0.846   3.745  11.483  1.9915 -1.4680 -0.3935
 2295TIP3   OH228375   2.348   3.253   2.580  0.0873  0.5646  0.0583
 2295TIP3    H128376   2.322   3.320   2.644 -2.3748 -0.8455  0.6220
 2295TIP3    H228377   2.424   3.211   2.619 -0.2508  0.9641  1.1823
 2296TIP3   OH228378   5.995   2.758   0.848  0.0434 -0.0809 -0.1390
 2296TIP3    H128379   6.022   2.725   0.933 -2.2350 -1.7167 -0.0114
 2296TIP3    H228380   5.967   2.680   0.800  0.5557  0.9152 -2.1134
 2297TIP3   OH228381   3.364   6.661  13.236 -0.2747  0.7253  0.2370
 2297TIP3    H128382   3.423   6.653  13.162 -2.1584  2.4483 -1.5198
 2297TIP3    H228383   3.285   6.615  13.210 -0.0353 -0.8962  2.2494
 2298TIP3   OH228384   0.743   3.772  12.721  0.3657  0.0008  0.3096
 2298TIP3    H128385   0.740   3.677  12.705  0.8782 -0.0823  0.6881
 2298TIP3    H228386   0.836   3.794  12.713  0.1320  0.6280 -0.6566
 2299TIP3   OH228387   4.740   6.699  13.850 -0.0025  0.2593  0.2173
 2299TIP3    H128388   4.692   6.684  13.769 -0.4406  0.8152  0.3722
 2299TIP3    H228389   4.691   6.768  13.895  1.1894  1.1771  0.1529
 2300TIP3   OH228390   1.908   1.755  13.925 -0.6097  0.4130  0.5400
 2300TIP3    H128391   1.963   1.750  14.003 -1.3121 -1.1766  0.9669
 2300TIP3    H228392   1.836   1.813  13.951  0.0672  1.2829  0.4859
 2301TIP3   OH228393   5.297   6.792   4.092 -0.3320 -0.3725 -0.9176
 2301TIP3    H128394   5.262   6.710   4.060  0.0684 -0.9535  0.0903
 2301TIP3    H228395   5.392   6.778   4.094 -0.4228 -0.8875  1.8580
 2302TIP3   OH228396   5.978   5.708   1.001  0.2113 -0.2648 -0.8332
 2302TIP3    H128397   6.052   5.738   0.948  1.8331 -2.3912  0.1470
 2302TIP3    H228398   5.959   5.620   0.969  0.6214 -1.2206  1.4558
 2303TIP3   OH228399   0.817   1.893  13.641 -0.0802  0.0966  0.5384
 2303TIP3    H128400   0.814   1.917  13.549 -0.4250 -0.4898  0.3930
 2303TIP3    H228401   0.746   1.829  13.652  0.7395 -0.7699  0.9347
 2304TIP3   OH228402   3.014   2.598   3.734  0.4044 -0.0880 -0.0030
 2304TIP3    H128403   3.020   2.615   3.640  1.9816  1.3902  0.3306
 2304TIP3    H228404   2.925   2.624   3.758  0.2611  0.3064 -0.9476
 2305TIP3   OH228405   3.630   1.920   1.625 -0.0803  0.5999  0.2791
 2305TIP3    H128406   3.613   1.881   1.539  1.7406 -1.6538  0.9153
 2305TIP3    H228407   3.591   1.859   1.687  1.0986  0.7743  1.1953
 2306TIP3   OH228408   4.949   3.854   3.961 -0.1862 -0.1024 -0.5370
 2306TIP3    H128409   4.982   3.928   3.910  0.8993  1.1775  1.9286
 2306TIP3    H228410   4.859   3.879   3.984  0.0966  0.3607  0.0871
 2307TIP3   OH228411   2.950   1.125   6.496  0.1454  0.0554 -0.3012
 2307TIP3    H128412   2.897   1.196   6.461 -1.2189 -0.7220  0.1542
 2307TIP3    H228413   3.028   1.168   6.532 -0.2469  1.2180 -0.8206
 2308TIP3   OH228414   3.815   6.159  13.865  0.3246  0.3125  0.3056
 2308TIP3    H128415   3.870   6.082  13.880 -1.0408 -0.8154 -0.3285
 2308TIP3    H228416   3.831   6.215  13.941  2.5449  0.1425 -0.0026
 2309TIP3   OH228417   0.996   5.431   2.029 -0.0681  0.3257  0.5412
 2309TIP3    H128418   0.975   5.523   2.013 -1.7230 -0.1916 -0.3707
 2309TIP3    H228419   0.984   5.421   2.123 -2.9855  0.3244  0.2204
 2310TIP3   OH228420   6.553   0.505   5.362 -0.0906  0.1772 -0.3080
 2310TIP3    H128421   6.645   0.526   5.378 -0.3485  1.6866 -0.7208
 2310TIP3    H228422   6.553   0.413   5.338  1.3962  0.3520 -1.0113
 2311TIP3   OH228423   0.884   4.195  12.560 -0.5119  0.1728  0.5851
 2311TIP3    H128424   0.814   4.136  12.587 -0.1977  0.1250  1.3283
 2311TIP3    H228425   0.881   4.266  12.625 -2.1014  1.9506 -1.3678
 2312TIP3   OH228426   0.670   1.326   3.827  0.2531 -0.4431  0.0922
 2312TIP3    H128427   0.653   1.390   3.896 -0.0279 -1.3580  0.8761
 2312TIP3    H228428   0.634   1.244   3.860  2.0412 -1.3740 -0.2251
 2313TIP3   OH228429   1.060   6.575  12.252  0.9028 -0.6690 -0.5187
 2313TIP3    H128430   1.008   6.647  12.218  0.3608 -0.4090  0.8323
 2313TIP3    H228431   1.148   6.612  12.262  0.1500  0.4945  2.2617
 2314TIP3   OH228432   4.692   1.100   4.173  0.1351  0.1912 -0.4035
 2314TIP3    H128433   4.721   1.180   4.130 -1.5957  0.7497 -0.5881
 2314TIP3    H228434   4.621   1.128   4.231 -1.4956 -1.3918 -1.5536
 2315TIP3   OH228435   6.366   1.855   6.100  0.3027 -0.1453  0.4753
 2315TIP3    H128436   6.450   1.836   6.141 -0.6297 -0.3343  2.3469
 2315TIP3    H228437   6.313   1.893   6.170 -1.0908  0.1833 -0.7411
 2316TIP3   OH228438   4.662   5.063  12.508 -0.5542  0.4468  0.6775
 2316TIP3    H128439   4.646   4.997  12.441  1.7267  0.0100  0.5040
 2316TIP3    H228440   4.587   5.057  12.568 -1.3323 -0.9159 -0.4264
 2317TIP3   OH228441   3.083   1.795  17.218  0.2848  0.1882 -0.1218
 2317TIP3    H128442   3.060   1.873  17.268  0.6616 -0.4986  1.1340
 2317TIP3    H228443   3.173   1.775  17.244  0.0917 -0.8313 -0.2159
 2318TIP3   OH228444   0.547   0.085  11.679 -0.1269 -0.4682 -0.0339
 2318TIP3    H128445   0.616   0.094  11.613 -0.6921 -2.2027 -0.9083
 2318TIP3    H228446   0.595   0.079  11.762  0.6175  1.1114 -0.3267
 2319TIP3   OH228447   4.755   5.022  11.168 -0.4363  0.2924  0.1290
 2319TIP3    H128448   4.721   5.108  11.145  1.7733  1.5273  1.3130
 2319TIP3    H228449   4.839   5.017  11.124  0.1321 -0.6340  1.2883
 2320TIP3   OH228450   6.744   2.276   2.508  0.0157 -0.0381 -0.0213
 2320TIP3    H128451   6.668   2.305   2.457 -0.1243  0.3597  0.4160
 2320TIP3    H228452   6.710   2.263   2.596  0.4028 -0.1116  0.1172
 2321TIP3   OH228453   1.058   3.786   1.638 -0.2040 -0.5633  0.3480
 2321TIP3    H128454   1.081   3.875   1.664  0.1379 -0.2582 -0.9715
 2321TIP3    H228455   1.124   3.731   1.680  0.6544 -0.0299 -0.2838
 2322TIP3   OH228456   4.639   0.439  14.687 -0.1607  0.3078  0.2600
 2322TIP3    H128457   4.561   0.436  14.742 -0.0054  0.6067  0.4927
 2322TIP3    H228458   4.610   0.405  14.602 -0.0298 -1.6632  0.9767
 2323TIP3   OH228459   4.617   0.724  13.847 -0.0235 -0.0622 -0.0417
 2323TIP3    H128460   4.648   0.813  13.868  0.3789 -0.5708  1.5740
 2323TIP3    H228461   4.635   0.673  13.925  1.8719 -2.1524 -1.7728
 2324TIP3   OH228462   0.748   4.046  11.501  0.0780  0.1904  0.2742
 2324TIP3    H128463   0.733   4.104  11.427 -1.3747  0.6489  0.9118
 2324TIP3    H228464   0.788   4.102  11.568 -0.5401  0.2701  0.5819
 2325TIP3   OH228465   2.006   6.501  14.644  0.2873  0.2908  0.1478
 2325TIP3    H128466   1.990   6.437  14.574  1.3520 -1.0063  1.0476
 2325TIP3    H228467   2.096   6.531  14.630  0.7045 -0.3888  1.2451
 2326TIP3   OH228468   0.944   2.042   4.762  0.4970  0.3052  0.1365
 2326TIP3    H128469   0.871   2.098   4.789  1.1986  2.2372 -1.8354
 2326TIP3    H228470   0.904   1.956   4.747 -0.9021  0.6881  1.5104
 2327TIP3   OH228471   1.774   0.435  14.637 -0.2124 -0.1353 -0.0816
 2327TIP3    H128472   1.724   0.498  14.689 -1.1647  0.3006 -1.4958
 2327TIP3    H228473   1.857   0.480  14.619  0.8646 -0.9805  2.5238
 2328TIP3   OH228474   0.328   0.796   3.541  0.0418 -0.0541  0.1762
 2328TIP3    H128475   0.241   0.771   3.508  0.6404 -0.5969 -1.0203
 2328TIP3    H228476   0.318   0.796   3.636 -1.4370  0.4920  0.0422
 2329TIP3   OH228477   4.918   4.434  11.312  0.0951  0.4530  0.7815
 2329TIP3    H128478   4.832   4.476  11.315  0.7212  1.7019  2.2120
 2329TIP3    H228479   4.939   4.428  11.218 -1.2713  0.7293  0.4548
 2330TIP3   OH228480   6.691   4.319  13.455 -0.3763 -0.0456 -0.5070
 2330TIP3    H128481   6.696   4.359  13.368  0.6199  0.4466 -0.2387
 2330TIP3    H228482   6.700   4.393  13.516  1.0514 -0.5990 -0.0015
 2331TIP3   OH228483   6.565   6.512   4.598 -0.1071  0.0389  0.5801
 2331TIP3    H128484   6.609   6.427   4.601  1.0487  0.4938 -1.6444
 2331TIP3    H228485   6.608   6.565   4.665  1.3852 -0.1687 -0.1912
 2332TIP3   OH228486   3.984   1.422   4.131  0.1867 -0.2743  0.1662
 2332TIP3    H128487   3.950   1.426   4.041 -1.0750  1.4192  0.6978
 2332TIP3    H228488   4.056   1.485   4.132 -0.0791  0.0272  0.4495
 2333TIP3   OH228489   3.516   5.451   1.239 -0.5712 -0.0115  0.1459
 2333TIP3    H128490   3.496   5.511   1.167  2.5877  0.7996 -0.1209
 2333TIP3    H228491   3.520   5.365   1.199 -0.1238  0.2655 -0.4002
 2334TIP3   OH228492   1.676   1.920   2.901  0.3394 -0.2448 -0.6464
 2334TIP3    H128493   1.753   1.942   2.954 -0.1840  1.8131 -0.6845
 2334TIP3    H228494   1.711   1.881   2.821  1.2915 -0.2775 -0.2096
 2335TIP3   OH228495   1.464   6.650  14.165 -0.4422  0.2579  0.2219
 2335TIP3    H128496   1.490   6.576  14.109 -1.6200 -0.5373  0.7096
 2335TIP3    H228497   1.545   6.699  14.179  0.4490 -1.2094  0.2909
 2336TIP3   OH228498   5.665   2.863   2.233  0.8110 -0.1977  0.4369
 2336TIP3    H128499   5.628   2.940   2.275  1.0061  0.3362 -0.3526
 2336TIP3    H228500   5.626   2.861   2.146  0.3193 -1.3569  0.6628
 2337TIP3   OH228501   4.622   4.078  13.263 -0.0774  0.2025  0.4707
 2337TIP3    H128502   4.617   4.079  13.168 -0.0608  0.2152  0.4710
 2337TIP3    H228503   4.541   4.035  13.292  0.6533 -1.2334  0.4023
 2338TIP3   OH228504   3.817   0.870  11.503 -0.6318 -0.2082 -0.0465
 2338TIP3    H128505   3.890   0.865  11.441  0.7333 -1.9292  1.6043
 2338TIP3    H228506   3.791   0.779  11.516 -2.7128  0.3631 -0.1684
 2339TIP3   OH228507   6.599   6.154   5.677  0.1421 -0.1876 -0.1026
 2339TIP3    H128508   6.659   6.217   5.639  0.8781 -1.6822 -1.5005
 2339TIP3    H228509   6.512   6.193   5.666  0.4481 -0.0766 -2.2970
 2340TIP3   OH228510   4.999   1.323   3.996 -0.0646  0.7831 -0.0496
 2340TIP3    H128511   4.998   1.296   4.088  1.1407 -0.0264 -0.2621
 2340TIP3    H228512   4.939   1.262   3.954 -0.1481  0.7650  0.0934
 2341TIP3   OH228513   6.015   3.379  16.163  0.2118  0.4955 -0.0510
 2341TIP3    H128514   6.013   3.355  16.071  0.9839  2.4353 -0.5878
 2341TIP3    H228515   6.106   3.404  16.180 -0.3002  1.8991  0.7520
 2342TIP3   OH228516   5.429   3.749  16.899  0.2440 -0.1628  0.1349
 2342TIP3    H128517   5.471   3.797  16.828  0.9624 -0.5342  0.3134
 2342TIP3    H228518   5.340   3.731  16.867  0.3349  0.3097 -0.3706
 2343TIP3   OH228519   2.249   5.926   1.180  0.0955  0.0667  0.0887
 2343TIP3    H128520   2.190   5.873   1.127  0.9931 -0.8199 -0.0447
 2343TIP3    H228521   2.334   5.882   1.173  0.2335 -0.0528  2.2475
 2344TIP3   OH228522   6.064   5.118  16.980  0.3414  0.0118  0.0080
 2344TIP3    H128523   6.145   5.084  17.018 -0.1987 -0.5906  0.6540
 2344TIP3    H228524   6.011   5.040  16.964 -0.9558  0.5337  1.5893
 2345TIP3   OH228525   0.242   1.169   2.696 -0.6813  0.3450  0.1768
 2345TIP3    H128526   0.211   1.171   2.786 -2.9268 -0.5960 -0.5220
 2345TIP3    H228527   0.228   1.258   2.664 -0.4394  0.5275  0.5743
 2346TIP3   OH228528   5.373   3.765  13.893  0.3650 -0.2805  0.0407
 2346TIP3    H128529   5.437   3.743  13.962  0.7341 -1.2126 -0.5923
 2346TIP3    H228530   5.405   3.719  13.816 -1.2113 -0.9314 -0.2322
 2347TIP3   OH228531   0.065   4.388   0.030  0.1221  1.0830  1.0038
 2347TIP3    H128532   0.150   4.418   0.063  0.7088 -0.2383  0.7433
 2347TIP3    H228533   0.086   4.309  -0.021 -0.8511  2.5344 -1.7505
 2348TIP3   OH228534   2.243   5.021   5.307  0.2459  0.4290  0.5604
 2348TIP3    H128535   2.215   5.091   5.248 -0.9352 -0.2626  0.2891
 2348TIP3    H228536   2.214   4.940   5.263 -0.1607 -0.1112  1.8153
 2349TIP3   OH228537   2.759   3.095   4.891  0.3914  0.0193 -0.3870
 2349TIP3    H128538   2.672   3.101   4.851 -0.4286  1.3476  1.5286
 2349TIP3    H228539   2.767   3.175   4.943  1.5290 -1.4924  1.8518
 2350TIP3   OH228540   3.846   1.095  17.182 -0.5811 -0.0096  0.0375
 2350TIP3    H128541   3.905   1.165  17.211 -2.5773  1.5533  0.4211
 2350TIP3    H228542   3.842   1.035  17.256  0.6142 -0.1882 -0.0309
 2351TIP3   OH228543   3.793   3.317   2.638  0.0524  0.2996  0.1787
 2351TIP3    H128544   3.727   3.258   2.602  0.0901  1.6784 -2.2387
 2351TIP3    H228545   3.744   3.396   2.662  0.8237  1.4390 -1.8921
 2352TIP3   OH228546   4.890   1.026   0.987  0.2637 -0.3676  0.2268
 2352TIP3    H128547   4.973   1.073   0.996 -0.0446  0.1302  0.4909
 2352TIP3    H228548   4.877   1.016   0.893 -0.0423  0.7436  0.1452
 2353TIP3   OH228549   3.883   4.047   1.409 -0.5406  0.7701 -0.2410
 2353TIP3    H128550   3.874   4.097   1.490 -2.1110  1.7212 -0.9818
 2353TIP3    H228551   3.932   4.106   1.350  0.0906  0.3075 -0.1881
 2354TIP3   OH228552   4.386   5.911   0.383 -0.2695 -0.5381 -0.5302
 2354TIP3    H128553   4.363   5.914   0.476  1.7383 -0.8339 -0.0014
 2354TIP3    H228554   4.458   5.974   0.374 -0.2066 -0.7780 -1.8045
 2355TIP3   OH228555   4.267   1.681   1.158  0.8249 -0.6602 -0.6152
 2355TIP3    H128556   4.291   1.591   1.180  0.0072 -0.4640  1.1512
 2355TIP3    H228557   4.202   1.673   1.089  0.6202 -1.4233 -0.3354
 2356TIP3   OH228558   1.792   5.476  12.256 -0.1516 -0.6947 -0.5506
 2356TIP3    H128559   1.716   5.493  12.312  0.3021 -1.3028  0.2585
 2356TIP3    H228560   1.798   5.552  12.199 -1.2346 -0.5382 -0.4568
 2357TIP3   OH228561   0.995   4.926   2.176 -0.7972  0.1531 -0.0621
 2357TIP3    H128562   1.021   5.012   2.208 -0.4721  0.4339 -1.0733
 2357TIP3    H228563   0.965   4.941   2.086  1.8366 -1.1650 -1.2227
 2358TIP3   OH228564   3.008   5.659   4.596 -0.2427  0.1431  0.2948
 2358TIP3    H128565   2.986   5.571   4.566  0.3693  0.4552 -1.1098
 2358TIP3    H228566   3.062   5.695   4.526  0.5126  1.2052  1.4096
 2359TIP3   OH228567   4.911   6.500   1.645 -0.4321  0.1575 -0.5236
 2359TIP3    H128568   4.962   6.459   1.715 -1.0599 -0.7966 -0.6188
 2359TIP3    H228569   4.960   6.579   1.623  1.4932 -1.2073 -1.2312
 2360TIP3   OH228570   1.737   5.232   5.071 -0.5932 -0.1105 -0.2249
 2360TIP3    H128571   1.730   5.165   5.138  0.9970  0.5676  0.6459
 2360TIP3    H228572   1.657   5.284   5.079 -2.0996 -2.1785 -1.2633
 2361TIP3   OH228573   5.160   1.930  11.582  0.3491  0.5249  0.2920
 2361TIP3    H128574   5.150   2.025  11.572 -0.7470  0.2659 -1.1344
 2361TIP3    H228575   5.089   1.905  11.642  0.7926  0.6233  0.8727
 2362TIP3   OH228576   5.133   6.131   2.891  0.3720  0.2397  0.4390
 2362TIP3    H128577   5.080   6.052   2.899  1.8338 -0.8008 -0.0933
 2362TIP3    H228578   5.194   6.127   2.964 -0.2457  1.4457  1.0525
 2363TIP3   OH228579   6.260   6.255   1.399  0.2255 -0.0884  0.1739
 2363TIP3    H128580   6.201   6.309   1.346  0.1546 -0.0584  0.2836
 2363TIP3    H228581   6.348   6.282   1.372  0.2054 -1.6472 -1.5227
 2364TIP3   OH228582   5.522   1.815   3.168  0.2766 -0.0940  0.3143
 2364TIP3    H128583   5.558   1.884   3.111 -0.7895  0.7873  0.6807
 2364TIP3    H228584   5.599   1.770   3.203  0.9656 -0.2113 -1.2803
 2365TIP3   OH228585   6.288   2.119  15.733  0.0938  0.3497  0.2827
 2365TIP3    H128586   6.205   2.090  15.695 -0.0607  1.8027 -0.5506
 2365TIP3    H228587   6.293   2.074  15.817 -0.8377 -0.8830 -0.3028
 2366TIP3   OH228588   0.208   5.543   3.963 -0.0955  0.8406  0.2074
 2366TIP3    H128589   0.113   5.547   3.951 -0.0573 -0.6985 -0.6797
 2366TIP3    H228590   0.241   5.503   3.883  1.0075 -1.4585  1.7513
 2367TIP3   OH228591   2.861   3.050   2.519 -0.3255  0.6013  0.3298
 2367TIP3    H128592   2.948   3.046   2.479  0.5594  1.4086  2.0805
 2367TIP3    H228593   2.811   3.108   2.461  0.2195 -0.0634 -0.8285
 2368TIP3   OH228594   6.112   1.604  15.114  0.1091  0.5546  0.3298
 2368TIP3    H128595   6.026   1.603  15.072  0.3781 -0.3568 -0.2065
 2368TIP3    H228596   6.152   1.521  15.089  0.2124 -0.0694  2.5585
 2369TIP3   OH228597   6.186   1.640   0.352  0.1379  0.1173  0.6949
 2369TIP3    H128598   6.238   1.574   0.306  0.7784 -0.1062  1.7426
 2369TIP3    H228599   6.135   1.681   0.283  2.9584  1.5231 -0.6452
 2370TIP3   OH228600   1.295   5.228   0.806 -0.3000  1.3413 -0.0389
 2370TIP3    H128601   1.202   5.224   0.785  0.2738  1.6049 -2.7343
 2370TIP3    H228602   1.335   5.163   0.749  0.9387 -0.2829  2.6158
 2371TIP3   OH228603   3.928   3.220  15.292  0.1548  0.1640  0.0383
 2371TIP3    H128604   3.875   3.152  15.334 -0.3062 -0.1327 -0.9983
 2371TIP3    H228605   3.980   3.257  15.363 -1.4369  0.4666  1.0860
 2372TIP3   OH228606   6.667   2.507   5.536 -1.0779  0.3512  0.0566
 2372TIP3    H128607   6.588   2.559   5.528 -0.8893  0.6593  0.1865
 2372TIP3    H228608   6.721   2.535   5.462 -1.1340  0.0662 -0.0929
 2373TIP3   OH228609   3.500   5.420  17.099 -0.3820  0.5089  0.4625
 2373TIP3    H128610   3.548   5.492  17.057 -0.6959  0.2959 -0.2849
 2373TIP3    H228611   3.494   5.353  17.030 -1.0893  0.2332  0.7876
 2374TIP3   OH228612   1.592   2.464   0.220 -0.3113 -0.1541 -0.2822
 2374TIP3    H128613   1.648   2.542   0.219  0.2741 -0.5302  1.6776
 2374TIP3    H228614   1.653   2.391   0.227 -1.0441 -0.5368  2.5596
 2375TIP3   OH228615   5.293   3.617   0.479 -0.3336  1.0385  0.0237
 2375TIP3    H128616   5.358   3.587   0.543 -0.6420  3.2980  1.4804
 2375TIP3    H228617   5.218   3.560   0.493  0.0852  0.6676  0.7876
 2376TIP3   OH228618   2.106   0.299  11.305 -0.1157 -0.4254  0.2527
 2376TIP3    H128619   2.017   0.331  11.288 -0.2626 -1.6592 -1.3703
 2376TIP3    H228620   2.097   0.204  11.309  0.9921 -0.5052  0.9375
 2377TIP3   OH228621   2.700   3.462  13.380  0.5048 -1.0863 -0.6940
 2377TIP3    H128622   2.642   3.457  13.456  0.8922  2.0663 -0.1309
 2377TIP3    H228623   2.786   3.484  13.417  0.1735  3.0609 -2.1655
 2378TIP3   OH228624   2.327   5.146  12.530  0.4608 -0.1936  0.1045
 2378TIP3    H128625   2.299   5.120  12.618  0.1350 -0.5166 -0.0952
 2378TIP3    H228626   2.345   5.063  12.485 -2.7991 -0.2446 -1.2822
 2379TIP3   OH228627   2.830   2.982  16.791  0.4012  0.6975 -0.0971
 2379TIP3    H128628   2.842   2.889  16.775  0.8916  0.4101  1.8397
 2379TIP3    H228629   2.868   3.025  16.714  0.1464 -0.6793 -1.0115
 2380TIP3   OH228630   5.258   5.237  16.200  0.2632  0.7028  0.1440
 2380TIP3    H128631   5.253   5.259  16.293  1.2644 -0.1415  0.4119
 2380TIP3    H228632   5.297   5.314  16.159  2.4314  0.0363  0.8637
 2381TIP3   OH228633   6.142   2.187  12.811  0.4006  0.3712  0.1709
 2381TIP3    H128634   6.054   2.226  12.812  0.3836  0.3265  0.4459
 2381TIP3    H228635   6.127   2.096  12.783  0.0904 -0.2805  2.3819
 2382TIP3   OH228636   1.581   3.145  11.218 -0.0895  0.0967  0.2489
 2382TIP3    H128637   1.659   3.089  11.223  0.8158  1.1853 -1.4123
 2382TIP3    H228638   1.533   3.126  11.299  1.1559 -1.6743  0.5972
 2383TIP3   OH228639   4.108   1.882   3.280  0.3071  0.5618 -0.0465
 2383TIP3    H128640   4.036   1.839   3.234 -0.1413  1.2189  0.0388
 2383TIP3    H228641   4.175   1.895   3.213  2.3062 -4.3106  0.8425
 2384TIP3   OH228642   5.364   0.049   4.851  0.1095 -0.4416  0.0992
 2384TIP3    H128643   5.454   0.073   4.831  0.3607 -0.8438  0.7296
 2384TIP3    H228644   5.326   0.127   4.890 -0.0533 -0.0145 -0.9187
 2385TIP3   OH228645   3.548   3.033   2.840  0.2012 -0.0712  0.0795
 2385TIP3    H128646   3.600   3.061   2.916  0.2602  2.5284 -0.8780
 2385TIP3    H228647   3.573   3.093   2.770 -2.4269 -0.2131 -1.0454
 2386TIP3   OH228648   3.408   6.141  13.776 -0.0014  0.2008 -0.2678
 2386TIP3    H128649   3.461   6.121  13.852 -2.0977 -0.0178  1.1781
 2386TIP3    H228650   3.434   6.076  13.711  0.9859 -0.3341  0.6507
 2387TIP3   OH228651   5.078   1.615  12.271  0.0134 -0.1682 -0.4325
 2387TIP3    H128652   5.007   1.554  12.292  0.6808 -0.5806  0.6698
 2387TIP3    H228653   5.146   1.561  12.232 -0.5601  0.3437 -2.1628
 2388TIP3   OH228654   6.001   3.545  15.884  0.4347 -0.7437 -0.2210
 2388TIP3    H128655   6.000   3.624  15.830 -0.5638 -0.0212  0.8319
 2388TIP3    H228656   5.915   3.504  15.870  0.4965 -1.0088  0.1440
 2389TIP3   OH228657   3.248   2.711  15.585  0.7281 -0.1148 -0.1142
 2389TIP3    H128658   3.171   2.671  15.627  2.8028  0.3950  4.5014
 2389TIP3    H228659   3.267   2.654  15.511 -1.9066 -2.3417  0.8137
 2390TIP3   OH228660   2.868   6.145  14.847 -0.0006 -0.1063 -0.1553
 2390TIP3    H128661   2.828   6.190  14.772 -0.6293  0.0534  0.2777
 2390TIP3    H228662   2.950   6.110  14.812  1.4277  2.9453 -0.0728
 2391TIP3   OH228663   2.466   4.776   1.001  0.3148 -0.2746 -0.6662
 2391TIP3    H128664   2.524   4.832   0.949 -0.8079  1.3501 -0.1943
 2391TIP3    H228665   2.495   4.788   1.091  0.7794 -1.3322 -0.6616
 2392TIP3   OH228666   6.778   3.938  16.981 -0.0200 -0.2010  0.1804
 2392TIP3    H128667   6.872   3.945  16.965 -0.1129  0.6519 -0.0535
 2392TIP3    H228668   6.749   3.867  16.923  0.2618  0.4276 -0.7488
 2393TIP3   OH228669   6.751   3.782   2.159  0.1930 -0.0539 -0.0784
 2393TIP3    H128670   6.688   3.749   2.095 -0.2132 -1.3265  0.9347
 2393TIP3    H228671   6.744   3.877   2.153 -1.4395 -0.1684 -0.3956
 2394TIP3   OH228672   5.452   6.567   2.765 -0.0209  0.0353  0.5124
 2394TIP3    H128673   5.358   6.557   2.778 -0.1109  0.9867  0.6780
 2394TIP3    H228674   5.492   6.511   2.831 -0.4701 -0.6617  0.1946
 2395TIP3   OH228675   0.332   5.721  11.505  0.5549  0.2104  0.1177
 2395TIP3    H128676   0.362   5.790  11.564 -0.3653  1.8206 -1.2872
 2395TIP3    H228677   0.396   5.720  11.434  1.1278 -1.0840  0.6272
 2396TIP3   OH228678   0.693   4.433   4.682  0.6623 -0.3975  0.4207
 2396TIP3    H128679   0.681   4.485   4.762  0.3273 -0.5238  0.4553
 2396TIP3    H228680   0.727   4.349   4.713  0.4911 -0.4620  0.4382
 2397TIP3   OH228681   1.665   5.388  13.656 -0.0104  0.2800  0.2185
 2397TIP3    H128682   1.644   5.460  13.596  1.5612 -0.8223 -1.7031
 2397TIP3    H228683   1.755   5.365  13.635 -0.5836 -2.4597  0.5825
 2398TIP3   OH228684   3.493   0.241  13.836  0.0159  0.1077 -0.1278
 2398TIP3    H128685   3.434   0.205  13.769 -0.2706 -0.2803  0.3301
 2398TIP3    H228686   3.536   0.315  13.792 -2.1296  1.5300  0.0745
 2399TIP3   OH228687   3.315   1.911   6.351 -0.3495  0.8679 -0.1474
 2399TIP3    H128688   3.302   2.005   6.340  3.4945  1.2464 -2.0775
 2399TIP3    H228689   3.234   1.872   6.319 -1.2706  3.4481 -1.0652
 2400TIP3   OH228690   6.411   4.049   5.787  0.0395  0.4272 -0.2853
 2400TIP3    H128691   6.456   3.965   5.798 -3.2666 -1.2671  0.9316
 2400TIP3    H228692   6.419   4.069   5.694  1.7943 -0.6564 -0.3836
 2401TIP3   OH228693   2.733   6.582   5.584  0.6189 -0.1576  0.4374
 2401TIP3    H128694   2.813   6.533   5.566 -1.0633 -2.6543 -0.6750
 2401TIP3    H228695   2.669   6.547   5.521 -0.9758  2.7859  0.2996
 2402TIP3   OH228696   5.049   1.947   4.341  0.6940 -0.6766  0.4045
 2402TIP3    H128697   5.095   2.017   4.295  0.8228 -0.9311  0.1400
 2402TIP3    H228698   5.105   1.927   4.416  1.5860 -1.7376 -0.5175
 2403TIP3   OH228699   6.274   6.246  14.955  0.3536 -0.3401  0.0430
 2403TIP3    H128700   6.262   6.325  15.007  3.9793  0.9845 -0.9483
 2403TIP3    H228701   6.201   6.247  14.893 -0.9058  1.0093  1.5025
 2404TIP3   OH228702   2.271   2.083  12.218 -0.3346 -0.6134 -0.2589
 2404TIP3    H128703   2.341   2.105  12.280 -0.7158 -2.9527  1.0754
 2404TIP3    H228704   2.316   2.039  12.146 -0.3565 -1.6354  0.3459
 2405TIP3   OH228705   1.958   0.710  12.794  0.4472 -0.0601 -0.6270
 2405TIP3    H128706   2.010   0.783  12.828  0.7806  0.1482 -1.5871
 2405TIP3    H228707   1.964   0.718  12.699 -3.0928  1.2237 -0.8237
 2406TIP3   OH228708   3.407   2.990   0.397 -0.6120  0.1606 -0.8697
 2406TIP3    H128709   3.469   3.062   0.383 -1.3066  0.7330 -1.0471
 2406TIP3    H228710   3.462   2.913   0.411  0.1844  1.1585  1.7763
 2407TIP3   OH228711   0.521   0.090  16.529  0.2614 -0.3354 -0.2025
 2407TIP3    H128712   0.445   0.142  16.503 -0.0380 -0.8104 -0.2778
 2407TIP3    H228713   0.548   0.127  16.613  1.1592  1.1283 -1.1097
 2408TIP3   OH228714   2.712   6.448  14.805  0.1462  0.2236 -0.1353
 2408TIP3    H128715   2.771   6.442  14.730 -0.5926 -1.9891 -0.5863
 2408TIP3    H228716   2.770   6.448  14.882  0.8686  1.7238 -0.6771
 2409TIP3   OH228717   1.216   5.203   4.441 -0.2257 -0.3380  0.4769
 2409TIP3    H128718   1.260   5.199   4.356 -1.3886  0.0731 -0.1612
 2409TIP3    H228719   1.130   5.240   4.421  0.1106  1.3974  2.0764
 2410TIP3   OH228720   2.264   2.305   6.075 -0.1412  0.4991  0.1184
 2410TIP3    H128721   2.358   2.300   6.095 -0.0599  1.8441  0.0716
 2410TIP3    H228722   2.226   2.352   6.149 -0.7527  0.1745  0.0151
 2411TIP3   OH228723   2.733   6.629  14.061  0.1337 -0.4694 -0.6727
 2411TIP3    H128724   2.811   6.639  14.007  0.6363  1.0601  0.2744
 2411TIP3    H228725   2.693   6.716  14.061  0.6924 -0.1625  2.1704
 2412TIP3   OH228726   4.235   5.097  12.722 -0.0359 -0.1081 -0.3905
 2412TIP3    H128727   4.263   5.186  12.743 -2.0174  0.5796 -0.5757
 2412TIP3    H228728   4.166   5.078  12.786  1.4572 -2.1231  0.6770
 2413TIP3   OH228729   6.494   4.146  11.910  0.0236  0.1598 -0.2464
 2413TIP3    H128730   6.400   4.140  11.929  0.1662  0.0790  0.4225
 2413TIP3    H228731   6.529   4.205  11.977  0.3668  0.5841 -0.7918
 2414TIP3   OH228732   4.625   0.608  16.742 -0.4415 -0.1265 -0.1987
 2414TIP3    H128733   4.538   0.633  16.712 -0.9208  0.8613  1.9510
 2414TIP3    H228734   4.683   0.674  16.702 -1.0201  0.9150  0.6415
 2415TIP3   OH228735   4.682   1.244  11.391  0.2646 -0.0351 -0.1469
 2415TIP3    H128736   4.610   1.186  11.365  1.9397 -0.1414 -5.1081
 2415TIP3    H228737   4.643   1.331  11.392 -0.1236 -0.1703 -2.1280
 2416TIP3   OH228738   5.017   4.986   3.647  0.3919 -0.2758  0.0474
 2416TIP3    H128739   4.979   5.011   3.563  0.9804 -1.2364 -0.5032
 2416TIP3    H228740   4.972   4.905   3.671  0.6039 -0.2901  0.4019
 2417TIP3   OH228741   0.214   2.067   4.481  0.1506  0.2428  0.4955
 2417TIP3    H128742   0.286   2.010   4.454 -2.0616 -1.4339 -2.1407
 2417TIP3    H228743   0.136   2.023   4.449 -1.8176  3.6621  0.3898
 2418TIP3   OH228744   5.345   4.533   5.036 -0.2465  0.4547  0.9014
 2418TIP3    H128745   5.398   4.487   4.971 -0.4990  0.3300  0.7823
 2418TIP3    H228746   5.370   4.625   5.026  0.2241  0.3464  1.1101
 2419TIP3   OH228747   4.608   6.678   0.187  0.1476 -0.0338  0.0240
 2419TIP3    H128748   4.599   6.679   0.283  2.0585  1.3322  0.2208
 2419TIP3    H228749   4.618   6.770   0.163  2.4450 -0.5627 -1.1911
 2420TIP3   OH228750   2.400   5.252   0.340 -0.7320  0.4942 -0.0799
 2420TIP3    H128751   2.342   5.320   0.373 -1.8596 -0.7169  0.4364
 2420TIP3    H228752   2.421   5.199   0.416  0.3820  0.4145 -0.4273
 2421TIP3   OH228753   2.877   6.353  17.132  0.0279  0.1174 -0.0962
 2421TIP3    H128754   2.846   6.417  17.196 -1.7524 -0.3596 -0.4358
 2421TIP3    H228755   2.858   6.392  17.047 -1.3795 -0.9801 -0.3033
 2422TIP3   OH228756   5.914   0.690  15.709 -0.0425  0.1440 -0.1871
 2422TIP3    H128757   5.954   0.621  15.656  0.5564  0.4627 -0.1573
 2422TIP3    H228758   5.936   0.668  15.799  1.2830  1.0734 -0.2639
 2423TIP3   OH228759   4.438   5.157  13.744  0.1877  0.6067  0.2572
 2423TIP3    H128760   4.420   5.247  13.772  0.8331  0.7061  0.3670
 2423TIP3    H228761   4.458   5.111  13.826  3.3315  1.1917 -0.1496
 2424TIP3   OH228762   6.345   0.597  12.972 -0.0009  0.1242  0.2913
 2424TIP3    H128763   6.436   0.571  12.982  0.8602  2.8358 -0.1864
 2424TIP3    H228764   6.334   0.613  12.878 -1.5486 -2.0731  0.0395
 2425TIP3   OH228765   3.005   2.640   3.441  0.2103  0.0073  0.3489
 2425TIP3    H128766   3.004   2.735   3.426  0.6771  0.1430  1.1636
 2425TIP3    H228767   2.995   2.602   3.354 -1.7030  0.8142  0.1792
 2426TIP3   OH228768   3.570   4.428  13.461 -0.2510 -0.2706 -0.3950
 2426TIP3    H128769   3.663   4.425  13.482 -0.1868  3.0011 -0.0491
 2426TIP3    H228770   3.527   4.392  13.538  0.5381  1.9010  1.0873
 2427TIP3   OH228771   1.955   6.677   4.630 -0.1398  0.0643  0.3936
 2427TIP3    H128772   1.913   6.709   4.550  0.8601 -0.3809 -0.3169
 2427TIP3    H228773   2.008   6.603   4.601 -0.2244 -0.4637  1.5675
 2428TIP3   OH228774   5.036   0.685   2.615 -0.0607  0.2276 -0.1328
 2428TIP3    H128775   4.959   0.664   2.563 -0.9364 -1.0250  1.6152
 2428TIP3    H228776   5.084   0.603   2.622  0.1974  0.4465  0.7860
 2429TIP3   OH228777   2.743   2.701   2.180  0.2164 -0.5538  0.2507
 2429TIP3    H128778   2.813   2.651   2.138 -0.8866 -0.9632 -1.1168
 2429TIP3    H228779   2.773   2.792   2.177  1.4914 -0.9255  1.2847
 2430TIP3   OH228780   4.878   5.695   4.651  0.1138 -0.1146 -0.3941
 2430TIP3    H128781   4.952   5.718   4.707 -0.1492  0.1702 -0.1662
 2430TIP3    H228782   4.886   5.754   4.576  0.8874 -0.9842 -1.0202
 2431TIP3   OH228783   5.651   2.293   5.860  0.4585  0.1077 -0.1112
 2431TIP3    H128784   5.593   2.301   5.785 -0.7891  0.0116  0.8424
 2431TIP3    H228785   5.611   2.347   5.928  0.4124 -1.5612  1.2143
 2432TIP3   OH228786   3.803   4.068   0.900 -0.2016  0.2383 -0.4351
 2432TIP3    H128787   3.793   4.011   0.976 -0.5321 -0.2320 -0.8251
 2432TIP3    H228788   3.742   4.140   0.915 -0.1937  0.1978 -0.2118
 2433TIP3   OH228789   4.970   3.624   5.950 -0.7080  0.2280  0.2458
 2433TIP3    H128790   4.907   3.592   6.015  1.3809 -1.3181  1.5737
 2433TIP3    H228791   4.950   3.717   5.941 -1.1861  0.4230  2.9323
 2434TIP3   OH228792   1.161   1.968   0.316 -0.8372  0.3776 -0.6270
 2434TIP3    H128793   1.086   1.969   0.375 -0.3920  1.9034 -0.0773
 2434TIP3    H228794   1.230   2.013   0.364 -0.4915  1.7185 -2.3145
 2435TIP3   OH228795   1.596   6.449   5.416  0.1563 -0.0632  0.0814
 2435TIP3    H128796   1.618   6.366   5.375  0.4116  0.4214 -0.7777
 2435TIP3    H228797   1.572   6.426   5.506 -0.6521 -1.1708 -0.3998
 2436TIP3   OH228798   4.879   3.374  12.062 -0.2196  0.3297 -0.0811
 2436TIP3    H128799   4.959   3.403  12.105  0.8892 -1.7047 -0.7377
 2436TIP3    H228800   4.875   3.426  11.982  1.7829 -1.3293 -1.2837
 2437TIP3   OH228801   3.478   0.908   0.180 -0.4235 -0.0766  0.0293
 2437TIP3    H128802   3.387   0.936   0.174  0.3240  2.1762 -1.4959
 2437TIP3    H228803   3.509   0.946   0.263 -0.8411 -0.7644  0.5014
 2438TIP3   OH228804   5.225   2.492  14.669 -0.3248 -0.1391  0.9841
 2438TIP3    H128805   5.174   2.423  14.625  0.8183 -0.2618 -0.2041
 2438TIP3    H228806   5.195   2.573  14.630  0.1917 -0.1927  0.4558
 2439TIP3   OH228807   0.175   0.496  11.385  0.4598 -0.7898  0.1044
 2439TIP3    H128808   0.239   0.567  11.394 -0.5941  0.1828 -0.0832
 2439TIP3    H228809   0.227   0.421  11.354  1.2638  0.4217 -1.5617
 2440TIP3   OH228810   0.387   5.564  15.466 -0.2239  0.5094  0.0729
 2440TIP3    H128811   0.472   5.533  15.496 -0.8484  0.1924  1.5238
 2440TIP3    H228812   0.334   5.484  15.456 -0.6519  0.7839  0.1200
 2441TIP3   OH228813   5.762   1.521  11.874  0.3530 -0.0898 -0.5008
 2441TIP3    H128814   5.794   1.431  11.877  0.5475 -0.1047 -2.3868
 2441TIP3    H228815   5.670   1.513  11.848  0.0830  0.1944  0.3697
 2442TIP3   OH228816   2.481   2.396  16.923  0.4289 -0.3501  0.3285
 2442TIP3    H128817   2.531   2.349  16.856  0.5010  1.1729 -0.7175
 2442TIP3    H228818   2.547   2.431  16.983  0.5949  1.0933 -0.6766
 2443TIP3   OH228819   0.211   6.659  16.512 -0.3322 -0.6312  0.3959
 2443TIP3    H128820   0.224   6.626  16.423  2.7745 -0.4373  0.7288
 2443TIP3    H228821   0.245   6.749  16.509 -2.0177  0.0599  1.3169
 2444TIP3   OH228822   0.025   2.978  16.225 -0.6018 -0.7882 -0.2828
 2444TIP3    H128823   0.111   2.978  16.184 -0.7336 -0.4175 -0.5691
 2444TIP3    H228824   0.041   2.959  16.317 -0.1974 -0.5137 -0.2993
 2445TIP3   OH228825   5.360   1.055  15.607  0.2875  0.1691 -0.3215
 2445TIP3    H128826   5.362   1.110  15.528 -2.0048  0.0660 -0.4681
 2445TIP3    H228827   5.452   1.033  15.622  0.9317  1.5294 -2.0248
 2446TIP3   OH228828   4.632   6.167  11.839  0.8390  0.4334 -0.5806
 2446TIP3    H128829   4.713   6.172  11.889 -0.3298  1.7077  1.2387
 2446TIP3    H228830   4.626   6.253  11.795  0.6864  0.1832 -1.0568
 2447TIP3   OH228831   3.347   6.810   3.777  0.1979  0.2193 -0.2498
 2447TIP3    H128832   3.407   6.769   3.839  0.4526 -1.8864 -1.8065
 2447TIP3    H228833   3.265   6.761   3.787 -0.4261  1.2806 -0.0738
 2448TIP3   OH228834   5.130   5.474   1.857 -0.0484 -0.4773  0.0802
 2448TIP3    H128835   5.090   5.390   1.877 -1.4498  0.8499  3.1557
 2448TIP3    H228836   5.057   5.536   1.857  1.4691  1.3940  2.0541
 2449TIP3   OH228837   2.356   4.816   2.638  0.2045  0.7523  0.0362
 2449TIP3    H128838   2.331   4.867   2.715  0.6481  0.2959  0.4866
 2449TIP3    H228839   2.280   4.760   2.620  0.5826 -0.0596  0.9210
 2450TIP3   OH228840   4.222   5.860  13.420  0.0851 -0.2071  0.2454
 2450TIP3    H128841   4.307   5.904  13.421  0.7475 -1.4491 -0.2535
 2450TIP3    H228842   4.177   5.896  13.343  0.5383 -0.2353 -0.0360
 2451TIP3   OH228843   5.806   1.065  13.005  0.2017  0.5086  0.0711
 2451TIP3    H128844   5.836   1.116  13.080  0.0012 -0.6853  0.9795
 2451TIP3    H228845   5.809   0.974  13.035 -0.1731  0.0415 -1.2655
 2452TIP3   OH228846   0.141   5.320  16.954  0.2585 -0.2146  0.0091
 2452TIP3    H128847   0.151   5.265  16.876  1.2880  1.2589 -0.9171
 2452TIP3    H228848   0.139   5.258  17.027 -1.4735 -1.6694 -1.2256
 2453TIP3   OH228849   6.791   2.702  15.746  1.0814 -0.1398 -0.5283
 2453TIP3    H128850   6.845   2.645  15.691 -0.3147  0.0823 -2.1652
 2453TIP3    H228851   6.719   2.645  15.775 -0.9273  0.9743 -3.0577
 2454TIP3   OH228852   5.559   4.496   2.478  0.2648 -0.0889 -0.0973
 2454TIP3    H128853   5.510   4.488   2.396 -0.7948  0.0694  0.5095
 2454TIP3    H228854   5.603   4.411   2.487 -0.5103 -0.5194 -0.2703
 2455TIP3   OH228855   2.151   3.334  11.476 -0.1622  0.3822 -0.2944
 2455TIP3    H128856   2.104   3.363  11.398  0.1488 -1.6001 -1.2516
 2455TIP3    H228857   2.217   3.401  11.490  1.0803 -0.2091 -2.9379
 2456TIP3   OH228858   0.669   5.849   3.152 -0.5015  0.0405 -0.0652
 2456TIP3    H128859   0.707   5.935   3.167  1.6638 -0.9737  0.5219
 2456TIP3    H228860   0.710   5.819   3.071 -1.1004 -0.5226 -0.1637
 2457TIP3   OH228861   2.662   1.622   5.633 -0.0006 -0.2633 -0.3181
 2457TIP3    H128862   2.679   1.651   5.543  1.3869  1.9074  0.6174
 2457TIP3    H228863   2.711   1.541   5.642  0.4264 -0.1171 -1.2922
 2458TIP3   OH228864   4.454   3.497  12.065 -0.2006 -0.6722 -0.0503
 2458TIP3    H128865   4.440   3.586  12.096 -0.5167 -0.4597 -0.7953
 2458TIP3    H228866   4.446   3.442  12.143 -2.0206 -0.2529  0.0781
 2459TIP3   OH228867   0.365   0.722  12.717  0.2696  0.1517 -0.6012
 2459TIP3    H128868   0.303   0.697  12.786 -0.9849  1.7028 -1.1538
 2459TIP3    H228869   0.451   0.700  12.754 -0.5186 -1.0200  0.5970
 2460TIP3   OH228870   0.670   2.771  10.715 -0.4666  0.1965  0.4245
 2460TIP3    H128871   0.593   2.825  10.726  1.2391  3.1282 -1.2856
 2460TIP3    H228872   0.654   2.722  10.634 -2.2436 -2.3610  2.2640
 2461TIP3   OH228873   5.667   2.474  10.550 -0.3832  0.6375  0.0075
 2461TIP3    H128874   5.595   2.530  10.522 -1.3863 -1.5256 -1.9625
 2461TIP3    H228875   5.740   2.496  10.492 -0.4691  0.5772 -0.1225
 2462TIP3   OH228876   6.573   4.977  10.995  0.4809 -0.0995 -0.0440
 2462TIP3    H128877   6.662   5.011  11.007  0.8171 -0.4959 -1.2883
 2462TIP3    H228878   6.520   5.054  10.977  1.1564 -0.1527 -2.3802
 2463TIP3   OH228879   3.423   6.529   0.421  0.3879  0.1559  0.2497
 2463TIP3    H128880   3.329   6.522   0.409  0.2502  1.0675  0.7929
 2463TIP3    H228881   3.440   6.623   0.428  1.1712 -0.0690  1.4862
 2464TIP3   OH228882   5.879   5.430   0.943 -0.1029 -0.4067 -0.3580
 2464TIP3    H128883   5.808   5.432   0.878 -1.0347  2.5614  0.6792
 2464TIP3    H228884   5.950   5.384   0.898 -2.0281 -1.8393 -2.0844
 2465TIP3   OH228885   2.330   2.197   1.556 -0.1030  0.2668  0.4079
 2465TIP3    H128886   2.236   2.211   1.540 -0.1056 -0.0680  0.1131
 2465TIP3    H228887   2.352   2.121   1.503  0.2817  0.1862  0.6815
 2466TIP3   OH228888   6.102   3.106   5.349  0.3139 -0.1719  0.3407
 2466TIP3    H128889   6.044   3.182   5.342  0.5252  0.0059  0.4882
 2466TIP3    H228890   6.155   3.123   5.427  0.3786 -0.4606  0.3619
 2467TIP3   OH228891   0.227   6.007  11.323 -0.3194 -0.0480 -0.2135
 2467TIP3    H128892   0.304   5.955  11.346  0.7843  0.6942 -2.0898
 2467TIP3    H228893   0.158   5.942  11.308  0.4785 -0.8464 -0.4850
 2468TIP3   OH228894   5.971   0.304   0.943  0.4561 -0.7557  0.5095
 2468TIP3    H128895   5.924   0.364   0.885  0.9378 -2.1412 -1.3866
 2468TIP3    H228896   5.903   0.243   0.974  0.2668 -0.2519  1.0875
 2469TIP3   OH228897   2.202   5.500  13.148  0.0970 -0.3056 -0.2994
 2469TIP3    H128898   2.283   5.454  13.169  0.7233  1.5682  1.5344
 2469TIP3    H228899   2.228   5.592  13.139 -1.8957  0.4037  0.8726
 2470TIP3   OH228900   6.312   0.683   4.192 -0.5366  0.5092  0.4737
 2470TIP3    H128901   6.246   0.750   4.175  1.4456  2.5140  0.4279
 2470TIP3    H228902   6.391   0.715   4.149 -0.6230 -4.1289 -3.6831
 2471TIP3   OH228903   6.342   3.566  16.355  0.3829  0.2002 -0.1843
 2471TIP3    H128904   6.304   3.510  16.423  2.2391  0.9885  1.5624
 2471TIP3    H228905   6.339   3.513  16.275 -1.3366 -0.9506  0.6311
 2472TIP3   OH228906   5.027   2.512  10.507  0.3377  0.2037  0.1677
 2472TIP3    H128907   4.995   2.490  10.594 -0.1940 -0.1459 -0.1150
 2472TIP3    H228908   5.092   2.581  10.522 -1.1366  1.4994  0.6818
 2473TIP3   OH228909   1.004   6.577  16.740  0.9021  0.3764 -0.2072
 2473TIP3    H128910   0.923   6.531  16.764  0.8469  1.2151  1.2569
 2473TIP3    H228911   1.012   6.562  16.645 -0.2155 -0.8898 -0.1308
 2474TIP3   OH228912   6.599   3.714   0.347 -0.6358 -0.2247  0.1552
 2474TIP3    H128913   6.618   3.693   0.255 -0.8235  1.8895 -0.3815
 2474TIP3    H228914   6.685   3.734   0.385 -0.6334 -0.4602  0.2724
 2475TIP3   OH228915   4.692   6.802  16.400  0.5045  0.6755  0.2122
 2475TIP3    H128916   4.688   6.760  16.486 -1.0184 -0.2852 -0.3118
 2475TIP3    H228917   4.711   6.731  16.339 -0.2095  1.0589 -0.4585
 2476TIP3   OH228918   1.146   2.039   6.663  0.1098  0.3797  0.1267
 2476TIP3    H128919   1.215   1.976   6.683  0.3283 -0.1826 -2.2996
 2476TIP3    H228920   1.073   1.986   6.632 -0.0979  1.2346 -0.8624
 2477TIP3   OH228921   1.349   0.198  12.719  0.8204 -0.3672  0.3628
 2477TIP3    H128922   1.300   0.122  12.687  1.7352 -1.1170  0.7169
 2477TIP3    H228923   1.281   0.259  12.749  0.0166 -0.3207 -1.4715
 2478TIP3   OH228924   6.676   5.606  16.150  0.3104 -0.1169 -0.5832
 2478TIP3    H128925   6.608   5.552  16.191 -0.9867  1.7039 -0.2889
 2478TIP3    H228926   6.757   5.582  16.196 -0.3464 -1.3297 -0.0293
 2479TIP3   OH228927   0.753   0.773   3.672 -0.4514 -0.1881 -0.1060
 2479TIP3    H128928   0.697   0.700   3.697  0.2133 -0.4902  0.5414
 2479TIP3    H228929   0.796   0.745   3.591  1.0512 -1.2220  1.0021
 2480TIP3   OH228930   5.085   0.411  11.703  0.1560 -0.3101  0.1010
 2480TIP3    H128931   5.134   0.335  11.734  0.4161 -1.3880 -2.8453
 2480TIP3    H228932   5.009   0.374  11.658 -0.1653  1.1826 -0.6190
 2481TIP3   OH228933   2.038   5.603   6.080  0.8635  0.2145  0.4607
 2481TIP3    H128934   1.986   5.585   6.158  1.9072  0.2687  1.1806
 2481TIP3    H228935   2.042   5.519   6.035 -1.9244  0.7455 -0.9162
 2482TIP3   OH228936   6.728   4.490  13.177  0.3581 -0.2173  0.6498
 2482TIP3    H128937   6.797   4.556  13.166 -0.1537  0.2645  0.3033
 2482TIP3    H228938   6.666   4.509  13.106  0.0565 -0.8776  0.7403
 2483TIP3   OH228939   1.000   4.107   3.428 -0.1828  0.1897 -0.0934
 2483TIP3    H128940   0.908   4.084   3.415 -0.1897 -0.1422  0.4972
 2483TIP3    H228941   1.027   4.056   3.505  0.1502  1.2270  0.4916
 2484TIP3   OH228942   1.573   4.057  11.153  0.2099  1.0302  0.3122
 2484TIP3    H128943   1.495   4.113  11.149  0.7815  1.7392 -0.9188
 2484TIP3    H228944   1.572   4.009  11.070  1.7905  1.9828 -0.2645
 2485TIP3   OH228945   6.070   5.650  13.742 -0.2920 -0.0815 -0.3683
 2485TIP3    H128946   6.049   5.606  13.824  1.5955  1.2287  0.8538
 2485TIP3    H228947   5.988   5.692  13.715 -1.1320 -1.2138  0.4060
 2486TIP3   OH228948   4.608   1.235  12.122 -0.0845  0.3962  0.0596
 2486TIP3    H128949   4.583   1.273  12.037  0.1927 -0.9344 -0.6260
 2486TIP3    H228950   4.698   1.205  12.109  0.2467  0.9189  1.0852
 2487TIP3   OH228951   1.283   4.315   4.822  0.2075  0.3940 -0.4585
 2487TIP3    H128952   1.257   4.397   4.779 -0.1484 -0.5833 -2.1610
 2487TIP3    H228953   1.378   4.321   4.829 -0.0168  2.1353  1.9454
 2488TIP3   OH228954   2.413   6.602   2.398  0.5600  0.4300  0.7434
 2488TIP3    H128955   2.380   6.636   2.315 -0.8548  0.0948  1.1521
 2488TIP3    H228956   2.486   6.660   2.421  1.1865  0.3084 -0.8960
 2489TIP3   OH228957   1.206   3.975  15.725  0.6538 -0.3162 -0.1204
 2489TIP3    H128958   1.300   3.957  15.737  0.3898 -1.7471 -0.1445
 2489TIP3    H228959   1.191   3.960  15.632  0.5578  0.7151 -0.2806
 2490TIP3   OH228960   5.216   3.605  14.103  0.6975 -0.4791  0.3660
 2490TIP3    H128961   5.275   3.620  14.030  1.6324 -3.0609  0.5343
 2490TIP3    H228962   5.136   3.653  14.080  1.8524  0.7631 -1.1546
 2491TIP3   OH228963   3.367   4.036   4.975  1.1778 -0.3618 -0.2920
 2491TIP3    H128964   3.308   3.978   5.021  0.5826  0.7163  0.3253
 2491TIP3    H228965   3.420   3.978   4.919  0.3141 -1.4302 -0.0093
 2492TIP3   OH228966   0.471   2.420   2.787 -0.0650  0.4305 -0.3315
 2492TIP3    H128967   0.478   2.484   2.858 -0.3969 -0.1404  0.2209
 2492TIP3    H228968   0.560   2.414   2.752  0.6146 -1.0444  1.5859
 2493TIP3   OH228969   2.320   5.534  11.842  0.2040 -0.3352 -0.6742
 2493TIP3    H128970   2.271   5.523  11.760  0.7800 -0.3369 -1.0175
 2493TIP3    H228971   2.382   5.462  11.843 -0.7984 -1.2036  0.4813
 2494TIP3   OH228972   4.932   4.415   5.805  0.2828  0.0467 -0.2100
 2494TIP3    H128973   4.968   4.350   5.745 -0.3099  0.1341 -0.6707
 2494TIP3    H228974   4.998   4.424   5.874  0.0435 -1.6052  0.2646
 2495TIP3   OH228975   5.764   1.501  15.086 -0.0035  0.4227  0.2742
 2495TIP3    H128976   5.766   1.524  15.178 -1.0776  0.5820  0.2651
 2495TIP3    H228977   5.761   1.406  15.085  0.6342  0.3965  0.3831
 2496TIP3   OH228978   6.325   5.257  11.686  0.2629 -0.2777 -0.4568
 2496TIP3    H128979   6.269   5.233  11.613 -1.2023 -2.1031  1.2096
 2496TIP3    H228980   6.358   5.344  11.664 -2.6692  0.5337 -1.7875
 2497TIP3   OH228981   0.616   1.982  12.816 -0.5519 -0.2268 -0.2561
 2497TIP3    H128982   0.592   1.990  12.724  1.1649 -1.7107 -0.8680
 2497TIP3    H228983   0.556   1.916  12.851  1.1462 -2.3676 -1.2553
 2498TIP3   OH228984   3.018   3.861  16.211 -0.2412 -0.3504 -0.5015
 2498TIP3    H128985   3.104   3.821  16.200 -1.0032 -1.8619 -1.2516
 2498TIP3    H228986   2.986   3.825  16.294 -0.2178  0.0680 -0.3122
 2499TIP3   OH228987   3.753   4.863   2.074  0.0007  0.4166 -0.9561
 2499TIP3    H128988   3.803   4.835   2.151 -1.4260 -0.9567 -0.4845
 2499TIP3    H228989   3.784   4.951   2.056  0.3981  0.7578  1.1820
 2500TIP3   OH228990   6.469   6.607  14.602  0.0247  0.0191  0.5617
 2500TIP3    H128991   6.527   6.673  14.564  0.9699  0.0442  2.0133
 2500TIP3    H228992   6.383   6.648  14.602  0.1921  0.4059 -0.5780
 2501TIP3   OH228993   3.700   3.894   5.738  0.1013 -0.3557  0.0339
 2501TIP3    H128994   3.707   3.990   5.740 -2.2411 -0.1163 -0.8360
 2501TIP3    H228995   3.614   3.878   5.697  0.0393 -2.8096  1.0765
 2502TIP3   OH228996   2.864   0.484   0.280  0.5831  0.1613 -0.3410
 2502TIP3    H128997   2.799   0.508   0.347  0.1726 -0.3103 -0.5655
 2502TIP3    H228998   2.874   0.389   0.290  1.0384  0.1901 -0.4949
 2503TIP3   OH228999   4.905   2.612   3.320  0.0317  0.3322 -0.5685
 2503TIP3    H129000   4.900   2.689   3.264 -0.2589  0.4942 -0.3177
 2503TIP3    H229001   4.886   2.539   3.261  0.8246  0.3967 -0.9197
 2504TIP3   OH229002   5.217   6.351   0.960  0.0279  0.2699 -0.3217
 2504TIP3    H129003   5.274   6.329   0.887  2.0698 -1.3926  1.6734
 2504TIP3    H229004   5.137   6.301   0.945 -0.0861  0.9615 -2.0599
 2505TIP3   OH229005   4.612   1.774   1.902  0.7013 -0.2631 -0.6085
 2505TIP3    H129006   4.593   1.728   1.820 -0.0660 -1.3349  0.1537
 2505TIP3    H229007   4.603   1.707   1.969 -0.7742  1.0866  0.5705
 2506TIP3   OH229008   4.799   0.830  15.013  0.2669  0.2248  0.1819
 2506TIP3    H129009   4.762   0.761  15.068  2.2501 -1.9324 -1.0281
 2506TIP3    H229010   4.886   0.797  14.990  1.1930  3.0887 -0.6133
 2507TIP3   OH229011   1.036   4.692   3.411 -0.2338 -0.1171 -0.1325
 2507TIP3    H129012   1.062   4.618   3.466 -1.4288  0.3651  1.1126
 2507TIP3    H229013   1.037   4.767   3.471  0.1881  0.7295 -1.1913
 2508TIP3   OH229014   4.287   2.326  12.372  0.0838  0.4383 -0.6027
 2508TIP3    H129015   4.272   2.232  12.378  2.0456  0.0443 -1.4153
 2508TIP3    H229016   4.201   2.364  12.357 -0.6367 -1.2912 -0.9006
 2509TIP3   OH229017   4.362   2.637  10.962 -0.4248 -0.2994 -0.0845
 2509TIP3    H129018   4.425   2.574  10.998  0.4865  1.8826  2.2718
 2509TIP3    H229019   4.402   2.665  10.879  1.6645  0.9124  1.2914
 2510TIP3   OH229020   6.628   5.966  14.798 -0.4573 -0.6084 -0.0667
 2510TIP3    H129021   6.680   6.046  14.801  0.3165 -1.1231  0.7691
 2510TIP3    H229022   6.555   5.983  14.858  0.2715 -0.8969  0.9231
 2511TIP3   OH229023   0.555   5.829  11.370 -0.1030  0.1800  0.1328
 2511TIP3    H129024   0.588   5.822  11.280 -0.5791  0.6709 -0.0790
 2511TIP3    H229025   0.620   5.883  11.415  0.3884 -0.4614  0.2135
 2512TIP3   OH229026   3.082   0.788  15.165 -0.2182  0.1634  0.3131
 2512TIP3    H129027   3.127   0.872  15.170 -0.6448  0.4908 -1.4037
 2512TIP3    H229028   3.004   0.804  15.113  0.0861 -1.4586 -0.6794
 2513TIP3   OH229029   4.683   5.156   0.002  0.0942 -0.2546  0.3911
 2513TIP3    H129030   4.627   5.118   0.070 -1.6363  1.8778  0.2295
 2513TIP3    H229031   4.625   5.216  -0.045  1.9359  0.2100 -1.3386
 2514TIP3   OH229032   5.690   3.137  16.026 -0.7480  0.2105  0.2749
 2514TIP3    H129033   5.735   3.053  16.015 -0.5897  0.3370 -0.0506
 2514TIP3    H229034   5.598   3.115  16.036 -0.8297  0.0646 -0.8012
 2515TIP3   OH229035   5.775   0.362  12.499  0.1128  0.5859 -0.4081
 2515TIP3    H129036   5.720   0.328  12.570 -0.6329 -1.8319 -2.0943
 2515TIP3    H229037   5.722   0.433  12.461  0.3342  1.6144  1.1328
 2516TIP3   OH229038   4.214   2.385   0.831  0.1862  0.7984  0.1051
 2516TIP3    H129039   4.170   2.315   0.879 -0.3071  1.4780  0.6536
 2516TIP3    H229040   4.203   2.361   0.739  0.0702  0.1270  0.2857
 2517TIP3   OH229041   5.682   0.190  13.022 -0.0912 -0.4324 -0.6165
 2517TIP3    H129042   5.711   0.267  12.973 -0.9585  0.1088 -0.2926
 2517TIP3    H229043   5.594   0.172  12.988 -0.5440 -0.2860  0.4657
 2518TIP3   OH229044   0.777   3.274  16.678  0.2732 -0.4429 -0.1429
 2518TIP3    H129045   0.846   3.327  16.719 -0.4496 -1.1371  2.0745
 2518TIP3    H229046   0.768   3.198  16.736 -2.5610 -0.1933 -0.1884
 2519TIP3   OH229047   0.114   0.924   6.139  0.5789 -0.1046 -0.2072
 2519TIP3    H129048   0.064   0.909   6.220 -0.7830  0.0377 -1.0209
 2519TIP3    H229049   0.118   0.838   6.098 -0.5583  0.2502 -1.0475
 2520TIP3   OH229050   5.265   1.229  16.150 -0.1585 -0.2473 -0.4625
 2520TIP3    H129051   5.322   1.265  16.082 -1.2458  1.1589 -0.6461
 2520TIP3    H229052   5.309   1.251  16.232 -0.5849  1.1067 -0.5912
 2521TIP3   OH229053   1.319   3.884  16.141  0.1416 -0.6058 -0.0512
 2521TIP3    H129054   1.301   3.943  16.214 -0.1168  0.1095 -0.6949
 2521TIP3    H229055   1.235   3.875  16.096  0.2075 -1.3650 -0.0309
 2522TIP3   OH229056   4.724   6.623   1.225 -0.1456  0.0563 -0.9190
 2522TIP3    H129057   4.789   6.558   1.253 -0.9496 -1.3840 -2.2979
 2522TIP3    H229058   4.775   6.697   1.194  0.8099 -0.4471 -0.5709
 2523TIP3   OH229059   5.454   2.095   5.586  0.0739 -0.5554  0.0514
 2523TIP3    H129060   5.520   2.083   5.518 -1.2957  0.6980 -1.5265
 2523TIP3    H229061   5.379   2.043   5.557 -0.7697  0.5309  0.2190
 2524TIP3   OH229062   2.168   0.360   5.974 -0.5030  0.0223  0.3076
 2524TIP3    H129063   2.157   0.426   5.906  1.6086 -0.7103 -0.8086
 2524TIP3    H229064   2.177   0.410   6.055  1.8018  1.2125 -0.6112
 2525TIP3   OH229065   5.858   4.249   4.562  0.8315 -0.3128 -0.1189
 2525TIP3    H129066   5.946   4.214   4.549  0.5089 -1.1990  0.0328
 2525TIP3    H229067   5.827   4.270   4.474  0.6925 -1.2515 -0.2988
 2526TIP3   OH229068   3.568   5.729  13.810  0.3343 -0.7367  0.1785
 2526TIP3    H129069   3.538   5.814  13.842  3.1205  1.4718 -2.7664
 2526TIP3    H229070   3.629   5.698  13.876 -0.8729 -0.6008  1.3815
 2527TIP3   OH229071   4.105   4.595   4.187 -0.3255  0.6176  0.1091
 2527TIP3    H129072   4.188   4.634   4.157 -0.5506  0.5423 -0.6286
 2527TIP3    H229073   4.038   4.640   4.135 -0.5919 -0.6850 -0.6850
 2528TIP3   OH229074   6.731   6.105   5.259  0.4677 -0.6583 -0.0880
 2528TIP3    H129075   6.708   6.082   5.350 -0.2075  1.3385  0.2692
 2528TIP3    H229076   6.647   6.131   5.220  1.2635  1.7627 -0.2664
 2529TIP3   OH229077   2.231   0.223   0.768  0.0109 -0.1945  0.1558
 2529TIP3    H129078   2.301   0.268   0.814 -1.5657  0.4035  2.0556
 2529TIP3    H229079   2.179   0.182   0.837 -1.9697  0.0386 -1.1500
 2530TIP3   OH229080   6.058   2.543  12.243 -0.0775  0.2271 -0.4552
 2530TIP3    H129081   6.153   2.537  12.255 -0.2811  0.4351  1.2497
 2530TIP3    H229082   6.040   2.483  12.170  1.1355 -1.1415  0.3440
 2531TIP3   OH229083   5.452   3.516   3.842 -0.0265  0.1284  0.0823
 2531TIP3    H129084   5.536   3.494   3.802  1.1625 -0.3702  2.7682
 2531TIP3    H229085   5.444   3.610   3.832  0.1179 -0.0189 -1.5253
 2532TIP3   OH229086   4.150   0.332  13.194 -0.4092 -0.6641 -0.0862
 2532TIP3    H129087   4.191   0.375  13.268  0.7517 -0.0784 -1.0503
 2532TIP3    H229088   4.135   0.402  13.130 -2.0302 -1.0408 -0.1285
 2533TIP3   OH229089   2.453   0.954   0.350  0.2145 -0.0482 -0.9149
 2533TIP3    H129090   2.364   0.958   0.387  1.2797 -1.5439  2.0378
 2533TIP3    H229091   2.444   0.900   0.272 -1.6042  0.4013 -1.0422
 2534TIP3   OH229092   3.271   4.231   0.064 -0.2328 -0.0305 -0.1587
 2534TIP3    H129093   3.366   4.226   0.070 -0.2503 -0.3430 -0.0876
 2534TIP3    H229094   3.243   4.253   0.153 -0.2890 -1.0796  0.0933
 2535TIP3   OH229095   2.331   6.002   2.965  0.5374  0.6331 -0.3384
 2535TIP3    H129096   2.260   6.064   2.953 -1.3135 -1.4689 -0.4819
 2535TIP3    H229097   2.290   5.916   2.960  2.7937 -0.6206  1.3212
 2536TIP3   OH229098   5.888   0.899   0.294  0.0980 -0.1858 -0.0730
 2536TIP3    H129099   5.880   0.949   0.375  2.4120  0.6633 -0.3323
 2536TIP3    H229100   5.827   0.825   0.305 -2.5869  2.0596  0.7417
 2537TIP3   OH229101   0.142   3.019  16.567 -0.3315  0.1149  0.2468
 2537TIP3    H129102   0.197   2.968  16.508 -1.1565  0.8982 -1.2271
 2537TIP3    H229103   0.179   3.003  16.654  2.2309  0.6179 -0.7030
 2538TIP3   OH229104   5.152   6.081   2.445 -0.0838  0.0706 -0.0543
 2538TIP3    H129105   5.187   6.005   2.399 -0.3913  0.8467 -1.5939
 2538TIP3    H229106   5.226   6.112   2.498  0.3168 -0.7489 -0.1237
 2539TIP3   OH229107   4.714   6.330  16.102 -0.0666  0.2184  0.3900
 2539TIP3    H129108   4.756   6.251  16.138  0.6579  0.5670  0.3261
 2539TIP3    H229109   4.621   6.308  16.098  0.5183 -2.0633 -3.2157
 2540TIP3   OH229110   1.123   1.433  14.832 -0.0822  0.0997  0.1320
 2540TIP3    H129111   1.186   1.362  14.834 -0.5688 -0.3310  0.1785
 2540TIP3    H229112   1.142   1.480  14.750  1.4924  1.0756  1.0485
 2541TIP3   OH229113   4.752   0.871   3.392  0.0035 -0.1366  0.2168
 2541TIP3    H129114   4.805   0.847   3.316 -0.4773 -1.5129  0.2995
 2541TIP3    H229115   4.679   0.921   3.355  0.4706  0.3235 -0.0837
 2542TIP3   OH229116   4.992   5.545  16.767 -0.0279  0.1881  0.1256
 2542TIP3    H129117   4.921   5.610  16.773 -0.2692  0.0652 -1.1419
 2542TIP3    H229118   4.988   5.497  16.849 -0.9383  0.6842  0.3812
 2543TIP3   OH229119   2.572   5.037  11.297 -0.1636  0.1208  0.0596
 2543TIP3    H129120   2.560   5.128  11.269 -0.5065  0.5002  1.4271
 2543TIP3    H229121   2.612   4.994  11.221  0.0156  1.4113 -0.5903
 2544TIP3   OH229122   6.656   1.346  16.770 -0.4206 -0.7275  0.0348
 2544TIP3    H129123   6.678   1.279  16.706  1.1382 -0.4042  0.2193
 2544TIP3    H229124   6.740   1.375  16.806 -1.2328 -0.7172  2.0456
 2545TIP3   OH229125   5.339   2.150   5.836  0.0996  0.1038 -0.1037
 2545TIP3    H129126   5.407   2.165   5.770 -0.5756  1.5745 -0.4909
 2545TIP3    H229127   5.377   2.183   5.917  0.4564 -0.5682  0.0081
 2546TIP3   OH229128   6.597   6.040   4.893  0.0285 -0.4967  0.1812
 2546TIP3    H129129   6.528   6.098   4.861 -1.6582 -2.5681 -0.0284
 2546TIP3    H229130   6.650   6.020   4.816 -0.1272 -0.2146  0.0029
 2547TIP3   OH229131   6.039   4.474  15.009 -0.4800  0.3272  0.0466
 2547TIP3    H129132   6.107   4.423  14.966  0.0702  0.2695  0.9726
 2547TIP3    H229133   6.041   4.444  15.100 -0.4505  1.6775  0.4953
 2548TIP3   OH229134   6.496   0.903  13.460 -0.3498 -0.5248 -0.0759
 2548TIP3    H129135   6.515   0.994  13.479  0.2122 -0.7330  0.3743
 2548TIP3    H229136   6.521   0.892  13.368 -1.7882  0.1339 -0.5593
 2549TIP3   OH229137   0.132   0.170  16.414 -0.1962 -0.4193  0.3556
 2549TIP3    H129138   0.043   0.147  16.387  0.3647 -2.4377  0.1328
 2549TIP3    H229139   0.189   0.117  16.358  1.1117 -0.1802  1.4223
 2550TIP3   OH229140   5.651   1.160   0.932  0.1189 -0.1643 -0.1744
 2550TIP3    H129141   5.686   1.223   0.869  0.8781 -0.9403 -0.5393
 2550TIP3    H229142   5.593   1.104   0.881 -0.2421 -0.0092  0.0666
 2551TIP3   OH229143   1.943   1.298  14.640 -0.1897  0.0028  0.5645
 2551TIP3    H129144   1.849   1.285  14.658 -0.4734  2.4107  1.0168
 2551TIP3    H229145   1.957   1.254  14.556 -1.6190 -0.7530  0.6855
 2552TIP3   OH229146   0.627   0.109  14.314  0.7440 -0.6132  0.5442
 2552TIP3    H129147   0.633   0.123  14.408 -0.0245  0.5726  0.4164
 2552TIP3    H229148   0.660   0.190  14.275  1.2616 -1.1751 -0.2191
 2553TIP3   OH229149   1.560   3.181  12.040  0.5458  0.6488  0.3309
 2553TIP3    H129150   1.466   3.173  12.052  0.3769 -0.5522 -1.5782
 2553TIP3    H229151   1.570   3.246  11.970  1.0441 -0.4455 -0.6382
 2554TIP3   OH229152   2.978   2.282  12.462 -0.4346  0.2001 -0.5715
 2554TIP3    H129153   2.965   2.347  12.393 -1.3113  0.2244 -0.3842
 2554TIP3    H229154   3.069   2.254  12.451  0.2839  2.2109  0.0115
 2555TIP3   OH229155   6.801   5.076  16.669  0.2745  0.3068  0.4413
 2555TIP3    H129156   6.813   5.059  16.762 -0.4215  2.5677  0.9755
 2555TIP3    H229157   6.888   5.103  16.638  0.5621 -0.6867  0.3681
 2556TIP3   OH229158   2.235   0.535   2.880  0.2746  0.2072 -0.7583
 2556TIP3    H129159   2.199   0.603   2.938  2.9661  1.0837 -0.0357
 2556TIP3    H229160   2.215   0.453   2.924  0.3790  0.7564  0.3331
 2557TIP3   OH229161   5.787   1.195  11.499  0.8594  0.0914  0.0264
 2557TIP3    H129162   5.792   1.152  11.585  1.2715  0.6855  0.3048
 2557TIP3    H229163   5.735   1.136  11.445  2.0162 -1.0942  0.1975
 2558TIP3   OH229164   0.285   1.417   2.553  0.6643  0.0803 -0.0267
 2558TIP3    H129165   0.237   1.416   2.470  0.7319  1.5590 -0.1029
 2558TIP3    H229166   0.342   1.494   2.547  2.4437 -1.1661  0.4132
 2559TIP3   OH229167   2.454   0.325  14.926  0.0378 -0.6988  0.1518
 2559TIP3    H129168   2.451   0.388  14.855  2.1824  0.2256  0.8278
 2559TIP3    H229169   2.547   0.318  14.948 -0.3728 -2.5290  1.4796
 2560TIP3   OH229170   0.868   3.914   4.030 -0.2803 -0.0672 -0.4393
 2560TIP3    H129171   0.927   3.970   3.980 -0.3002  0.6165  0.2837
 2560TIP3    H229172   0.782   3.954   4.017 -0.2137  0.3960  0.5239
 2561TIP3   OH229173   0.733   5.095   5.954 -0.3791  0.1720  0.3948
 2561TIP3    H129174   0.782   5.048   6.021  0.9961  0.4836 -0.3790
 2561TIP3    H229175   0.704   5.175   5.997 -0.1955 -0.0008  0.8432
 2562TIP3   OH229176   3.455   0.470  12.879  0.0464  0.3075 -0.3040
 2562TIP3    H129177   3.442   0.459  12.785  0.8917  1.0109 -0.5139
 2562TIP3    H229178   3.469   0.381  12.911  0.3838  0.1196 -0.9500
 2563TIP3   OH229179   6.197   3.546   5.542  0.4063  0.5751  0.2228
 2563TIP3    H129180   6.244   3.501   5.612  0.4667 -1.0200 -0.8281
 2563TIP3    H229181   6.264   3.566   5.477 -0.2200 -1.0097 -0.9265
 2564TIP3   OH229182   2.485   4.087  16.776  0.0701  0.0959  0.0784
 2564TIP3    H129183   2.502   4.181  16.780 -0.1705  0.2747 -2.1455
 2564TIP3    H229184   2.527   4.059  16.694 -0.6291 -1.5452  0.2615
 2565TIP3   OH229185   0.244   5.709   1.440 -0.0979 -0.1210 -0.4513
 2565TIP3    H129186   0.241   5.613   1.443  0.6825 -0.1075  0.9801
 2565TIP3    H229187   0.337   5.730   1.430 -0.0868  0.5301  0.9494
 2566TIP3   OH229188   1.425   6.454  16.521 -0.1436  0.0007 -0.5763
 2566TIP3    H129189   1.444   6.369  16.559 -0.0072 -0.0833 -0.8306
 2566TIP3    H229190   1.482   6.460  16.444 -1.9808 -0.7554 -2.0438
 2567TIP3   OH229191   3.661   0.469  14.097  0.2410  0.5677 -0.7310
 2567TIP3    H129192   3.690   0.485  14.187  0.8454 -0.7525 -0.6739
 2567TIP3    H229193   3.583   0.415  14.106  1.7566 -1.7120 -1.0458
 2568TIP3   OH229194   5.618   6.269  14.398 -0.4984 -0.3522 -0.3500
 2568TIP3    H129195   5.553   6.306  14.457 -0.2977  0.9202 -0.9189
 2568TIP3    H229196   5.602   6.310  14.313  0.0126 -1.2304 -0.8916
 2569TIP3   OH229197   5.981   0.038  12.101  0.6920  0.4265 -0.0091
 2569TIP3    H129198   5.933   0.086  12.033 -1.4891 -0.5016  0.8313
 2569TIP3    H229199   6.046  -0.013  12.052 -0.7854 -0.1493 -1.4130
 2570TIP3   OH229200   5.117   3.963   4.298  0.1157 -0.3594  0.5160
 2570TIP3    H129201   5.134   3.904   4.371 -1.2943 -1.1276  0.2468
 2570TIP3    H229202   5.023   3.952   4.279  0.8499 -1.8094 -2.7683
 2571TIP3   OH229203   3.654   3.190   1.468  0.2546  0.3742  0.0334
 2571TIP3    H129204   3.626   3.099   1.465  0.6940  0.2394 -0.0463
 2571TIP3    H229205   3.692   3.200   1.556 -1.9060  1.1134  0.9105
 2572TIP3   OH229206   6.746   3.915  16.644  0.2059 -0.0182  0.5302
 2572TIP3    H129207   6.765   3.992  16.592  0.6321 -0.3738  0.1584
 2572TIP3    H229208   6.651   3.905  16.638  0.2118  0.1684  0.1468
 2573TIP3   OH229209   6.775   5.216   5.605  0.2121  0.4278  0.3751
 2573TIP3    H129210   6.831   5.230   5.528  0.8141  0.7614  0.8699
 2573TIP3    H229211   6.693   5.182   5.569 -0.0542  2.0123 -0.5689
 2574TIP3   OH229212   3.329   2.754  11.087 -0.7548  0.3060 -0.5023
 2574TIP3    H129213   3.314   2.696  11.012  1.8180  0.0422 -0.8572
 2574TIP3    H229214   3.289   2.708  11.161  0.3451 -1.4737 -0.9777
 2575TIP3   OH229215   6.676   6.335   3.680 -0.5209 -0.5258 -0.0417
 2575TIP3    H129216   6.675   6.274   3.754 -0.4301  0.8826  1.1451
 2575TIP3    H229217   6.587   6.369   3.675  0.0562  1.1772  0.9535
 2576TIP3   OH229218   1.174   4.192   0.641 -0.2314 -0.2374  0.5382
 2576TIP3    H129219   1.194   4.275   0.685 -0.3759  1.4967 -2.5580
 2576TIP3    H229220   1.250   4.175   0.585 -1.0813 -1.1496 -0.3767
 2577TIP3   OH229221   2.284   4.684   2.243  0.1591  0.6185 -0.5275
 2577TIP3    H129222   2.245   4.665   2.329  0.3745  2.3353 -0.0290
 2577TIP3    H229223   2.370   4.643   2.246 -0.9471 -1.8408 -1.0408
 2578TIP3   OH229224   2.979   2.502  11.478 -0.3157  0.3068  0.4971
 2578TIP3    H129225   2.892   2.540  11.492  0.6503  2.5430  0.5790
 2578TIP3    H229226   3.028   2.570  11.432  1.1430 -1.2663 -0.3163
 2579TIP3   OH229227   5.215   4.515  13.404 -0.3640  0.3224 -0.4214
 2579TIP3    H129228   5.138   4.508  13.348 -0.2798 -0.4703 -0.4327
 2579TIP3    H229229   5.223   4.609  13.422  0.5825  0.7953 -3.1050
 2580TIP3   OH229230   1.783   1.652   3.477 -0.3753  0.0090  0.3360
 2580TIP3    H129231   1.709   1.602   3.511  0.0471 -0.0678  1.1529
 2580TIP3    H229232   1.834   1.676   3.554  1.2799 -1.2222 -0.3459
 2581TIP3   OH229233   5.925   3.311   2.373 -0.2242  0.1842 -0.0319
 2581TIP3    H129234   5.995   3.338   2.432 -1.2229 -1.0812  1.7573
 2581TIP3    H229235   5.893   3.229   2.409 -0.4395 -0.9664 -2.6985
 2582TIP3   OH229236   1.917   2.028  15.250  0.3738  0.1160  0.3458
 2582TIP3    H129237   1.930   2.092  15.180  0.6710 -0.4112 -0.0921
 2582TIP3    H229238   1.997   2.032  15.302  0.4941 -0.0665  0.1770
 2583TIP3   OH229239   5.545   1.111  17.064 -0.0314 -0.5214 -0.0433
 2583TIP3    H129240   5.501   1.152  16.990  0.6653 -0.3657 -0.3742
 2583TIP3    H229241   5.491   1.035  17.085  0.6040 -1.4642 -1.7145
 2584TIP3   OH229242   0.289   3.421   1.812 -0.2076 -0.1885  0.0031
 2584TIP3    H129243   0.262   3.469   1.889  1.3025 -0.2826  0.6120
 2584TIP3    H229244   0.278   3.483   1.739  0.6077  0.6955  0.6190
 2585TIP3   OH229245   2.687   0.519  11.878 -0.0334  0.2751 -0.7906
 2585TIP3    H129246   2.650   0.597  11.837 -0.4415 -0.3114 -1.5545
 2585TIP3    H229247   2.717   0.465  11.805  2.3258  0.7130 -0.1928
 2586TIP3   OH229248   5.877   6.275   1.396 -0.2158  0.4207  0.1161
 2586TIP3    H129249   5.874   6.208   1.465 -0.1498 -0.7775 -1.0279
 2586TIP3    H229250   5.866   6.358   1.443 -1.7123 -0.4778  1.4071
 2587TIP3   OH229251   0.354   2.174   2.806  0.4750  0.3552 -0.2197
 2587TIP3    H129252   0.369   2.267   2.818  2.6307 -0.0610  0.3606
 2587TIP3    H229253   0.430   2.143   2.757 -0.1239 -1.1381 -0.2390
 2588TIP3   OH229254   2.449   2.394  16.025 -0.1387 -0.0314  0.2187
 2588TIP3    H129255   2.414   2.391  16.115  3.1502 -1.7634  1.5021
 2588TIP3    H229256   2.387   2.341  15.974 -0.3923 -1.5759  2.0737
 2589TIP3   OH229257   6.031   0.518  11.417  0.2998 -0.4246  0.0509
 2589TIP3    H129258   5.940   0.492  11.400  0.4297 -0.5995 -0.3765
 2589TIP3    H229259   6.044   0.499  11.510 -0.3938  0.4816  0.3470
 2590TIP3   OH229260   6.098   0.161  12.320  0.4051  0.2598 -0.5348
 2590TIP3    H129261   6.071   0.108  12.245  2.2811  0.5117 -1.4246
 2590TIP3    H229262   6.174   0.115  12.356  1.2171  1.6017 -0.4994
 2591TIP3   OH229263   6.443   5.954  11.645 -0.3182 -0.0138 -0.4801
 2591TIP3    H129264   6.509   6.015  11.611  0.6257 -0.8656 -0.1840
 2591TIP3    H229265   6.456   5.874  11.595 -1.9256  0.1806 -1.2528
 2592TIP3   OH229266   0.918   1.751  15.477  0.1319 -0.5980  0.0763
 2592TIP3    H129267   0.970   1.718  15.404 -1.8807 -0.2026 -1.5842
 2592TIP3    H229268   0.930   1.686  15.546  0.8118 -1.7811 -1.1389
 2593TIP3   OH229269   2.661   5.030  15.734 -0.7257  0.3247 -0.0376
 2593TIP3    H129270   2.669   4.935  15.743 -3.3595 -0.0439 -1.0565
 2593TIP3    H229271   2.750   5.062  15.743  0.0421 -2.1099  1.7372
 2594TIP3   OH229272   4.234   2.912  16.228  0.4072 -0.3338 -0.3861
 2594TIP3    H129273   4.159   2.861  16.196 -0.5270 -0.5496  2.0676
 2594TIP3    H229274   4.292   2.849  16.269  1.4632 -0.0141 -1.3499
 2595TIP3   OH229275   0.495   2.282   4.407 -0.1001 -0.1171  0.0588
 2595TIP3    H129276   0.402   2.286   4.427 -0.5406  1.5933 -2.0896
 2595TIP3    H229277   0.533   2.354   4.457 -0.1229 -0.1633  0.1406
 2596TIP3   OH229278   6.428   5.665   2.328 -0.3918 -0.1417 -0.4287
 2596TIP3    H129279   6.334   5.655   2.318 -0.3706 -0.7540  0.0334
 2596TIP3    H229280   6.466   5.608   2.261 -0.3011 -2.1151  1.2765
 2597TIP3   OH229281   3.756   5.024  12.983  0.6841  0.3279  0.7240
 2597TIP3    H129282   3.798   5.070  13.056 -0.1029  1.2326  0.6110
 2597TIP3    H229283   3.691   4.967  13.025 -0.1657  1.2668  0.7140
 2598TIP3   OH229284   0.652   3.379  13.602  0.1034 -0.0409 -0.3513
 2598TIP3    H129285   0.635   3.470  13.578  0.9846  0.1300 -0.3507
 2598TIP3    H229286   0.644   3.377  13.697 -0.7469 -0.1479 -0.4204
 2599TIP3   OH229287   0.197   4.011   4.442  0.3792  0.1017  0.1248
 2599TIP3    H129288   0.270   3.958   4.411 -0.1861 -2.1555  2.4396
 2599TIP3    H229289   0.216   4.099   4.410  2.3531 -1.0965 -2.1757
 2600TIP3   OH229290   3.867   1.196   0.534 -0.0088  0.0879 -0.2439
 2600TIP3    H129291   3.863   1.102   0.551 -0.6830  0.1697  0.0718
 2600TIP3    H229292   3.952   1.210   0.493 -0.1886 -0.7599 -0.9077
 2601TIP3   OH229293   5.582   5.186  14.186  0.2920  0.2837  0.3176
 2601TIP3    H129294   5.668   5.155  14.158  0.4661 -0.2687  1.4410
 2601TIP3    H229295   5.520   5.134  14.135  0.6173  1.5608 -1.4208
 2602TIP3   OH229296   3.954   0.358  14.685 -0.1090 -0.4038  0.0878
 2602TIP3    H129297   3.912   0.426  14.737 -2.7595 -0.4246 -1.8688
 2602TIP3    H229298   4.022   0.403  14.635 -1.6988  0.8392 -1.0266
 2603TIP3   OH229299   4.829   3.300  16.888  0.8723  0.6636 -0.0289
 2603TIP3    H129300   4.774   3.250  16.828 -0.0174 -0.1247  1.4038
 2603TIP3    H229301   4.799   3.390  16.880 -0.7029  0.2392  0.7694
 2604TIP3   OH229302   3.174   4.908   4.776 -0.0318 -0.1316 -0.0421
 2604TIP3    H129303   3.171   4.899   4.681  0.7308  0.3260 -0.1123
 2604TIP3    H229304   3.262   4.941   4.794 -0.1341 -0.3283  0.8312
 2605TIP3   OH229305   5.989   1.152  15.024  0.1808 -0.6622 -0.9473
 2605TIP3    H129306   6.010   1.060  15.008 -0.6121 -0.9888 -0.1939
 2605TIP3    H229307   6.057   1.201  14.979  1.8737 -1.6610  0.4562
 2606TIP3   OH229308   5.895   4.259  12.373 -0.4848  0.3128  0.1329
 2606TIP3    H129309   5.899   4.353  12.390  2.2173  0.7704 -2.5497
 2606TIP3    H229310   5.917   4.219  12.458  0.0980  2.1437  0.8796
 2607TIP3   OH229311   5.310   5.861  16.207 -0.0961 -0.0581 -0.3053
 2607TIP3    H129312   5.371   5.885  16.276  0.8578  1.1368 -1.5408
 2607TIP3    H229313   5.224   5.873  16.246  0.3978  2.8504 -0.0421
 2608TIP3   OH229314   2.454   4.430   4.015  0.2815  0.2070  0.2930
 2608TIP3    H129315   2.451   4.464   3.926 -0.3114 -1.5728 -0.4016
 2608TIP3    H229316   2.548   4.421   4.034  0.4280  1.4708  0.2204
 2609TIP3   OH229317   3.743   4.341  15.155 -0.4825  0.0823  0.2111
 2609TIP3    H129318   3.673   4.303  15.208  0.2512  0.3011  1.3534
 2609TIP3    H229319   3.732   4.301  15.069 -1.4047 -0.6357  0.6534
 2610TIP3   OH229320   1.953   4.856  15.532 -0.2030 -0.1038 -0.5096
 2610TIP3    H129321   1.971   4.904  15.612  0.5110  0.8232 -1.2112
 2610TIP3    H229322   2.002   4.774  15.542 -1.9475 -0.9899  0.9612
 2611TIP3   OH229323   2.513   5.829  15.283 -0.0814 -0.0893  0.0957
 2611TIP3    H129324   2.444   5.890  15.307  0.7384  0.6669  0.5352
 2611TIP3    H229325   2.593   5.865  15.322  0.4672 -1.2615  0.0888
 2612TIP3   OH229326   5.916   5.888  13.045 -0.4791 -0.2135  0.3082
 2612TIP3    H129327   5.949   5.798  13.043 -0.6505 -0.2717  0.0887
 2612TIP3    H229328   5.829   5.882  13.006 -0.2040  0.1661 -0.3694
 2613TIP3   OH229329   4.804   5.602   4.274  0.0088  0.0408 -0.4208
 2613TIP3    H129330   4.738   5.664   4.303  0.4285 -0.3515  1.3995
 2613TIP3    H229331   4.803   5.532   4.340  0.6274 -1.1175 -1.6014
 2614TIP3   OH229332   2.596   6.485  13.014  0.7000  0.7677 -0.5331
 2614TIP3    H129333   2.542   6.533  12.951  0.0041  1.7914  0.8050
 2614TIP3    H229334   2.546   6.491  13.096  2.4018  0.9306  0.5019
 2615TIP3   OH229335   5.281   2.909   4.769 -0.1025  0.2515  0.0661
 2615TIP3    H129336   5.224   2.975   4.728  0.0247 -0.0103 -0.5278
 2615TIP3    H229337   5.222   2.859   4.826 -0.0358  1.4455  1.1998
 2616TIP3   OH229338   4.527   0.575  14.924 -0.2485 -0.1035 -0.2263
 2616TIP3    H129339   4.604   0.580  14.981 -1.3148  3.1930  1.0667
 2616TIP3    H229340   4.498   0.666  14.915 -2.3732 -0.9733 -2.9659
 2617TIP3   OH229341   3.539   3.439   0.316  0.5619  0.0494  0.0620
 2617TIP3    H129342   3.627   3.407   0.294  0.3017 -1.2005  0.7480
 2617TIP3    H229343   3.495   3.446   0.232  1.4500  1.0973 -0.3257
 2618TIP3   OH229344   3.939   2.556   4.918 -0.6491  0.5980 -0.5337
 2618TIP3    H129345   3.942   2.591   5.008 -1.7335  1.2021 -0.7111
 2618TIP3    H229346   4.010   2.493   4.914 -0.0260  1.2149  0.4870
 2619TIP3   OH229347   4.955   1.764   2.777 -0.5058  0.1617 -0.3991
 2619TIP3    H129348   4.909   1.744   2.695 -0.6000 -1.0285 -0.0628
 2619TIP3    H229349   4.980   1.856   2.768  0.6863 -0.3123 -2.3611
 2620TIP3   OH229350   2.530   4.302  17.103  0.2397 -0.7987 -0.5262
 2620TIP3    H129351   2.448   4.333  17.142  1.3902  0.6398  0.8153
 2620TIP3    H229352   2.521   4.322  17.009  0.6317  3.0797  0.1615
 2621TIP3   OH229353   2.868   2.426   6.610 -1.2838  0.3554  0.2876
 2621TIP3    H129354   2.797   2.430   6.674 -0.9598 -0.0231  0.6752
 2621TIP3    H229355   2.894   2.334   6.610 -1.3318  0.3427 -0.4412
 2622TIP3   OH229356   5.889   2.156  14.623  0.4084  0.2578  0.3430
 2622TIP3    H129357   5.956   2.088  14.629  1.5625  1.4799  1.5696
 2622TIP3    H229358   5.875   2.185  14.713 -0.6496  1.0839 -0.0736
 2623TIP3   OH229359   5.443   5.904  15.960  0.1433  0.3410  0.2641
 2623TIP3    H129360   5.533   5.912  15.994  0.3797 -2.3587  0.4002
 2623TIP3    H229361   5.394   5.865  16.032 -0.3533 -1.3927 -0.9886
 2624TIP3   OH229362   6.275   5.202   6.169 -0.1476 -0.0453  0.1584
 2624TIP3    H129363   6.257   5.292   6.140  1.6491  0.1185 -0.5285
 2624TIP3    H229364   6.221   5.148   6.112  0.0045  0.5260 -0.5514
 2625TIP3   OH229365   6.271   1.831  15.810  0.1720 -0.4374  0.0389
 2625TIP3    H129366   6.249   1.744  15.777  0.4296 -0.3819 -0.2855
 2625TIP3    H229367   6.366   1.828  15.822  0.1095 -0.3813  0.5574
 2626TIP3   OH229368   4.783   5.603  14.817 -0.1883 -0.3666  0.3875
 2626TIP3    H129369   4.743   5.648  14.892 -0.8499 -0.8498  0.3363
 2626TIP3    H229370   4.721   5.533  14.796 -0.1292 -0.0800 -0.7734
 2627TIP3   OH229371   2.713   5.832  12.061  0.5119 -0.2956 -0.1264
 2627TIP3    H129372   2.659   5.771  12.112  0.2893 -0.7320 -0.8751
 2627TIP3    H229373   2.718   5.792  11.974 -0.1386  1.0577 -0.7988
 2628TIP3   OH229374   1.948   3.831   1.547  0.1514  0.5889 -0.1545
 2628TIP3    H129375   1.942   3.761   1.482 -1.0917  0.9109 -0.4014
 2628TIP3    H229376   2.006   3.796   1.615 -0.2220 -0.5665 -0.4193
 2629TIP3   OH229377   1.948   1.219   4.039  0.3858 -0.6582 -0.3875
 2629TIP3    H129378   1.865   1.182   4.067  1.0982 -3.5378 -1.9137
 2629TIP3    H229379   1.933   1.314   4.038 -1.9703 -0.9373  2.0572
 2630TIP3   OH229380   1.289   2.787  13.795 -0.6850 -0.2405  0.8639
 2630TIP3    H129381   1.215   2.796  13.855 -0.1846 -2.4318  1.8568
 2630TIP3    H229382   1.325   2.701  13.813  2.2528  0.8335  0.5292
 2631TIP3   OH229383   2.594   3.467   4.986 -0.5183  0.1525  0.2541
 2631TIP3    H129384   2.642   3.549   4.994 -1.3408  0.6899 -0.3628
 2631TIP3    H229385   2.656   3.400   5.016  0.4917  0.8840 -0.1886
 2632TIP3   OH229386   5.097   0.023  12.650  0.3089  0.4632 -0.0989
 2632TIP3    H129387   5.091  -0.051  12.590  2.9119  0.1214 -0.0161
 2632TIP3    H229388   5.085   0.100  12.594 -0.3585  0.0396 -0.5381
 2633TIP3   OH229389   2.440   1.811   5.962  0.3035  0.3182 -0.2054
 2633TIP3    H129390   2.453   1.727   5.916 -0.3986  0.8090 -1.3258
 2633TIP3    H229391   2.416   1.786   6.051  1.0317 -0.6652 -0.2715
 2634TIP3   OH229392   5.158   5.749  13.289  0.4993  0.4773  0.2197
 2634TIP3    H129393   5.227   5.768  13.352  1.0436 -0.5696 -0.0437
 2634TIP3    H229394   5.167   5.817  13.223 -0.4781  1.9516  1.5796
 2635TIP3   OH229395   1.492   1.161   3.926  0.2805  0.3154 -0.3376
 2635TIP3    H129396   1.534   1.130   4.006  0.4701  0.2631 -0.4584
 2635TIP3    H229397   1.511   1.093   3.861 -0.1926  0.1728 -0.3301
 2636TIP3   OH229398   2.725   1.010   2.562  0.1599 -0.1512 -0.0993
 2636TIP3    H129399   2.800   0.994   2.505  0.2724  0.4739 -0.1276
 2636TIP3    H229400   2.735   0.946   2.633  0.3702 -0.4942 -0.4352
 2637TIP3   OH229401   4.724   5.952   5.498 -0.2716  1.0001  0.1742
 2637TIP3    H129402   4.735   5.959   5.593 -0.3487  2.1190  0.1078
 2637TIP3    H229403   4.629   5.943   5.486 -0.1253 -1.0546  0.2985
 2638TIP3   OH229404   0.883   2.052  11.345 -0.0929  0.0840  0.4096
 2638TIP3    H129405   0.895   2.131  11.293 -0.9994  0.3315  0.5784
 2638TIP3    H229406   0.930   2.069  11.426  0.7163 -0.0221 -0.0274
 2639TIP3   OH229407   0.657   3.648  13.591 -0.7269  0.0216 -0.2486
 2639TIP3    H129408   0.691   3.653  13.681 -2.2878 -1.3945  0.4423
 2639TIP3    H229409   0.705   3.716  13.544 -0.8631  1.7202  1.9742
 2640TIP3   OH229410   5.612   5.165  13.445 -0.1379  0.2125 -0.4371
 2640TIP3    H129411   5.602   5.259  13.429  1.7116  0.3618 -0.7733
 2640TIP3    H229412   5.680   5.158  13.512 -1.1011 -0.8473  0.4504
 2641TIP3   OH229413   1.292   4.919  14.029 -0.3633  0.0310  0.0865
 2641TIP3    H129414   1.259   4.970  13.955  0.9875 -0.5065 -0.9131
 2641TIP3    H229415   1.352   4.978  14.074  0.9371 -0.5300 -0.8714
 2642TIP3   OH229416   6.236   2.800  16.773 -0.1851  0.0291  0.1134
 2642TIP3    H129417   6.274   2.800  16.861 -0.7240 -1.8796  0.3809
 2642TIP3    H229418   6.303   2.759  16.718 -0.2757  0.2369 -0.1483
 2643TIP3   OH229419   3.115   5.198   2.834 -0.2853  1.1252  0.1709
 2643TIP3    H129420   3.118   5.124   2.895 -0.0519  1.5041  0.6172
 2643TIP3    H229421   3.194   5.188   2.781 -0.3864  0.9081  0.0607
 2644TIP3   OH229422   2.038   2.214   0.165 -0.1796 -0.0049  1.3859
 2644TIP3    H129423   1.949   2.181   0.155 -0.0563 -0.2266  1.0033
 2644TIP3    H229424   2.040   2.292   0.110 -0.0169 -0.2292  1.0753
 2645TIP3   OH229425   1.501   1.468  17.221 -0.6594  0.4323 -0.5344
 2645TIP3    H129426   1.430   1.531  17.222 -3.9414 -3.0792 -0.6305
 2645TIP3    H229427   1.466   1.391  17.266  2.6394 -1.8402 -1.6559
 2646TIP3   OH229428   4.874   4.605  14.447  0.4600  0.0284  0.4195
 2646TIP3    H129429   4.832   4.591  14.362  0.3012 -0.8513  0.6385
 2646TIP3    H229430   4.818   4.560  14.510  0.2833  1.1325  1.0716
 2647TIP3   OH229431   6.493   1.170  11.607  0.3893  0.4911 -0.4602
 2647TIP3    H129432   6.535   1.101  11.557  0.3215 -0.0142  0.1696
 2647TIP3    H229433   6.400   1.147  11.607  0.3408  0.6886 -0.4281
 2648TIP3   OH229434   2.391   5.091  14.385 -0.6824  0.5007  0.6453
 2648TIP3    H129435   2.300   5.067  14.402 -0.6670  0.5823  0.8316
 2648TIP3    H229436   2.417   5.033  14.313 -0.7296  0.1369  0.9180
 2649TIP3   OH229437   2.131   4.341   3.606 -0.0854  0.1799 -0.0472
 2649TIP3    H129438   2.218   4.303   3.593  0.3293  0.8461  0.7791
 2649TIP3    H229439   2.104   4.367   3.518  0.3892 -0.3568 -0.3632
 2650TIP3   OH229440   2.447   0.710   2.948 -0.1607  0.0722  0.1276
 2650TIP3    H129441   2.392   0.758   3.011 -1.9831  0.4294 -1.6976
 2650TIP3    H229442   2.404   0.625   2.938  0.5063 -0.2370 -0.1210
 2651TIP3   OH229443   5.138   1.500  12.929  0.2502  0.3129  1.0027
 2651TIP3    H129444   5.130   1.405  12.939  0.2926 -0.0502 -1.8703
 2651TIP3    H229445   5.230   1.518  12.946  0.2831 -0.1871  1.3725
 2652TIP3   OH229446   1.430   2.442  15.338  0.1193  0.0426 -0.4674
 2652TIP3    H129447   1.454   2.376  15.404  0.3528 -0.9067 -1.4929
 2652TIP3    H229448   1.372   2.502  15.385  0.4462 -0.5081  0.6659
 2653TIP3   OH229449   4.432   4.383  11.213  0.4195 -0.3176  0.2526
 2653TIP3    H129450   4.383   4.317  11.263  0.7789 -2.5713 -2.3104
 2653TIP3    H229451   4.512   4.339  11.187  1.6244  1.8273  0.2283
 2654TIP3   OH229452   6.230   0.257  11.843 -0.7624  0.0593 -0.6002
 2654TIP3    H129453   6.271   0.230  11.761 -0.6595  0.3131 -0.6336
 2654TIP3    H229454   6.291   0.228  11.911 -0.7796 -0.0263 -0.6228
 2655TIP3   OH229455   4.254   2.978   3.306  0.3880  0.4167 -0.1502
 2655TIP3    H129456   4.179   3.008   3.357  1.2220  0.6401  0.9607
 2655TIP3    H229457   4.319   2.953   3.372  0.8508 -0.9030 -1.0870
 2656TIP3   OH229458   5.216   3.594  10.636  0.6810 -0.2224 -0.5393
 2656TIP3    H129459   5.141   3.536  10.627 -0.3763  0.4220  3.2413
 2656TIP3    H229460   5.284   3.538  10.675 -0.0291  0.7764  2.2086
 2657TIP3   OH229461   1.504   1.217   0.338 -0.2569 -0.0152 -0.0325
 2657TIP3    H129462   1.495   1.253   0.249 -0.8892  0.9845  0.4376
 2657TIP3    H229463   1.466   1.283   0.395 -0.0863 -0.7779  0.9742
 2658TIP3   OH229464   0.299   4.481  11.237  0.5039 -0.3586 -1.0238
 2658TIP3    H129465   0.237   4.425  11.189  1.7087 -2.0058 -0.6902
 2658TIP3    H229466   0.313   4.436  11.320  1.3390  0.5518 -0.6613
 2659TIP3   OH229467   1.481   1.199  14.286  0.2128  0.2569 -0.2254
 2659TIP3    H129468   1.527   1.160  14.212 -0.9419  0.9295 -1.3291
 2659TIP3    H229469   1.443   1.124  14.333 -1.4983 -0.0389 -1.9916
 2660TIP3   OH229470   3.728   1.845   2.328 -0.1741  0.2836  0.0459
 2660TIP3    H129471   3.640   1.821   2.357 -0.3347  1.2590  0.4077
 2660TIP3    H229472   3.755   1.774   2.271 -1.7992  0.7032 -1.2770
 2661TIP3   OH229473   0.326   0.197  15.910  0.0539 -0.0956 -0.4487
 2661TIP3    H129474   0.237   0.231  15.894 -0.5753 -1.2198  0.5874
 2661TIP3    H229475   0.378   0.233  15.838 -0.7668  2.3599  0.1509
 2662TIP3   OH229476   0.128   3.660  13.534  0.2737 -0.2077 -0.1660
 2662TIP3    H129477   0.127   3.588  13.596 -0.5408 -1.7522 -1.9236
 2662TIP3    H229478   0.132   3.618  13.448  1.5882  1.8882 -1.1675
 2663TIP3   OH229479   6.148   0.466   5.577  0.2418 -0.1685  0.1147
 2663TIP3    H129480   6.173   0.474   5.485 -0.3436 -1.4595 -0.1697
 2663TIP3    H229481   6.170   0.376   5.601 -2.5663 -0.8750  0.2905
 2664TIP3   OH229482   2.214   1.752  17.009 -0.3253  0.3637  0.3377
 2664TIP3    H129483   2.135   1.713  17.046 -0.9140  1.6761  0.5141
 2664TIP3    H229484   2.185   1.795  16.929  0.2506  0.7123  0.3093
 2665TIP3   OH229485   1.694   1.927  14.363 -0.2863  0.0958  0.1985
 2665TIP3    H129486   1.643   1.912  14.442 -1.3295  0.3472 -0.4203
 2665TIP3    H229487   1.632   1.914  14.291  0.3070  1.2169 -0.5396
 2666TIP3   OH229488   2.304   5.510  10.769  0.1393  0.3675 -0.0333
 2666TIP3    H129489   2.273   5.423  10.745 -1.5874  0.8099  0.4782
 2666TIP3    H229490   2.319   5.554  10.685  0.4746 -0.2474 -0.2917
 2667TIP3   OH229491   0.799   1.437   4.899 -1.1556 -0.5795  0.3110
 2667TIP3    H129492   0.788   1.472   4.987 -0.5761 -1.7121  0.8444
 2667TIP3    H229493   0.893   1.442   4.882 -1.4822  1.6939 -1.1290
 2668TIP3   OH229494   1.404   1.748   2.867 -0.0803  0.4892  0.4714
 2668TIP3    H129495   1.355   1.829   2.848 -1.1216  0.0157  1.1109
 2668TIP3    H229496   1.496   1.775   2.864 -0.3434  1.2969 -1.2296
 2669TIP3   OH229497   1.113   4.677  15.218 -0.2212 -0.2137 -0.6501
 2669TIP3    H129498   1.039   4.621  15.194  0.1717 -2.1227  2.2209
 2669TIP3    H229499   1.077   4.739  15.280  0.5360 -1.2105  0.8369
 2670TIP3   OH229500   0.593   0.372  13.814  0.2291 -0.8912  0.0950
 2670TIP3    H129501   0.508   0.409  13.836  1.0456 -0.0640  1.9948
 2670TIP3    H229502   0.636   0.439  13.761  0.8663  0.0219  1.7238
 2671TIP3   OH229503   4.094   3.211   4.849  0.2538  0.1502 -0.6482
 2671TIP3    H129504   4.156   3.277   4.882  1.3917 -0.9409 -0.5593
 2671TIP3    H229505   4.136   3.127   4.869 -1.7793 -0.6340  0.4234
 2672TIP3   OH229506   4.707   3.680  15.793  0.3046  0.2473 -0.9307
 2672TIP3    H129507   4.630   3.675  15.737  0.8582 -1.3973 -1.5689
 2672TIP3    H229508   4.780   3.655  15.736  1.0695 -0.0088  0.1456
 2673TIP3   OH229509   0.121   6.799  13.254  0.0551 -0.0525 -0.5049
 2673TIP3    H129510   0.083   6.711  13.252 -1.0068  0.4058 -0.7359
 2673TIP3    H229511   0.174   6.800  13.334 -1.3952 -0.3097  0.4914
 2674TIP3   OH229512   6.483   4.704   2.347 -0.1571  0.6647  0.3799
 2674TIP3    H129513   6.469   4.707   2.442 -0.5885 -0.0136  0.3400
 2674TIP3    H229514   6.417   4.762   2.310 -2.1415 -1.5664  0.2783
 2675TIP3   OH229515   1.626   5.682  13.896 -0.0729  0.2003 -0.0985
 2675TIP3    H129516   1.561   5.613  13.907  0.5903 -0.5837 -1.1057
 2675TIP3    H229517   1.632   5.723  13.982  0.3691 -1.7262  0.8081
 2676TIP3   OH229518   5.475   1.554  11.228 -0.2471 -0.0481 -0.4869
 2676TIP3    H129519   5.491   1.494  11.155  1.9390 -1.6212  1.2379
 2676TIP3    H229520   5.499   1.505  11.306  0.1658  2.5559  1.0891
 2677TIP3   OH229521   3.035   1.841  12.633  0.3447 -0.2020  0.0132
 2677TIP3    H129522   2.981   1.797  12.568  0.5419 -0.5429  0.0765
 2677TIP3    H229523   3.122   1.844  12.593  0.0353  1.3880 -0.5802
 2678TIP3   OH229524   6.149   5.865   1.531 -0.1092  0.4982 -0.1697
 2678TIP3    H129525   6.123   5.782   1.493  0.6850 -0.0743  0.5279
 2678TIP3    H229526   6.212   5.902   1.469  2.2157 -1.0584  1.2053
 2679TIP3   OH229527   3.844   2.186  16.426  0.0146 -0.6993  0.0504
 2679TIP3    H129528   3.865   2.108  16.477  2.1596  0.9841  1.8327
 2679TIP3    H229529   3.901   2.254  16.461 -1.7907  1.6970 -1.4814
 2680TIP3   OH229530   3.862   1.648  16.386  0.7049  0.3016  0.2403
 2680TIP3    H129531   3.778   1.655  16.342  0.4193 -0.3518  0.6690
 2680TIP3    H229532   3.840   1.640  16.479  1.2396  0.1778  0.3622
 2681TIP3   OH229533   5.711   3.444  15.302  0.1612  0.7956 -0.2917
 2681TIP3    H129534   5.783   3.457  15.363  1.7797  0.9665 -2.2024
 2681TIP3    H229535   5.657   3.523  15.311 -1.0303 -0.2901  2.7166
 2682TIP3   OH229536   3.995   6.249   3.001  0.4836  0.1177  0.0958
 2682TIP3    H129537   3.955   6.310   2.940 -0.1105  0.3057  0.6680
 2682TIP3    H229538   3.994   6.164   2.956  0.7289  0.4033 -0.4459
 2683TIP3   OH229539   6.618   6.421   2.383 -0.0008  0.0912  0.0495
 2683TIP3    H129540   6.682   6.447   2.316 -1.7605  1.0241 -1.2842
 2683TIP3    H229541   6.587   6.503   2.421  0.4465 -0.4059  1.5607
 2684TIP3   OH229542   3.204   5.512   1.223  0.1618 -0.6027 -0.0999
 2684TIP3    H129543   3.213   5.478   1.134  0.3331 -1.7658  0.3473
 2684TIP3    H229544   3.136   5.458   1.262  0.9592 -0.9312  0.8630
 2685TIP3   OH229545   6.383   2.709  11.371 -0.0483  1.2764 -0.3446
 2685TIP3    H129546   6.477   2.696  11.382 -0.4720 -2.5486 -0.6756
 2685TIP3    H229547   6.375   2.753  11.286  1.3157 -1.1953 -1.8099
 2686TIP3   OH229548   3.652   1.561   3.911 -0.6958 -0.2059  0.0840
 2686TIP3    H129549   3.609   1.593   3.832 -0.4577  2.0950  0.8523
 2686TIP3    H229550   3.582   1.523   3.964 -1.5918  2.1634  0.6617
 2687TIP3   OH229551   5.802   1.928  11.989  0.2552 -0.6414  0.1319
 2687TIP3    H129552   5.830   1.991  12.056 -0.5523  1.2226 -1.2243
 2687TIP3    H229553   5.841   1.961  11.908 -1.1421 -1.2055 -0.7958
 2688TIP3   OH229554   6.771   2.589  12.331 -0.0435  0.1205  0.6689
 2688TIP3    H129555   6.708   2.638  12.384  1.2325  1.2337  1.1780
 2688TIP3    H229556   6.839   2.653  12.308  0.7078 -0.9593 -0.2122
 2689TIP3   OH229557   3.007   5.352   4.551  0.1541  0.1514  0.1531
 2689TIP3    H129558   3.035   5.263   4.533  0.0137  0.5482 -2.1785
 2689TIP3    H229559   3.032   5.402   4.474 -3.2721  1.3316 -0.3095
 2690TIP3   OH229560   0.285   6.574  12.962 -0.1290  0.3311  0.0618
 2690TIP3    H129561   0.269   6.567  12.868 -1.2255  0.2533  0.2494
 2690TIP3    H229562   0.220   6.638  12.993  0.9549  1.1973  0.5854
 2691TIP3   OH229563   3.518   2.238  17.254  0.3569 -0.4065  0.1403
 2691TIP3    H129564   3.487   2.192  17.176  0.6220 -0.9262  0.3422
 2691TIP3    H229565   3.456   2.311  17.264  0.7425  0.0852 -0.9710
 2692TIP3   OH229566   2.148   1.632   6.162 -0.1436 -0.0328 -0.2491
 2692TIP3    H129567   2.139   1.566   6.094 -1.5680 -0.3186  0.2040
 2692TIP3    H229568   2.098   1.598   6.236  1.0632  0.4467  0.8206
 2693TIP3   OH229569   4.336   6.024   1.557 -0.0293 -0.3266 -0.1192
 2693TIP3    H129570   4.304   5.947   1.510  2.6484 -0.3744 -1.9924
 2693TIP3    H229571   4.257   6.067   1.590 -1.8110 -1.8384 -2.2863
 2694TIP3   OH229572   6.220   4.340  17.232  0.0369 -0.0739 -0.0636
 2694TIP3    H129573   6.136   4.307  17.265 -0.1303  0.3586 -0.0555
 2694TIP3    H229574   6.213   4.435  17.239  0.2305 -0.0058 -0.7754
 2695TIP3   OH229575   4.847   2.690  11.845  0.1772  0.2348  0.1991
 2695TIP3    H129576   4.774   2.710  11.787 -0.3425  0.1660  0.8143
 2695TIP3    H229577   4.805   2.658  11.925  0.9537 -2.2829 -0.3597
 2696TIP3   OH229578   3.125   6.450  11.648  0.1210 -0.2149 -0.9148
 2696TIP3    H129579   3.110   6.363  11.685  0.7475 -1.2252 -2.9739
 2696TIP3    H229580   3.214   6.447  11.614  0.8055  1.8395  0.5458
 2697TIP3   OH229581   0.783   4.884   5.457  0.1482  0.1781 -0.2500
 2697TIP3    H129582   0.817   4.962   5.500 -1.1045  0.2620  0.6000
 2697TIP3    H229583   0.731   4.840   5.524 -1.4714  0.0816 -1.5434
 2698TIP3   OH229584   2.313   4.869  15.585  0.1840  0.2483 -0.0019
 2698TIP3    H129585   2.400   4.909  15.584  0.6883 -0.8682 -1.5738
 2698TIP3    H229586   2.296   4.844  15.495 -1.6604  0.1772  0.3369
 2699TIP3   OH229587   0.140   0.948  13.596  0.2576  0.4405 -0.2415
 2699TIP3    H129588   0.045   0.961  13.591  0.2840 -0.2285 -3.9574
 2699TIP3    H229589   0.151   0.877  13.658 -1.8228 -0.5457 -0.9518
 2700TIP3   OH229590   4.755   5.502   0.260  0.1342 -0.1188 -0.6049
 2700TIP3    H129591   4.734   5.584   0.215 -0.5871 -0.4853 -0.9595
 2700TIP3    H229592   4.816   5.457   0.201  0.3454  0.0594 -0.5216
 2701TIP3   OH229593   3.633   6.597  16.384  0.4487  0.6784  0.0861
 2701TIP3    H129594   3.558   6.539  16.392 -0.3547  2.0123  2.7506
 2701TIP3    H229595   3.621   6.641  16.300  0.2549 -1.8135 -1.2373
 2702TIP3   OH229596   6.360   3.622   5.317 -0.9009  0.0296 -0.1763
 2702TIP3    H129597   6.287   3.632   5.257  0.6743  0.3135 -2.1117
 2702TIP3    H229598   6.412   3.702   5.305  0.7268 -1.0137 -0.2619
 2703TIP3   OH229599   6.817   0.707   1.064  0.0258 -0.3681  0.1875
 2703TIP3    H129600   6.805   0.800   1.084  0.3473 -0.0534 -1.0303
 2703TIP3    H229601   6.789   0.699   0.972 -1.8279 -1.8370  0.8471
 2704TIP3   OH229602   4.579   2.152   6.238  0.2984 -0.0945  0.1541
 2704TIP3    H129603   4.551   2.109   6.319  0.4777  0.2499  0.4034
 2704TIP3    H229604   4.536   2.103   6.169  0.2305 -0.4631  0.4536
 2705TIP3   OH229605   3.596   4.287   0.887 -0.6637 -1.0375 -0.1223
 2705TIP3    H129606   3.533   4.304   0.816 -1.3199 -0.7844  0.5165
 2705TIP3    H229607   3.546   4.238   0.953 -0.9327  1.4421  1.5687
 2706TIP3   OH229608   4.698   2.333  11.659  0.1596  0.2194 -0.0540
 2706TIP3    H129609   4.728   2.346  11.749 -0.3261  1.9222 -0.1176
 2706TIP3    H229610   4.728   2.411  11.612 -2.3765  0.9135 -0.6202
 2707TIP3   OH229611   4.332   5.575   5.925 -0.3118 -0.2968 -0.3750
 2707TIP3    H129612   4.393   5.519   5.877  0.8680 -0.2146  1.0070
 2707TIP3    H229613   4.383   5.652   5.948 -1.0825  0.0062  0.3534
 2708TIP3   OH229614   5.796   1.691   3.555 -0.0696 -0.0580  0.2452
 2708TIP3    H129615   5.875   1.722   3.600 -0.6116  1.2220  0.3535
 2708TIP3    H229616   5.746   1.646   3.623  0.5359 -0.8251  0.1890
 2709TIP3   OH229617   3.125   3.223  14.134 -0.2691  0.0019 -0.0337
 2709TIP3    H129618   3.136   3.137  14.092 -1.3810 -0.1822  0.0278
 2709TIP3    H229619   3.137   3.286  14.063 -2.9858 -0.3331 -0.8474
 2710TIP3   OH229620   0.304   6.282   0.937  0.1828 -0.1533  0.2574
 2710TIP3    H129621   0.221   6.327   0.921  0.5754  0.7043  0.6087
 2710TIP3    H229622   0.319   6.231   0.857 -1.3420 -1.3819  0.7197
 2711TIP3   OH229623   5.063   1.973   5.233 -0.1064 -0.4491 -0.1478
 2711TIP3    H129624   5.044   1.913   5.161 -0.6488  1.6964 -1.8073
 2711TIP3    H229625   5.158   1.982   5.232 -0.0757 -0.7730 -0.2930
 2712TIP3   OH229626   4.830   2.816   6.456 -0.1995  0.0423  0.2022
 2712TIP3    H129627   4.920   2.838   6.480 -0.1880  0.4674 -0.2196
 2712TIP3    H229628   4.826   2.833   6.362 -0.0143 -2.3782 -0.2722
 2713TIP3   OH229629   5.286   3.608   5.166 -0.7858 -0.1443  0.4272
 2713TIP3    H129630   5.329   3.619   5.081 -2.6073 -0.1549 -0.5169
 2713TIP3    H229631   5.355   3.626   5.230  0.2393  1.3260 -1.0459
 2714TIP3   OH229632   2.093   5.328  15.162 -0.0448  0.1718  0.2297
 2714TIP3    H129633   2.157   5.260  15.140  2.0826  1.9229  0.8380
 2714TIP3    H229634   2.011   5.296  15.124  1.6454 -1.0672 -2.6226
 2715TIP3   OH229635   5.367   3.442   5.522 -0.2952  0.4892 -0.1603
 2715TIP3    H129636   5.424   3.515   5.545  0.0692  0.3298 -0.5469
 2715TIP3    H229637   5.360   3.445   5.427 -1.5082  0.9269 -0.0675
 2716TIP3   OH229638   1.491   5.001   0.738 -0.2627  0.8536  0.3148
 2716TIP3    H129639   1.498   4.922   0.684 -0.7555  0.9574  0.0924
 2716TIP3    H229640   1.550   5.064   0.697  0.6155  0.4026  0.8611
 2717TIP3   OH229641   4.989   3.982  16.753  0.3529 -0.9990 -0.0530
 2717TIP3    H129642   4.985   4.016  16.664 -0.5191  1.2066  0.8037
 2717TIP3    H229643   5.060   4.031  16.794 -0.5931 -0.5309  1.0490
 2718TIP3   OH229644   3.138   5.723   0.999 -0.1119 -0.3774 -0.3659
 2718TIP3    H129645   3.169   5.637   0.971  1.3412 -0.2408  0.7617
 2718TIP3    H229646   3.052   5.706   1.038  0.7495 -1.5503  1.1020
 2719TIP3   OH229647   5.073   6.091  15.882  0.6268 -0.6216 -0.7530
 2719TIP3    H129648   5.056   6.140  15.802 -0.0803 -1.0928 -0.8962
 2719TIP3    H229649   5.117   6.153  15.940  1.7259 -0.4651 -1.7459
 2720TIP3   OH229650   0.830   4.570   3.143 -0.6964  0.1936 -0.4697
 2720TIP3    H129651   0.781   4.574   3.226 -1.2335  2.7576 -0.8613
 2720TIP3    H229652   0.815   4.481   3.110 -1.6516 -0.3907  1.4742
 2721TIP3   OH229653   5.587   5.204   3.967  0.0254  0.7587 -0.0468
 2721TIP3    H129654   5.674   5.228   3.999  0.8770  1.5905 -2.8491
 2721TIP3    H229655   5.549   5.286   3.938 -1.1326  0.1756 -0.1864
 2722TIP3   OH229656   0.290   1.215   4.112 -0.3946  0.2684 -0.8109
 2722TIP3    H129657   0.316   1.179   4.027 -1.1983 -1.8782 -0.1472
 2722TIP3    H229658   0.195   1.219   4.109 -0.4563 -0.3604  0.2174
 2723TIP3   OH229659   4.571   6.316   0.926  0.6965  0.5300  0.0692
 2723TIP3    H129660   4.486   6.286   0.957  0.3012  2.6120  1.1085
 2723TIP3    H229661   4.567   6.411   0.936  2.3582  0.8313 -1.8689
 2724TIP3   OH229662   1.994   4.055  15.893  0.2492  0.8104  0.2837
 2724TIP3    H129663   1.998   4.149  15.907  0.1005  0.4644  2.9610
 2724TIP3    H229664   2.086   4.028  15.890  0.2919  1.0435 -0.5368
 2725TIP3   OH229665   1.323   6.009   4.724 -0.3592  0.3548 -0.3488
 2725TIP3    H129666   1.258   6.001   4.793  1.3620  0.1198  1.2964
 2725TIP3    H229667   1.379   5.932   4.736  0.8502  1.1135 -1.0429
 2726TIP3   OH229668   5.536   3.678   2.533 -0.0454  0.1243 -0.2800
 2726TIP3    H129669   5.615   3.629   2.511  0.0091  0.2348 -0.3349
 2726TIP3    H229670   5.464   3.616   2.519  0.1229 -0.3611  1.0017
 2727TIP3   OH229671   2.310   0.443  16.047  0.2984 -0.5575 -0.4685
 2727TIP3    H129672   2.398   0.479  16.055 -0.6780  1.8304 -0.2935
 2727TIP3    H229673   2.315   0.386  15.969  1.4474  1.2107 -1.7155
 2728TIP3   OH229674   5.839   6.469  15.296 -0.6537 -0.1211  0.1923
 2728TIP3    H129675   5.910   6.413  15.264 -1.0944 -1.0503  0.8245
 2728TIP3    H229676   5.882   6.552  15.318  0.2425 -0.6690  0.5377
 2729TIP3   OH229677   3.176   3.166  17.142 -0.2546 -0.6274 -0.3242
 2729TIP3    H129678   3.143   3.101  17.204  0.7824 -0.5908  0.2811
 2729TIP3    H229679   3.133   3.248  17.167  0.1514 -0.6150  0.3632
 2730TIP3   OH229680   5.337   1.015  11.555  0.7271  0.1396 -0.7578
 2730TIP3    H129681   5.424   0.999  11.593 -0.0473  0.0831  1.0120
 2730TIP3    H229682   5.319   1.107  11.574  0.1115 -0.0246 -0.5610
 2731TIP3   OH229683   3.929   1.091   6.122 -0.5369 -0.0240  0.1033
 2731TIP3    H129684   3.868   1.152   6.164  0.4413  1.4836 -0.6589
 2731TIP3    H229685   3.925   1.114   6.030  1.1549  0.0334  0.0438
 2732TIP3   OH229686   6.184   2.448   1.914 -0.4886  0.0907  0.4791
 2732TIP3    H129687   6.215   2.461   1.824  0.2525  0.0757  0.7329
 2732TIP3    H229688   6.160   2.355   1.917  2.6747 -0.7437  1.2641
 2733TIP3   OH229689   6.088   0.221   1.628  0.5905  0.0386 -0.0276
 2733TIP3    H129690   6.012   0.176   1.664  0.2640  0.8604  0.3126
 2733TIP3    H229691   6.140   0.151   1.588 -1.7499 -0.1427 -2.8461
 2734TIP3   OH229692   5.692   0.452  11.807 -0.4286  0.7535 -0.0437
 2734TIP3    H129693   5.763   0.489  11.860 -1.1944  1.7832  0.2705
 2734TIP3    H229694   5.650   0.389  11.865  1.1461 -0.9712 -0.7221
 2735TIP3   OH229695   0.473   2.710  15.982  0.8795  0.3435  0.8352
 2735TIP3    H129696   0.402   2.726  15.920 -0.5697 -0.0363  2.3564
 2735TIP3    H229697   0.535   2.655  15.934 -0.4514 -0.3701 -0.1157
 2736TIP3   OH229698   2.234   3.112  16.290 -0.1113  0.0087  0.5979
 2736TIP3    H129699   2.172   3.058  16.338 -0.9412 -0.2101 -0.7025
 2736TIP3    H229700   2.186   3.191  16.267  0.6321  0.6307  1.1288
 2737TIP3   OH229701   5.058   6.054  15.202  0.2792  0.3750 -0.2047
 2737TIP3    H129702   5.021   5.986  15.258  0.0907  2.6099  2.5142
 2737TIP3    H229703   4.987   6.078  15.143  0.1321 -1.2750 -0.7226
 2738TIP3   OH229704   3.060   0.473  11.967  0.5128 -0.4702 -0.3253
 2738TIP3    H129705   2.964   0.478  11.968  0.4829  1.5591 -4.3276
 2738TIP3    H229706   3.087   0.522  12.045 -1.6496 -0.3815  0.4204
 2739TIP3   OH229707   2.446   3.608  11.945  0.2590  0.2657  1.0281
 2739TIP3    H129708   2.372   3.589  12.002 -0.9868  0.2746 -0.5239
 2739TIP3    H229709   2.447   3.704  11.939 -1.1915  0.1986 -0.9046
 2740TIP3   OH229710   3.230   5.565   2.386  0.3244 -0.7087  0.6760
 2740TIP3    H129711   3.313   5.541   2.346  0.2828 -1.8641  1.2350
 2740TIP3    H229712   3.165   5.515   2.337 -0.1916  1.1323 -0.5677
 2741TIP3   OH229713   2.401   6.437   0.746 -0.1193  0.2034 -0.3604
 2741TIP3    H129714   2.339   6.509   0.760 -2.0325 -1.3647 -0.6561
 2741TIP3    H229715   2.434   6.416   0.833  0.9166  1.8165 -0.3336
 2742TIP3   OH229716   1.110   1.575   0.759  0.5337 -0.5779 -0.3761
 2742TIP3    H129717   1.199   1.585   0.725  0.4888  0.0748 -0.3131
 2742TIP3    H229718   1.105   1.638   0.831 -0.4536  0.4626 -1.3495
 2743TIP3   OH229719   3.706   6.711  13.390 -0.2786 -0.0671  0.0156
 2743TIP3    H129720   3.633   6.684  13.446 -1.4047  2.0294 -0.3524
 2743TIP3    H229721   3.745   6.629  13.360  0.2174 -1.2449  3.6425
 2744TIP3   OH229722   1.853   4.967   3.041 -0.3487  0.3376 -0.2765
 2744TIP3    H129723   1.922   4.936   3.100 -0.1634  1.2206 -0.0153
 2744TIP3    H229724   1.870   4.922   2.958  0.3190  0.2724 -0.1066
 2745TIP3   OH229725   3.023   2.223   4.611 -0.3954  0.2133 -0.0130
 2745TIP3    H129726   3.052   2.306   4.572  1.2749 -0.7714 -0.9246
 2745TIP3    H229727   2.997   2.170   4.536  0.7159 -0.8892  0.3674
 2746TIP3   OH229728   1.427   4.627  15.907  0.3254  0.0787  0.0757
 2746TIP3    H129729   1.499   4.608  15.847  0.5713  0.4794  0.2397
 2746TIP3    H229730   1.368   4.552  15.899  0.1435  0.3250 -0.9779
 2747TIP3   OH229731   2.476   5.104  12.153  0.7902 -0.1749 -0.2286
 2747TIP3    H129732   2.535   5.031  12.170 -0.2118 -1.1325 -0.7612
 2747TIP3    H229733   2.464   5.104  12.058 -2.3354 -1.8798  0.0746
 2748TIP3   OH229734   1.363   2.285   5.123 -0.3025 -0.0632  0.5220
 2748TIP3    H129735   1.416   2.311   5.048 -1.9673  1.0851 -0.2821
 2748TIP3    H229736   1.409   2.209   5.160  0.7573 -0.3777 -1.3917
 2749TIP3   OH229737   1.477   2.344   3.679 -0.2004 -0.2373  0.0028
 2749TIP3    H129738   1.516   2.430   3.691  0.0402  0.1077 -2.8220
 2749TIP3    H229739   1.551   2.283   3.686 -0.0755 -0.0661  0.1907
 2750TIP3   OH229740   1.585   5.904   3.775 -0.0230  0.0096 -0.0586
 2750TIP3    H129741   1.647   5.968   3.809  0.7805 -0.2027 -1.1203
 2750TIP3    H229742   1.545   5.866   3.853  1.5511 -0.2261  0.6496
 2751TIP3   OH229743   4.870   6.138  12.060  0.1583  0.6655 -0.1614
 2751TIP3    H129744   4.811   6.206  12.094  0.2983  1.1528 -0.8602
 2751TIP3    H229745   4.927   6.185  11.999  0.0066 -0.1483 -0.9434
 2752TIP3   OH229746   1.972   5.005  11.288  0.1797  0.0963 -0.3505
 2752TIP3    H129747   2.020   4.969  11.213 -0.4175  1.4734 -1.4334
 2752TIP3    H229748   1.880   4.998  11.263 -0.0590 -0.1206  0.5814
 2753TIP3   OH229749   1.217   0.438  12.795 -0.0304 -0.6250  0.1839
 2753TIP3    H129750   1.168   0.479  12.723  2.5445  2.3749  0.0173
 2753TIP3    H229751   1.178   0.476  12.874 -1.0315 -1.8412  0.3005
 2754TIP3   OH229752   0.892   2.602   3.171 -0.3673  0.3311  0.5174
 2754TIP3    H129753   0.916   2.527   3.116  0.6280  0.2150  1.0909
 2754TIP3    H229754   0.976   2.635   3.204 -0.8483  1.2849  0.8129
 2755TIP3   OH229755   0.618   1.493   4.052  0.3912  0.1719 -0.3575
 2755TIP3    H129756   0.646   1.585   4.057  0.1919  0.3607 -2.1941
 2755TIP3    H229757   0.530   1.493   4.090 -0.1070  0.9885 -1.4731
 2756TIP3   OH229758   0.700   2.019  11.975 -0.8601 -0.3163 -0.0150
 2756TIP3    H129759   0.715   2.046  11.884  0.9349 -1.1393 -0.0020
 2756TIP3    H229760   0.631   2.077  12.007 -1.0639  0.4020 -1.7155
 2757TIP3   OH229761   1.008   2.508   1.391 -0.1042 -0.1814  0.5415
 2757TIP3    H129762   1.046   2.492   1.478 -2.0052  1.4635  1.7048
 2757TIP3    H229763   1.031   2.599   1.372 -0.8671 -0.1194 -0.0707
 2758TIP3   OH229764   1.376   0.701  14.630  0.3521  0.4160 -0.0809
 2758TIP3    H129765   1.318   0.645  14.682  0.3290  0.9430  0.4664
 2758TIP3    H229766   1.448   0.643  14.604 -0.6775 -0.3793 -1.2077
 2759TIP3   OH229767   5.567   6.037  17.138 -0.3224 -0.7867 -0.3339
 2759TIP3    H129768   5.658   6.038  17.166 -0.1445  0.0684 -0.9317
 2759TIP3    H229769   5.551   5.946  17.113  0.1146 -1.1189  0.5562
 2760TIP3   OH229770   5.085   2.250   0.712  0.2229 -0.1392 -0.2772
 2760TIP3    H129771   5.138   2.179   0.677 -1.3737 -0.7694 -1.4829
 2760TIP3    H229772   5.034   2.282   0.638  0.4638  1.8704  0.3822
 2761TIP3   OH229773   1.876   6.457  13.937  0.0935  0.0547  0.7425
 2761TIP3    H129774   1.938   6.487  14.003  0.5804  0.7378 -0.0247
 2761TIP3    H229775   1.857   6.534  13.885  0.1913 -0.6222 -0.3031
 2762TIP3   OH229776   2.673   1.837  11.637  0.4288  0.0618 -0.2778
 2762TIP3    H129777   2.595   1.781  11.638 -0.1713  0.8685  2.3506
 2762TIP3    H229778   2.668   1.885  11.554 -0.6865 -1.4997 -1.1394
 2763TIP3   OH229779   2.494   5.564   5.963 -0.1964 -0.4118  0.3511
 2763TIP3    H129780   2.542   5.511   5.899  1.4113  1.2815  0.1062
 2763TIP3    H229781   2.404   5.562   5.932 -0.0494 -2.3919 -0.0450
 2764TIP3   OH229782   3.369   3.452   2.549 -0.0025  0.0603  0.4585
 2764TIP3    H129783   3.380   3.543   2.520  0.1331  0.6129  2.1574
 2764TIP3    H229784   3.459   3.418   2.555 -0.0303 -0.0575  0.1743
 2765TIP3   OH229785   3.949   4.034  13.243  0.1737  0.2300 -0.3783
 2765TIP3    H129786   4.003   3.955  13.239  0.3470  0.4275 -2.0673
 2765TIP3    H229787   3.877   4.017  13.182 -1.6032  0.0504  1.7052
 2766TIP3   OH229788   2.847   5.304   4.941  0.3132 -0.5108 -0.5103
 2766TIP3    H129789   2.900   5.277   4.867  0.6800 -1.1831 -0.0137
 2766TIP3    H229790   2.795   5.226   4.962 -0.3658 -0.0761 -0.5609
 2767TIP3   OH229791   0.460   3.719  12.131  0.0044  0.2550  0.0317
 2767TIP3    H129792   0.381   3.692  12.084 -0.0200 -1.0055  0.7740
 2767TIP3    H229793   0.532   3.675  12.084  0.2683  1.2751 -0.5467
 2768TIP3   OH229794   5.124   0.369   3.259 -0.0340 -0.1697 -0.4616
 2768TIP3    H129795   5.115   0.460   3.229 -0.0682 -0.1640 -0.4335
 2768TIP3    H229796   5.095   0.370   3.350 -0.1768 -0.2378 -0.5066
 2769TIP3   OH229797   5.404   4.295  16.167  0.5734 -0.1146 -0.0767
 2769TIP3    H129798   5.322   4.343  16.183  0.3335 -1.0495  1.6365
 2769TIP3    H229799   5.473   4.360  16.177  0.2480 -0.1051  2.2220
 2770TIP3   OH229800   1.140   3.164   4.522 -0.0566 -0.0225  0.1361
 2770TIP3    H129801   1.159   3.092   4.583 -0.0715  0.2150  0.4228
 2770TIP3    H229802   1.204   3.232   4.544  1.3948 -0.7832 -1.5854
 2771TIP3   OH229803   0.340   5.487  13.993 -0.4277  0.1836 -0.2772
 2771TIP3    H129804   0.300   5.574  13.991  0.7448  0.7224 -2.3818
 2771TIP3    H229805   0.282   5.433  13.938  0.3722  0.3669 -1.3243
 2772TIP3   OH229806   1.175   0.302  17.187 -0.0528  0.0543  0.5121
 2772TIP3    H129807   1.216   0.382  17.219  0.3825  0.1050 -0.1495
 2772TIP3    H229808   1.228   0.277  17.111 -0.6575 -0.4256  0.2420
 2773TIP3   OH229809   6.589   0.004  12.267 -0.0267 -0.2184  0.0654
 2773TIP3    H129810   6.576   0.099  12.269 -0.7154 -0.3360  1.4818
 2773TIP3    H229811   6.645  -0.010  12.190 -0.2240  1.2880 -0.3833
 2774TIP3   OH229812   6.657   5.936  12.789 -0.2389 -0.4372  0.0617
 2774TIP3    H129813   6.688   5.917  12.700 -1.0641 -1.0645 -0.1022
 2774TIP3    H229814   6.628   6.027  12.785 -0.6511 -0.5853 -0.4230
 2775TIP3   OH229815   5.464   1.314  12.388 -0.2637  0.1105 -0.0475
 2775TIP3    H129816   5.379   1.319  12.345  0.1829 -0.5144 -1.0160
 2775TIP3    H229817   5.525   1.354  12.326  0.3595 -0.6314  0.0839
 2776TIP3   OH229818   6.205   6.604   4.110  0.0737 -0.4620  0.6476
 2776TIP3    H129819   6.204   6.520   4.063 -2.0553  1.0404 -2.1077
 2776TIP3    H229820   6.279   6.652   4.072 -0.5820  0.0800  0.0478
 2777TIP3   OH229821   4.318   6.473   1.571  0.3370 -0.4763  0.0208
 2777TIP3    H129822   4.334   6.531   1.645 -0.3494 -0.2202 -0.0284
 2777TIP3    H229823   4.393   6.488   1.513 -0.2234  0.9616 -0.3617
 2778TIP3   OH229824   6.071   3.145   4.421  0.2842 -0.0529 -0.6681
 2778TIP3    H129825   6.003   3.078   4.414 -0.2288  0.0794  2.2909
 2778TIP3    H229826   6.024   3.225   4.444  1.4484 -0.1408  2.2863
 2779TIP3   OH229827   6.477   4.669   5.671 -0.1841 -0.8008  0.1607
 2779TIP3    H129828   6.399   4.671   5.615 -0.4120 -2.4708  0.3913
 2779TIP3    H229829   6.548   4.696   5.613 -0.9353  0.8459 -0.0239
 2780TIP3   OH229830   3.814   0.965   4.575 -0.3406 -0.3291  0.3383
 2780TIP3    H129831   3.788   0.872   4.576 -0.2959 -0.3254  2.0487
 2780TIP3    H229832   3.908   0.962   4.558 -0.8241 -0.4667 -2.5343
 2781TIP3   OH229833   0.061   2.018  15.482 -0.7127 -0.0688  0.5562
 2781TIP3    H129834   0.082   1.946  15.422 -2.3580  1.6556 -2.1972
 2781TIP3    H229835   0.146   2.044  15.519  0.4168 -0.7851 -1.4692
 2782TIP3   OH229836   5.822   4.702   4.490  0.8269  0.3828  0.2743
 2782TIP3    H129837   5.785   4.756   4.560 -0.6366  1.0010 -0.9402
 2782TIP3    H229838   5.903   4.746   4.467 -0.4302  2.1897 -0.8137
 2783TIP3   OH229839   3.533   0.501  16.406  0.6770 -0.6239  0.0644
 2783TIP3    H129840   3.555   0.428  16.349  2.1448 -0.1268 -0.0297
 2783TIP3    H229841   3.609   0.559  16.401 -1.2153  1.8752 -1.4137
 2784TIP3   OH229842   2.745   1.989   4.425  0.5063 -0.4873 -0.0474
 2784TIP3    H129843   2.682   2.040   4.477 -1.1704 -1.7276 -0.8027
 2784TIP3    H229844   2.829   2.031   4.441 -0.8824  2.8263 -1.0261
 2785TIP3   OH229845   4.151   0.752   1.289 -0.0990 -0.3475 -0.7398
 2785TIP3    H129846   4.145   0.804   1.209 -0.0265 -0.2147 -0.6587
 2785TIP3    H229847   4.234   0.778   1.329 -0.1013 -0.4641 -0.6572
 2786TIP3   OH229848   0.672   6.079  12.724  0.5777  0.4976 -0.5094
 2786TIP3    H129849   0.606   6.087  12.656  0.1507  0.8459 -0.0558
 2786TIP3    H229850   0.627   6.103  12.805  0.9395 -0.4024 -0.0300
 2787TIP3   OH229851   0.738   5.750   2.916  0.3601  0.5717 -0.6587
 2787TIP3    H129852   0.752   5.808   2.841  2.1493  1.5512  0.3826
 2787TIP3    H229853   0.821   5.703   2.925  0.6718  1.4621  1.5156
 2788TIP3   OH229854   0.485   2.631   2.968  0.6085 -0.1782 -0.0444
 2788TIP3    H129855   0.515   2.663   3.053 -0.1472 -0.8112  0.4673
 2788TIP3    H229856   0.461   2.710   2.919  1.4846  0.2152  0.1609
 2789TIP3   OH229857   6.707   0.973   3.027  0.3488 -0.3863  0.0865
 2789TIP3    H129858   6.714   1.055   2.977  0.3786  1.2198  2.6519
 2789TIP3    H229859   6.784   0.974   3.084  0.8429 -2.6821 -0.5225
 2790TIP3   OH229860   4.317   0.460  13.379  0.0186 -0.0802  0.1906
 2790TIP3    H129861   4.355   0.547  13.394 -0.3823  0.2591 -0.7280
 2790TIP3    H229862   4.393   0.401  13.379  0.3845  0.3829 -0.0005
 2791TIP3   OH229863   6.309   3.217  16.904  0.2374 -0.4602  0.8130
 2791TIP3    H129864   6.326   3.311  16.906 -0.3412 -0.3072 -1.0623
 2791TIP3    H229865   6.381   3.178  16.955 -0.6822  1.1454  3.4273
 2792TIP3   OH229866   6.086   2.639   0.303  0.3771 -0.0296 -0.0320
 2792TIP3    H129867   6.106   2.679   0.389 -0.0592 -0.9993  0.5234
 2792TIP3    H229868   5.991   2.643   0.296  0.3730 -0.4723 -0.2209
 2793TIP3   OH229869   5.694   1.228   3.237  0.3065 -0.0347  0.1605
 2793TIP3    H129870   5.769   1.231   3.179  0.9357 -1.5166  0.8803
 2793TIP3    H229871   5.684   1.319   3.268  0.8548  0.4571 -1.1017
 2794TIP3   OH229872   5.069   6.661  13.019 -0.6568 -0.4430  0.8597
 2794TIP3    H129873   5.005   6.657  12.948 -0.5277 -0.1632  0.7295
 2794TIP3    H229874   5.150   6.627  12.981 -0.5412 -0.1265  0.8230
 2795TIP3   OH229875   1.115   6.529   0.609  0.1651  0.1196  0.0679
 2795TIP3    H129876   1.167   6.539   0.529  0.2176 -0.1877  0.0628
 2795TIP3    H229877   1.085   6.617   0.629  1.3366  0.4384  0.5041
 2796TIP3   OH229878   2.712   2.750   1.812 -0.1878  0.3108 -0.6786
 2796TIP3    H129879   2.658   2.673   1.793 -0.7785  0.8042 -1.0230
 2796TIP3    H229880   2.766   2.724   1.886 -0.9832 -0.1505 -0.2537
 2797TIP3   OH229881   1.523   6.368  13.566  0.0611  0.6210 -0.1003
 2797TIP3    H129882   1.528   6.323  13.651 -2.1664 -0.7007 -0.6056
 2797TIP3    H229883   1.447   6.426  13.574 -0.5208  0.0677 -1.3384
 2798TIP3   OH229884   1.031   2.493   3.861  0.4306 -0.4946 -0.3039
 2798TIP3    H129885   1.085   2.427   3.816 -0.8221  0.2981 -3.0725
 2798TIP3    H229886   1.090   2.567   3.872  0.8041 -0.7482 -0.5538
 2799TIP3   OH229887   0.447   6.228   5.461  0.1037  0.5475  0.3898
 2799TIP3    H129888   0.354   6.212   5.451  0.3112  0.1306 -1.1235
 2799TIP3    H229889   0.460   6.241   5.554 -1.3502 -0.1619  0.7051
 2800TIP3   OH229890   3.130   6.800   7.052 -0.0435 -0.5071 -0.2553
 2800TIP3    H129891   3.144   6.894   7.062  0.5606 -0.7471  1.2097
 2800TIP3    H229892   3.202   6.770   6.997 -0.1884 -0.1411 -0.6497
 2801TIP3   OH229893   1.216   4.450   2.075  0.3039 -0.0183  0.6128
 2801TIP3    H129894   1.186   4.462   1.985  1.5909  0.8998  0.3037
 2801TIP3    H229895   1.200   4.357   2.093 -2.0195  0.2626  0.2158
 2802TIP3   OH229896   3.225   5.741   5.047 -0.1408 -0.0741  0.3076
 2802TIP3    H129897   3.225   5.677   5.117  0.5274  0.1467  0.5089
 2802TIP3    H229898   3.176   5.699   4.976 -2.4005  0.4075  1.5395
 2803TIP3   OH229899   1.175   1.491   3.045  0.1604 -0.0039 -0.0329
 2803TIP3    H129900   1.235   1.445   2.986 -0.3541 -1.5901  0.6665
 2803TIP3    H229901   1.089   1.482   3.003  0.0030  0.0390  0.2828
 2804TIP3   OH229902   5.195   0.653   5.493 -1.0249  0.3146  0.5341
 2804TIP3    H129903   5.262   0.721   5.504  0.2085 -0.5294 -1.3557
 2804TIP3    H229904   5.223   0.583   5.551  1.0437 -0.9365 -1.8535
 2805TIP3   OH229905   4.934   4.731  15.144  0.5325 -0.4582  0.2330
 2805TIP3    H129906   5.001   4.753  15.208  0.8621  2.7276 -1.1349
 2805TIP3    H229907   4.981   4.726  15.061 -0.3732 -1.7006 -0.2321
 2806TIP3   OH229908   3.797   5.123   0.220 -0.4839 -0.4969  0.5863
 2806TIP3    H129909   3.867   5.093   0.278 -0.3432 -0.7351  0.2960
 2806TIP3    H229910   3.842   5.157   0.143 -0.6144  1.2037  1.2356
 2807TIP3   OH229911   4.727   6.211   1.448  0.2574  0.3905 -0.2095
 2807TIP3    H129912   4.681   6.133   1.416 -0.5585  0.3563  1.0216
 2807TIP3    H229913   4.667   6.249   1.512  1.7848  0.5790  1.1157
 2808TIP3   OH229914   4.389   0.730  12.904 -0.2291  0.1441  0.3678
 2808TIP3    H129915   4.447   0.704  12.975 -0.9608  2.5353  1.8752
 2808TIP3    H229916   4.399   0.825  12.897 -1.0144  0.0895 -1.9869
 2809TIP3   OH229917   3.271   5.471  14.867 -0.0592  0.2252 -0.5949
 2809TIP3    H129918   3.335   5.463  14.938  1.3771  0.8520 -1.8025
 2809TIP3    H229919   3.206   5.403  14.887  1.1672 -0.6801  0.4411
 2810TIP3   OH229920   5.707   0.692   2.267 -0.6607  0.4644 -0.7391
 2810TIP3    H129921   5.786   0.704   2.213 -1.0762  0.2524 -1.4027
 2810TIP3    H229922   5.679   0.780   2.289 -0.1701  0.5370 -0.4088
 2811TIP3   OH229923   4.891   0.657   1.334 -0.0209  0.6490  0.0211
 2811TIP3    H129924   4.914   0.708   1.412  1.4085 -0.0111  0.0476
 2811TIP3    H229925   4.936   0.573   1.346  0.0704  0.4753 -1.4339
 2812TIP3   OH229926   5.611   2.552   3.240  0.3849 -0.5375 -0.2769
 2812TIP3    H129927   5.687   2.610   3.248  1.4131 -1.5888 -2.0963
 2812TIP3    H229928   5.587   2.531   3.330  0.8301  1.6398  0.3630
 2813TIP3   OH229929   0.760   3.994   0.302 -0.3378 -0.0126 -0.3739
 2813TIP3    H129930   0.693   4.061   0.317 -1.2242 -0.5355 -1.7992
 2813TIP3    H229931   0.833   4.019   0.357 -1.5524  0.8293  0.8783
 2814TIP3   OH229932   5.442   3.374   0.583  0.1497  0.3830 -0.4036
 2814TIP3    H129933   5.440   3.299   0.522  1.6096 -0.0798  0.1024
 2814TIP3    H229934   5.440   3.334   0.670  0.1453  0.9675 -0.1337
 2815TIP3   OH229935   5.990   4.231   2.744 -0.3867  0.2261 -0.4900
 2815TIP3    H129936   5.984   4.159   2.808  0.8467  0.2291 -0.3713
 2815TIP3    H229937   5.917   4.289   2.767 -1.4114 -0.9939 -0.6013
 2816TIP3   OH229938   3.113   3.499  10.781 -0.1823 -0.2729 -0.1491
 2816TIP3    H129939   3.045   3.450  10.734 -0.0651 -1.0860  0.4984
 2816TIP3    H229940   3.155   3.553  10.714 -2.6616  1.6187 -0.2251
 2817TIP3   OH229941   5.505   3.129   2.227  0.2559  0.0072  0.5521
 2817TIP3    H129942   5.516   3.214   2.269 -0.5676  0.1139  0.5745
 2817TIP3    H229943   5.413   3.129   2.198  0.1268 -1.0431  0.9384
 2818TIP3   OH229944   2.848   2.374  14.070  0.3576  0.4304  0.0651
 2818TIP3    H129945   2.895   2.451  14.104  1.0682 -0.4803  1.1799
 2818TIP3    H229946   2.763   2.378  14.113 -0.1539  1.3957 -1.0043
 2819TIP3   OH229947   3.363   2.918   1.310  0.0204 -0.8714 -0.1917
 2819TIP3    H129948   3.339   2.999   1.355 -1.7449 -1.2949 -0.3268
 2819TIP3    H229949   3.408   2.947   1.231  0.9031 -0.0733  0.5902
 2820TIP3   OH229950   2.060   1.288   2.926 -0.2185 -0.2628  0.1714
 2820TIP3    H129951   2.074   1.311   3.018  0.1117  1.5293 -0.3209
 2820TIP3    H229952   1.974   1.323   2.905 -1.0117 -2.0863  0.2154
 2821TIP3   OH229953   0.670   2.722   5.601  0.1551  0.0534  0.9422
 2821TIP3    H129954   0.766   2.722   5.594  0.2783 -0.1280  2.4074
 2821TIP3    H229955   0.652   2.773   5.680 -0.8714 -1.2271  1.5596
 2822TIP3   OH229956   1.978   5.269  15.484  0.1442 -0.1136  0.5417
 2822TIP3    H129957   2.026   5.198  15.441 -1.5333 -0.2785 -1.1039
 2822TIP3    H229958   2.047   5.328  15.516  1.4569  0.2728 -2.7886
 2823TIP3   OH229959   4.614   0.412   3.287 -0.1485  0.1001 -0.3544
 2823TIP3    H129960   4.587   0.325   3.259 -0.4382 -0.4597  1.5882
 2823TIP3    H229961   4.676   0.396   3.358 -1.2863  1.4669  0.9951
 2824TIP3   OH229962   6.630   2.754  16.213  0.3238 -0.1216  0.1556
 2824TIP3    H129963   6.547   2.798  16.197  0.4540  0.2721  0.5613
 2824TIP3    H229964   6.696   2.812  16.174  0.5531  0.3578  1.2421
 2825TIP3   OH229965   0.451   4.582   4.366  0.0575 -0.1752 -0.1933
 2825TIP3    H129966   0.540   4.594   4.398 -0.3850  1.5851  0.4152
 2825TIP3    H229967   0.400   4.562   4.445 -0.6063  1.8126 -0.0936
 2826TIP3   OH229968   3.410   2.146   0.979 -0.8084 -0.4629  0.5840
 2826TIP3    H129969   3.327   2.114   0.944 -0.8799  2.4002 -2.1346
 2826TIP3    H229970   3.475   2.122   0.912 -0.3159  1.7804  0.2102
 2827TIP3   OH229971   6.153   0.124  13.098  0.8074  0.0957 -0.0338
 2827TIP3    H129972   6.102   0.062  13.046 -1.3430  2.4455 -0.8382
 2827TIP3    H229973   6.234   0.136  13.049  0.7818 -1.2799 -0.4149
 2828TIP3   OH229974   6.514   6.325  16.676  0.6980 -0.0468 -0.4950
 2828TIP3    H129975   6.449   6.298  16.741  1.4177 -0.3047  0.1248
 2828TIP3    H229976   6.590   6.352  16.727  1.1275  0.1356 -1.2172
 2829TIP3   OH229977   0.369   3.657   0.983 -0.1438  0.0765  0.4892
 2829TIP3    H129978   0.418   3.673   1.064 -1.9609 -1.5991  1.9754
 2829TIP3    H229979   0.382   3.564   0.965 -1.9257 -0.1614  0.3625
 2830TIP3   OH229980   2.567   4.256   5.657 -0.1034  0.1054  0.1656
 2830TIP3    H129981   2.641   4.210   5.698  0.0037  0.8453  0.8015
 2830TIP3    H229982   2.599   4.281   5.571  1.3070  2.7446  1.4064
 2831TIP3   OH229983   0.152   4.369   4.969 -0.3903 -1.1069 -0.6438
 2831TIP3    H129984   0.092   4.305   4.931 -2.0825 -0.8349  1.4390
 2831TIP3    H229985   0.176   4.426   4.896 -2.4962 -1.3742 -1.6006
 2832TIP3   OH229986   0.313   4.427  12.820 -0.4985  0.5767 -0.0997
 2832TIP3    H129987   0.396   4.466  12.846  0.0071 -0.4356 -0.1758
 2832TIP3    H229988   0.305   4.349  12.875 -1.4365  0.7140 -0.0380
 2833TIP3   OH229989   5.674   3.133  10.857  0.2210 -0.9626  0.1552
 2833TIP3    H129990   5.687   3.047  10.898 -0.6407 -1.9893 -1.6767
 2833TIP3    H229991   5.725   3.129  10.776 -0.5888 -0.1082 -0.4123
 2834TIP3   OH229992   3.172   2.339   3.644  0.2694 -0.2729 -0.3686
 2834TIP3    H129993   3.125   2.363   3.564  0.3118 -0.4508 -0.4500
 2834TIP3    H229994   3.165   2.243   3.647  2.0533 -0.4547 -1.2808
 2835TIP3   OH229995   6.443   6.597  15.828  0.4358  0.2383 -0.5090
 2835TIP3    H129996   6.419   6.675  15.878  0.7746  0.4458 -0.6661
 2835TIP3    H229997   6.470   6.631  15.742 -0.0642 -0.1080 -0.8037
 2836TIP3   OH229998   1.291   5.249  10.846  0.5633 -0.1740 -0.4682
 2836TIP3    H129999   1.287   5.293  10.762  1.4032  0.4948 -0.1738
 2836TIP3    H230000   1.325   5.316  10.906 -0.4137 -0.5160  0.4819
 2837TIP3   OH230001   3.378   6.612  17.039  0.3119 -0.4207 -0.2836
 2837TIP3    H130002   3.413   6.528  17.068  0.2334 -0.2000  0.4617
 2837TIP3    H230003   3.317   6.590  16.968 -0.0236 -1.0204  0.1882
 2838TIP3   OH230004   1.857   0.448   3.412  0.6732 -0.2335  0.0831
 2838TIP3    H130005   1.771   0.478   3.444  0.9709  0.2557  0.4366
 2838TIP3    H230006   1.838   0.367   3.365  0.2084 -0.9338  1.4281
 2839TIP3   OH230007   0.680   6.686   2.592 -0.0884  0.4480 -0.1851
 2839TIP3    H130008   0.691   6.776   2.622 -0.8723  0.4846  0.0231
 2839TIP3    H230009   0.748   6.673   2.526  0.7697  0.8047  0.6348
 2840TIP3   OH230010   3.020   1.704  14.785 -0.1788 -0.3199 -0.0264
 2840TIP3    H130011   3.104   1.674  14.820  0.5121  0.7090 -0.7891
 2840TIP3    H230012   2.959   1.694  14.858  1.0222  0.8173  1.1502
 2841TIP3   OH230013   2.640   6.200  11.163 -0.1467  0.0619  0.2106
 2841TIP3    H130014   2.570   6.136  11.145 -0.5270  0.8902 -1.2982
 2841TIP3    H230015   2.700   6.191  11.089  0.7042  0.2267  0.8802
 2842TIP3   OH230016   0.898   2.740  16.425 -0.7931 -0.1952  0.2893
 2842TIP3    H130017   0.922   2.715  16.514 -0.8739 -1.5067 -0.0520
 2842TIP3    H230018   0.813   2.783  16.435 -0.4168  0.4193  0.9412
 2843TIP3   OH230019   2.507   4.068  13.027  0.6625  0.5962 -0.0194
 2843TIP3    H130020   2.436   4.112  12.979 -0.6856  1.4835  2.7110
 2843TIP3    H230021   2.480   3.976  13.029  0.9250  0.4778 -1.2666
 2844TIP3   OH230022   2.516   5.618   4.573  0.1258 -0.2946 -0.6598
 2844TIP3    H130023   2.566   5.537   4.563  1.4770  0.5997 -1.3835
 2844TIP3    H230024   2.574   5.685   4.536 -1.0182  0.9730 -0.1416
 2845TIP3   OH230025   4.881   3.567  12.717  0.4834  0.1702 -0.8453
 2845TIP3    H130026   4.940   3.553  12.790  1.3948  0.2267 -1.5580
 2845TIP3    H230027   4.886   3.487  12.666 -0.2458  0.0799 -0.7815
 2846TIP3   OH230028   2.970   5.966   1.523 -0.1689  0.2257  0.5155
 2846TIP3    H130029   3.061   5.958   1.496 -0.8205 -1.9134 -1.2226
 2846TIP3    H230030   2.967   6.046   1.575  2.5759  0.6188  0.1400
 2847TIP3   OH230031   4.599   4.404  15.035 -0.4334 -0.2395  0.0847
 2847TIP3    H130032   4.588   4.366  14.947  0.1583 -0.7578  0.2326
 2847TIP3    H230033   4.645   4.486  15.019 -4.0622  1.7673 -0.5031
 2848TIP3   OH230034   3.005   0.122  11.627  0.2129 -0.0250 -0.2172
 2848TIP3    H130035   3.007   0.168  11.711 -1.6105  0.8420 -0.6456
 2848TIP3    H230036   2.942   0.051  11.640 -1.1724  0.9832 -1.2827
 2849TIP3   OH230037   6.585   6.791   5.098  0.1341  0.2312  0.5410
 2849TIP3    H130038   6.657   6.761   5.154 -0.3562 -0.6265  0.7162
 2849TIP3    H230039   6.601   6.885   5.088  2.7368 -0.3549 -1.5535
 2850TIP3   OH230040   1.992   6.363  14.392 -0.1988  0.3406  0.1980
 2850TIP3    H130041   2.012   6.423  14.320  1.6314 -0.6462 -0.1462
 2850TIP3    H230042   1.969   6.281  14.350  1.8701 -0.5365  0.7252
 2851TIP3   OH230043   5.623   6.561  12.408  0.0608 -0.9571 -0.7509
 2851TIP3    H130044   5.676   6.596  12.337 -0.4567  0.3563 -0.4952
 2851TIP3    H230045   5.533   6.583  12.385 -0.1310 -0.7298  0.1829
 2852TIP3   OH230046   4.657   5.918  16.875 -0.8813 -0.3531  0.5906
 2852TIP3    H130047   4.676   5.965  16.794  0.0642  1.0763  1.6155
 2852TIP3    H230048   4.584   5.966  16.915  0.0328  0.2298  1.6004
 2853TIP3   OH230049   5.872   6.685  12.281 -0.2148  0.1255  0.0394
 2853TIP3    H130050   5.859   6.732  12.363 -2.6024  1.1186 -0.8408
 2853TIP3    H230051   5.910   6.750  12.222  0.5415 -0.2939  0.0648
 2854TIP3   OH230052   6.470   0.932  13.174 -1.1138  0.4393 -0.0339
 2854TIP3    H130053   6.451   0.956  13.084  0.8312 -0.7919 -0.8028
 2854TIP3    H230054   6.466   0.837  13.175  0.5091  0.3596  0.7796
 2855TIP3   OH230055   3.247   1.555  15.375  0.1342  0.7804  0.2635
 2855TIP3    H130056   3.329   1.505  15.374 -0.5070 -0.2825  0.1631
 2855TIP3    H230057   3.260   1.621  15.443 -0.0026 -1.2092  2.2840
 2856TIP3   OH230058   6.185   0.214   6.051  0.1572 -0.2102  0.4584
 2856TIP3    H130059   6.268   0.255   6.075 -0.8428  0.4884  2.8703
 2856TIP3    H230060   6.177   0.230   5.957  2.5799  0.0024  0.2556
 2857TIP3   OH230061   5.925   1.508  16.412  0.4065 -0.0803  0.2357
 2857TIP3    H130062   6.017   1.490  16.430  0.3502  0.1276  0.7720
 2857TIP3    H230063   5.925   1.562  16.333  0.7516  0.0092  0.2976
 2858TIP3   OH230064   1.457   6.669  12.030 -0.3335  0.4519 -0.1622
 2858TIP3    H130065   1.458   6.732  12.102  1.1890 -0.8038  0.9407
 2858TIP3    H230066   1.472   6.722  11.951  2.5092  1.3081  0.8912
 2859TIP3   OH230067   4.643   4.225   2.305 -0.0456 -0.5200 -0.0047
 2859TIP3    H130068   4.556   4.254   2.276  0.7401  0.5761 -1.3247
 2859TIP3    H230069   4.653   4.138   2.268 -0.3232 -0.3866 -0.4044
 2860TIP3   OH230070   2.202   1.650  14.959  0.1476  0.3827 -0.1308
 2860TIP3    H130071   2.133   1.716  14.958  1.9074  2.3161 -3.7413
 2860TIP3    H230072   2.157   1.568  14.979 -2.8008  1.9365 -0.1381
 2861TIP3   OH230073   4.660   0.155  11.276  0.2244  0.1317 -0.0597
 2861TIP3    H130074   4.687   0.231  11.224  1.1350  1.6431  2.5406
 2861TIP3    H230075   4.569   0.174  11.300  0.1233 -0.0989 -0.2550
 2862TIP3   OH230076   3.891   4.983  11.232  0.1262  0.5798 -0.0582
 2862TIP3    H130077   3.954   4.917  11.257 -0.3140  0.4671  0.7581
 2862TIP3    H230078   3.930   5.026  11.155  1.2497  0.6154  0.5304
 2863TIP3   OH230079   1.318   5.955  11.641 -0.2603 -0.2970 -0.6133
 2863TIP3    H130080   1.406   5.962  11.605 -1.0703 -0.0096 -2.5925
 2863TIP3    H230081   1.280   6.042  11.632 -1.4268 -0.8817 -1.6478
 2864TIP3   OH230082   3.710   2.453  13.648 -0.5288  0.0194 -0.1382
 2864TIP3    H130083   3.640   2.403  13.690  0.1936 -2.3500 -1.6441
 2864TIP3    H230084   3.690   2.447  13.554 -0.4085  2.6051 -0.3737
 2865TIP3   OH230085   3.688   6.166   5.057  0.2613 -0.5193 -0.4048
 2865TIP3    H130086   3.666   6.136   5.145  0.3521  1.0377  0.1708
 2865TIP3    H230087   3.715   6.257   5.069  0.6366 -0.4093 -1.9932
 2866TIP3   OH230088   6.127   0.217  11.204 -0.2531  0.0667  0.0055
 2866TIP3    H130089   6.068   0.288  11.177  1.1488  0.9788 -0.7370
 2866TIP3    H230090   6.120   0.152  11.134  0.3282  0.5970 -0.5484
 2867TIP3   OH230091   4.999   5.851   4.909  0.1003 -0.1830  0.0928
 2867TIP3    H130092   5.031   5.852   4.999 -0.3536  0.7258  0.2591
 2867TIP3    H230093   5.074   5.877   4.856 -0.0689  0.9108  0.3758
 2868TIP3   OH230094   4.240   1.364  14.744  0.8362 -0.2917 -0.1010
 2868TIP3    H130095   4.218   1.363  14.837  0.4062  0.2162 -0.1977
 2868TIP3    H230096   4.318   1.419  14.738  0.0964  0.7613 -0.2061
 2869TIP3   OH230097   0.751   5.718   0.475 -0.1483  0.1311 -0.4184
 2869TIP3    H130098   0.771   5.810   0.456 -0.8401  0.2573 -0.5449
 2869TIP3    H230099   0.807   5.697   0.550  0.4654  0.4746 -0.7699
 2870TIP3   OH230100   6.664   2.178   5.096 -0.0292  0.7322  0.5717
 2870TIP3    H130101   6.644   2.271   5.102 -0.7039  0.6397 -0.1760
 2870TIP3    H230102   6.701   2.166   5.009  0.4624  0.3761  0.8282
 2871TIP3   OH230103   2.963   0.759   4.517 -0.2641 -0.1125  0.2201
 2871TIP3    H130104   3.001   0.844   4.494  0.3818  0.1892  2.3396
 2871TIP3    H230105   2.900   0.778   4.585  0.7461 -1.4568  1.5751
 2872TIP3   OH230106   0.783   1.477   3.423  0.3096 -0.4289 -0.4104
 2872TIP3    H130107   0.733   1.399   3.400 -0.7473  0.8012 -2.4645
 2872TIP3    H230108   0.807   1.464   3.515 -0.6259 -2.7351 -0.4574
 2873TIP3   OH230109   4.752   4.536   0.238 -0.2563 -0.3968  0.1211
 2873TIP3    H130110   4.732   4.600   0.170  1.0781 -0.8202 -0.6827
 2873TIP3    H230111   4.777   4.588   0.314 -0.0543  0.0538 -0.2514
 2874TIP3   OH230112   5.570   5.407  12.203 -0.1660 -0.0873 -0.0670
 2874TIP3    H130113   5.608   5.335  12.153  0.8093  0.5992 -0.3407
 2874TIP3    H230114   5.485   5.422  12.162 -1.5594 -2.8003  1.6794
 2875TIP3   OH230115   3.003   6.226   1.592 -0.3475 -0.2423  0.3077
 2875TIP3    H130116   3.085   6.242   1.639 -1.2080  1.2261  1.3470
 2875TIP3    H230117   2.943   6.294   1.625 -2.1599 -1.6737  0.0180
 2876TIP3   OH230118   2.902   5.047   5.338  0.2171  0.0933  0.4517
 2876TIP3    H130119   2.910   4.976   5.402  1.4047 -1.6678 -1.5903
 2876TIP3    H230120   2.964   5.113   5.369  2.0014 -1.4304  0.2704
 2877TIP3   OH230121   2.740   3.917   4.345 -0.0185  0.1016  0.3490
 2877TIP3    H130122   2.746   4.011   4.327 -0.2795 -0.0890 -0.7666
 2877TIP3    H230123   2.679   3.910   4.418 -1.3928  0.6766 -0.7233
 2878TIP3   OH230124   3.223   1.391  12.750  0.7034 -0.1075  0.6702
 2878TIP3    H130125   3.161   1.387  12.677  0.7306 -0.8708  0.6838
 2878TIP3    H230126   3.309   1.392  12.708  0.6807  2.4831  0.5905
 2879TIP3   OH230127   1.241   1.222   1.132 -0.7329  0.4152  0.4140
 2879TIP3    H130128   1.267   1.203   1.222 -0.3755  1.9066  0.6351
 2879TIP3    H230129   1.302   1.171   1.078 -1.8153 -1.5650  1.0056
 2880TIP3   OH230130   0.341   2.985   0.143 -0.7194  0.3854  0.5309
 2880TIP3    H130131   0.383   2.930   0.210 -0.4136 -0.4767 -0.3616
 2880TIP3    H230132   0.250   2.993   0.172 -0.3477  0.9156  1.6173
 2881TIP3   OH230133   4.478   3.426   4.311 -0.0394 -0.1924 -0.1312
 2881TIP3    H130134   4.560   3.385   4.283 -0.0809 -0.7424  0.5564
 2881TIP3    H230135   4.501   3.473   4.391 -0.8909 -2.1800  1.3024
 2882TIP3   OH230136   4.226   1.231   5.721  0.1063 -0.4589  0.0937
 2882TIP3    H130137   4.138   1.221   5.685 -0.3461 -0.6922  1.2332
 2882TIP3    H230138   4.211   1.257   5.812  1.2190  0.1160  0.1172
 2883TIP3   OH230139   1.635   5.882   1.238  0.2364  0.2741 -0.1953
 2883TIP3    H130140   1.586   5.800   1.240  0.3080  0.2344 -0.0794
 2883TIP3    H230141   1.654   5.902   1.329  0.1349  0.4718 -0.2175
 2884TIP3   OH230142   2.230   2.824   2.981  0.0995  0.2278  0.0108
 2884TIP3    H130143   2.197   2.746   2.935 -0.2412  0.2608  0.1996
 2884TIP3    H230144   2.314   2.842   2.939  0.7183 -0.9208  0.7175
 2885TIP3   OH230145   1.412   3.104  15.879 -0.0696 -0.1452 -0.0729
 2885TIP3    H130146   1.462   3.047  15.820 -0.7244 -1.2613  0.4474
 2885TIP3    H230147   1.397   3.183  15.827 -2.0347 -1.7311 -2.0317
 2886TIP3   OH230148   6.765   3.092  13.372 -0.0032  0.3237 -0.5243
 2886TIP3    H130149   6.743   3.007  13.335 -2.8909  0.5228  0.5927
 2886TIP3    H230150   6.680   3.133  13.390  1.3294  2.5288  1.0043
 2887TIP3   OH230151   5.870   4.585  12.432 -0.2584  0.0761 -0.1914
 2887TIP3    H130152   5.934   4.588  12.503  0.4513 -0.8201 -0.7818
 2887TIP3    H230153   5.920   4.605  12.353 -0.6221 -0.9269 -0.6961
 2888TIP3   OH230154   3.424   2.752   5.439  0.1678  0.1430  0.2898
 2888TIP3    H130155   3.336   2.757   5.403  0.4126 -0.6798 -0.4568
 2888TIP3    H230156   3.412   2.752   5.533 -0.5139  1.9341  0.2248
 2889TIP3   OH230157   6.408   1.049   4.264  0.0875  0.6304 -0.1765
 2889TIP3    H130158   6.378   1.028   4.176 -1.3170 -2.1660  0.8971
 2889TIP3    H230159   6.484   0.993   4.278  0.6047  1.4224  0.2128
 2890TIP3   OH230160   1.471   5.164   4.568  0.4514  0.3901  0.3247
 2890TIP3    H130161   1.397   5.192   4.515  0.3912 -0.3715  0.0038
 2890TIP3    H230162   1.538   5.137   4.505  1.1735  1.4850  0.5992
 2891TIP3   OH230163   2.112   2.063  11.654  0.2668 -0.6140  0.6209
 2891TIP3    H130164   2.111   1.978  11.611  1.4828  1.1783 -3.1522
 2891TIP3    H230165   2.022   2.077  11.683 -0.4277 -2.1810 -0.7579
 2892TIP3   OH230166   6.814   4.551  16.728  0.2187  0.3663 -0.4038
 2892TIP3    H130167   6.802   4.589  16.815 -0.1238 -0.1310 -0.2289
 2892TIP3    H230168   6.904   4.572  16.705  0.4556  0.1295  0.2630
 2893TIP3   OH230169   6.022   1.902   0.200 -0.3715 -0.6198 -0.8919
 2893TIP3    H130170   5.990   1.813   0.184  0.3472 -0.8952 -0.8316
 2893TIP3    H230171   5.973   1.932   0.277 -0.1892 -1.1811 -0.5580
 2894TIP3   OH230172   6.653   3.119   3.450  0.3299  0.4175 -0.2371
 2894TIP3    H130173   6.663   3.171   3.371  1.9105 -0.1176 -0.4080
 2894TIP3    H230174   6.743   3.102   3.479 -0.2188 -0.0801  1.2085
 2895TIP3   OH230175   0.197   3.857  10.854 -0.2377  0.0426  0.4114
 2895TIP3    H130176   0.262   3.927  10.861 -0.5883  0.3485  0.6358
 2895TIP3    H230177   0.225   3.792  10.918  0.6400 -0.4735 -0.4845
 2896TIP3   OH230178   5.324   1.825   2.318  0.1653 -0.0867 -0.9389
 2896TIP3    H130179   5.377   1.900   2.291  1.2229 -0.2082  0.6918
 2896TIP3    H230180   5.339   1.820   2.413  2.3445 -4.0487 -1.4062
 2897TIP3   OH230181   3.424   4.468  11.745  0.2727  0.0276  0.0259
 2897TIP3    H130182   3.506   4.423  11.762  0.9728  1.0594 -0.5783
 2897TIP3    H230183   3.421   4.478  11.650 -0.7040 -0.2916  0.0168
 2898TIP3   OH230184   5.910   5.980  15.950  0.0198  0.0113 -0.0706
 2898TIP3    H130185   5.889   5.889  15.969  0.4592 -0.8477 -3.5045
 2898TIP3    H230186   5.980   5.977  15.886 -0.1437  2.7625 -0.4612
 2899TIP3   OH230187   5.051   2.160   4.781 -0.4660  0.1107 -0.2172
 2899TIP3    H130188   5.011   2.162   4.694 -3.1415  0.3261  0.9653
 2899TIP3    H230189   5.063   2.252   4.805 -2.4313  0.1417  0.7833
 2900TIP3   OH230190   0.947   3.045  10.458 -0.1461  0.3625  0.6950
 2900TIP3    H130191   0.897   3.095  10.393 -0.3783 -0.7449  0.0275
 2900TIP3    H230192   1.033   3.034  10.419 -0.2230 -0.1276  0.6688
 2901TIP3   OH230193   2.097   5.979   0.710 -0.3605  0.2637  0.1977
 2901TIP3    H130194   2.164   6.039   0.745 -1.1392  0.2557  1.7781
 2901TIP3    H230195   2.068   6.020   0.629 -0.2723  1.6019  0.8296
 2902TIP3   OH230196   1.149   1.663  15.651 -0.6717  0.3919  0.1402
 2902TIP3    H130197   1.171   1.755  15.661 -0.8277  0.3739  0.6777
 2902TIP3    H230198   1.187   1.620  15.727 -2.4246  0.3482  1.0191
 2903TIP3   OH230199   4.318   0.829  15.860  0.7303  0.1631  0.4383
 2903TIP3    H130200   4.226   0.854  15.868  1.0511  0.5371  3.2872
 2903TIP3    H230201   4.350   0.882  15.787 -1.0038  0.9565  0.2275
 2904TIP3   OH230202   3.519   6.090   5.268  0.1871 -0.1178  0.2665
 2904TIP3    H130203   3.463   6.036   5.212  1.7558  0.0688 -1.5446
 2904TIP3    H230204   3.558   6.028   5.330 -2.0380 -0.2351  1.6333
 2905TIP3   OH230205   5.694   2.914  11.275  0.2090  0.0535 -0.3302
 2905TIP3    H130206   5.630   2.975  11.238  1.5275  2.4047  1.1866
 2905TIP3    H230207   5.759   2.902  11.206 -0.3660 -0.1314 -0.8449
 2906TIP3   OH230208   2.207   6.569   6.116  0.1460 -0.0358 -0.0543
 2906TIP3    H130209   2.287   6.536   6.077  0.1278 -1.6188  1.2074
 2906TIP3    H230210   2.168   6.625   6.048 -0.0318 -2.8934 -2.4145
 2907TIP3   OH230211   2.066   1.308   1.874  0.2548 -0.2773 -0.6445
 2907TIP3    H130212   2.131   1.328   1.807  1.2190 -0.8989  0.0981
 2907TIP3    H230213   2.050   1.391   1.918  1.5472 -0.3884  0.0471
 2908TIP3   OH230214   4.371   6.146  14.754  0.0824 -0.0760  0.3995
 2908TIP3    H130215   4.294   6.110  14.708  0.5018 -1.2127  0.5752
 2908TIP3    H230216   4.418   6.195  14.686 -1.9681  2.5740  0.7928
 2909TIP3   OH230217   2.220   1.181  14.857  0.2040  0.7002  0.2602
 2909TIP3    H130218   2.201   1.191  14.763  0.9578  1.5176  0.1898
 2909TIP3    H230219   2.145   1.133  14.891  0.4924 -0.6814 -0.9909
 2910TIP3   OH230220   1.326   0.800   0.591  0.5862  0.2046  0.6887
 2910TIP3    H130221   1.261   0.855   0.548  1.0953  1.6507  1.7199
 2910TIP3    H230222   1.323   0.717   0.543 -0.3344  1.0608 -0.7717
 2911TIP3   OH230223   6.587   6.141   1.722 -0.4143 -1.1193 -0.5785
 2911TIP3    H130224   6.629   6.093   1.651 -0.4101 -1.1708 -0.5413
 2911TIP3    H230225   6.630   6.109   1.801 -0.1124 -0.7378 -0.5901
 2912TIP3   OH230226   6.698   6.763  14.073 -0.8505  0.5649 -0.0908
 2912TIP3    H130227   6.752   6.809  14.009 -1.5925  0.1141 -1.0684
 2912TIP3    H230228   6.707   6.670  14.049 -4.0390  0.6616 -1.8845
 2913TIP3   OH230229   4.107   5.432  14.709  0.5325 -0.0419  0.1237
 2913TIP3    H130230   4.075   5.392  14.628  1.1574  0.1182 -0.2065
 2913TIP3    H230231   4.091   5.526  14.696 -0.7249 -0.1571  0.8025
 2914TIP3   OH230232   5.705   4.716  15.933  0.0747  0.0844  0.5862
 2914TIP3    H130233   5.781   4.678  15.978  0.7741  1.5603  0.7125
 2914TIP3    H230234   5.648   4.745  16.004  0.1057  0.3438  0.5053
 2915TIP3   OH230235   4.823   2.445  14.698 -0.1899 -0.0979 -0.1569
 2915TIP3    H130236   4.755   2.449  14.764 -0.0451  1.0099 -0.0599
 2915TIP3    H230237   4.868   2.530  14.705  0.0936 -0.1361 -1.3797
 2916TIP3   OH230238   2.274   1.886   1.656 -0.0867 -0.0741  0.4032
 2916TIP3    H130239   2.213   1.949   1.694 -1.0055 -0.9461  0.4090
 2916TIP3    H230240   2.332   1.862   1.728 -1.1667 -0.9395  0.9938
 2917TIP3   OH230241   1.801   5.543   2.997  0.1587  1.0189  0.3688
 2917TIP3    H130242   1.837   5.462   3.034 -0.5759  0.2847 -0.4915
 2917TIP3    H230243   1.867   5.573   2.935 -0.6911 -0.3499 -1.2408
 2918TIP3   OH230244   2.884   6.449   6.041  0.2507 -0.2867  0.2539
 2918TIP3    H130245   2.903   6.360   6.072  0.0583  0.0877  1.4620
 2918TIP3    H230246   2.789   6.457   6.050  0.4107  0.4549  1.2482
 2919TIP3   OH230247   6.237   2.025  12.124  0.1467 -0.1535 -0.1194
 2919TIP3    H130248   6.301   2.071  12.179 -0.1246  1.3810 -1.0501
 2919TIP3    H230249   6.289   1.966  12.070  0.4255 -1.6001  1.6837
 2920TIP3   OH230250   2.829   4.686   4.734  0.4038  0.1479  0.2166
 2920TIP3    H130251   2.752   4.743   4.731 -0.7800 -1.4557 -1.6278
 2920TIP3    H230252   2.891   4.731   4.790 -1.7142  1.7198  1.3533
 2921TIP3   OH230253   6.578   0.636  12.013  0.1570  0.0446  0.3400
 2921TIP3    H130254   6.665   0.676  12.004 -0.0612  0.3254 -0.6524
 2921TIP3    H230255   6.584   0.554  11.964 -0.0102 -0.1458  0.6359
 2922TIP3   OH230256   6.698   0.104  15.978  0.4605  0.1515 -0.6916
 2922TIP3    H130257   6.710   0.128  16.070  0.1975 -0.6227 -0.4470
 2922TIP3    H230258   6.701   0.008  15.978  1.5627  0.1792 -1.6475
 2923TIP3   OH230259   1.998   3.036  15.277  0.3276  0.2057 -0.3719
 2923TIP3    H130260   1.973   2.945  15.291  0.5443  0.4369  1.7774
 2923TIP3    H230261   2.073   3.049  15.336  0.2966  1.7752 -0.6532
 2924TIP3   OH230262   5.526   3.133   6.224 -0.3664 -0.6565  0.1798
 2924TIP3    H130263   5.568   3.216   6.202  0.7345 -1.3019 -0.2178
 2924TIP3    H230264   5.457   3.123   6.158  0.8683 -1.0536 -1.1028
 2925TIP3   OH230265   0.290   3.262   5.054  0.3822  0.0312  0.1443
 2925TIP3    H130266   0.198   3.278   5.033  0.6736  0.5879 -0.7041
 2925TIP3    H230267   0.307   3.173   5.024  0.0969 -0.1208  0.4200
 2926TIP3   OH230268   1.207   6.235   4.637 -0.1075 -0.6634 -0.0699
 2926TIP3    H130269   1.242   6.148   4.655 -0.5434 -0.4699  1.8095
 2926TIP3    H230270   1.179   6.268   4.722 -2.4011  0.2650 -1.1377
 2927TIP3   OH230271   2.538   2.986   5.514 -0.0423 -0.7562 -0.5479
 2927TIP3    H130272   2.510   2.927   5.444 -2.9156 -1.6880  1.2630
 2927TIP3    H230273   2.570   2.927   5.582  1.3739  0.0521 -0.5169
 2928TIP3   OH230274   1.953   3.939  17.216 -0.5654 -0.2852 -0.4297
 2928TIP3    H130275   1.938   3.859  17.167  1.1212 -0.9984  0.1744
 2928TIP3    H230276   2.039   3.969  17.187 -0.5777  0.5649  0.3665
 2929TIP3   OH230277   2.158   1.438   2.224 -0.1730  0.0210 -0.4278
 2929TIP3    H130278   2.114   1.448   2.140  2.7900 -0.4276 -2.1315
 2929TIP3    H230279   2.096   1.470   2.289 -1.8693  2.0234 -2.9753
 2930TIP3   OH230280   3.986   4.615  15.704  0.3822 -0.4952  1.2305
 2930TIP3    H130281   3.952   4.577  15.784  1.0192  0.3074  1.9029
 2930TIP3    H230282   4.072   4.574  15.692  0.1233 -0.8940  0.7565
 2931TIP3   OH230283   2.095   5.125   4.831  0.0890  0.2193  0.3083
 2931TIP3    H130284   2.051   5.201   4.870  2.5749  2.9932 -1.9918
 2931TIP3    H230285   2.067   5.125   4.739  0.9602 -0.9922  0.0238
 2932TIP3   OH230286   0.113   5.920  16.873 -0.2323 -0.8945  0.4739
 2932TIP3    H130287   0.078   5.881  16.793 -0.0605 -3.5051  1.6409
 2932TIP3    H230288   0.036   5.954  16.919 -0.2343  1.5311 -1.2200
 2933TIP3   OH230289   5.045   4.027  12.301  0.4326 -0.0054 -0.0765
 2933TIP3    H130290   5.127   4.072  12.283  0.7808 -0.6100 -0.0118
 2933TIP3    H230291   4.990   4.093  12.342  0.3254  0.8369 -1.5526
 2934TIP3   OH230292   3.042   5.832   2.360 -0.5882  0.4028 -0.1716
 2934TIP3    H130293   3.004   5.782   2.432 -2.3546  1.1943 -0.5262
 2934TIP3    H230294   3.085   5.767   2.304  2.5270 -0.0464  2.5779
 2935TIP3   OH230295   0.538   0.614  17.264  0.3435 -0.3725  0.2374
 2935TIP3    H130296   0.446   0.595  17.243  0.6364 -0.3501 -1.0731
 2935TIP3    H230297   0.567   0.536  17.311  0.7068 -2.0534 -2.6361
 2936TIP3   OH230298   2.497   1.721   5.024 -0.2798 -0.3372 -0.2178
 2936TIP3    H130299   2.501   1.802   5.074  2.3735 -0.0024 -0.9052
 2936TIP3    H230300   2.536   1.742   4.939  1.4573 -2.5650 -0.0287
 2937TIP3   OH230301   1.116   6.370  13.938  0.2246 -0.1079 -0.0267
 2937TIP3    H130302   1.048   6.314  13.900  0.6153 -2.5342  2.6755
 2937TIP3    H230303   1.197   6.342  13.895  0.4165 -1.6973  1.2964
 2938TIP3   OH230304   3.700   4.832  14.146  0.0648  0.0461  0.6694
 2938TIP3    H130305   3.637   4.845  14.217  0.7804 -0.4837  1.4258
 2938TIP3    H230306   3.778   4.798  14.191  0.0208 -1.7079 -0.5760
 2939TIP3   OH230307   5.435   2.254  11.019  0.2525  0.6844 -0.7330
 2939TIP3    H130308   5.443   2.174  10.967 -1.0673  0.3626 -0.4642
 2939TIP3    H230309   5.418   2.223  11.108 -0.7506  1.2616 -0.7126
 2940TIP3   OH230310   1.373   3.818   4.314 -0.1825 -0.3124 -0.2195
 2940TIP3    H130311   1.349   3.725   4.313  2.1428 -0.9262 -1.4334
 2940TIP3    H230312   1.461   3.820   4.351 -0.6987  1.5500  0.9622
 2941TIP3   OH230313   5.695   3.843  12.906  0.1234 -0.4158  0.1687
 2941TIP3    H130314   5.611   3.884  12.928  0.4838 -1.2360  3.1917
 2941TIP3    H230315   5.679   3.750  12.917  1.2834 -0.6134  0.1639
 2942TIP3   OH230316   3.480   6.418   4.539  0.6818  0.3053 -0.2255
 2942TIP3    H130317   3.502   6.466   4.619 -0.2175  0.1183  0.1450
 2942TIP3    H230318   3.384   6.409   4.542  0.7309 -0.5211 -0.8545
 2943TIP3   OH230319   2.927   6.327  15.296  0.0344  0.2590 -0.3473
 2943TIP3    H130320   2.915   6.233  15.286  0.4436  0.1296  0.3503
 2943TIP3    H230321   3.019   6.337  15.321 -0.4541  0.7011  1.3261
 2944TIP3   OH230322   2.682   3.338   2.456  0.3682 -0.1320 -0.3829
 2944TIP3    H130323   2.626   3.387   2.516  0.2476 -1.5223  0.6736
 2944TIP3    H230324   2.771   3.364   2.481  0.2910 -0.0836 -0.1519
 2945TIP3   OH230325   5.550   5.350  15.896  0.7047  0.4216 -0.7465
 2945TIP3    H130326   5.576   5.359  15.988 -0.5118  0.2209 -0.3837
 2945TIP3    H230327   5.627   5.381  15.847  1.8013 -0.5467  0.3061
 2946TIP3   OH230328   4.523   0.410   0.483  0.2021  0.5461  0.3768
 2946TIP3    H130329   4.559   0.382   0.399 -3.2255  1.3841 -1.4867
 2946TIP3    H230330   4.471   0.335   0.512 -1.6399  1.5834 -0.1458
 2947TIP3   OH230331   5.497   6.696   3.748  0.6695  0.0068  0.5078
 2947TIP3    H130332   5.526   6.767   3.805 -0.5059  0.1707  0.9236
 2947TIP3    H230333   5.574   6.640   3.737  1.4069  0.9727  0.7442
 2948TIP3   OH230334   5.925   5.945  11.779 -0.2957  0.3217 -0.0166
 2948TIP3    H130335   5.891   5.921  11.866 -0.0729 -1.3362 -0.3744
 2948TIP3    H230336   6.016   5.969  11.796  0.4615 -2.3496 -0.1195
 2949TIP3   OH230337   4.757   2.993   5.520  0.2938  0.8339 -0.4078
 2949TIP3    H130338   4.817   2.926   5.551 -0.3002  1.4809  2.2263
 2949TIP3    H230339   4.672   2.949   5.514  0.2646  0.8950 -0.4496
 2950TIP3   OH230340   5.628   3.738   0.943 -0.3514 -0.1341 -0.4131
 2950TIP3    H130341   5.608   3.652   0.907  1.5479 -0.9649  0.4071
 2950TIP3    H230342   5.649   3.792   0.867  2.3284 -1.5049 -0.6944
 2951TIP3   OH230343   4.955   1.699  13.132 -0.5063 -0.8570 -0.4054
 2951TIP3    H130344   4.984   1.684  13.222 -1.2901 -0.4569 -0.0881
 2951TIP3    H230345   5.034   1.684  13.079  0.0559 -0.6841  0.3740
 2952TIP3   OH230346   3.476   0.109  10.556 -0.1368 -0.0800  0.6519
 2952TIP3    H130347   3.427   0.035  10.519 -1.2303 -0.2486  2.3636
 2952TIP3    H230348   3.477   0.174  10.486  0.7363 -1.6535 -0.8422
 2953TIP3   OH230349   5.794   1.761  13.194  0.1863 -0.4446  0.0830
 2953TIP3    H130350   5.805   1.796  13.283  0.8610  1.4621 -0.7242
 2953TIP3    H230351   5.877   1.780  13.151 -0.6250 -0.1598 -1.3611
 2954TIP3   OH230352   4.482   5.940  13.572  0.5798  0.6304  0.2667
 2954TIP3    H130353   4.516   5.863  13.617  0.4290  0.3367 -0.1173
 2954TIP3    H230354   4.530   5.942  13.489  0.4576  0.8495  0.2023
 2955TIP3   OH230355   4.917   5.922   1.673 -0.0370  0.0221  0.2126
 2955TIP3    H130356   4.857   5.903   1.600  0.2835  0.2949 -0.1233
 2955TIP3    H230357   4.962   6.003   1.647 -1.3455  1.2385  1.5949
 2956TIP3   OH230358   5.100   4.714  10.269  0.5118 -0.0718 -0.6120
 2956TIP3    H130359   5.059   4.789  10.313 -1.6897 -0.6157 -1.6613
 2956TIP3    H230360   5.027   4.653  10.254  2.4411 -2.9700  1.3006
 2957TIP3   OH230361   5.761   2.061  14.141 -0.3244 -0.0538  0.1416
 2957TIP3    H130362   5.783   2.154  14.144 -1.9171  0.3798 -0.9529
 2957TIP3    H230363   5.845   2.016  14.137  0.3998  1.4343 -1.7745
 2958TIP3   OH230364   6.376   2.982   5.967  0.4230  0.5486 -0.5810
 2958TIP3    H130365   6.415   3.065   5.938  1.3755  0.8109  1.3730
 2958TIP3    H230366   6.311   3.007   6.032 -2.0021 -0.0155 -2.6709
 2959TIP3   OH230367   4.907   3.724   1.395  0.4681  0.0585  0.6509
 2959TIP3    H130368   4.913   3.743   1.488 -1.0627  1.2041  0.5361
 2959TIP3    H230369   4.923   3.809   1.352 -0.8619 -0.0425 -0.0548
 2960TIP3   OH230370   1.298   4.339  14.916  0.3647  0.2249 -0.2425
 2960TIP3    H130371   1.302   4.281  14.992  0.1530 -0.6487 -0.8941
 2960TIP3    H230372   1.247   4.414  14.946  1.1372  0.3497  0.7822
 2961TIP3   OH230373   5.714   3.559  11.846 -0.2284  0.0769 -0.0036
 2961TIP3    H130374   5.795   3.546  11.897 -0.2752 -0.6047 -0.0996
 2961TIP3    H230375   5.744   3.571  11.756 -0.2068  0.3832  0.0408
 2962TIP3   OH230376   4.681   1.002   2.392  0.2934 -0.8385  0.3844
 2962TIP3    H130377   4.648   0.991   2.481  3.1490 -0.2441  1.5627
 2962TIP3    H230378   4.743   1.075   2.397  0.1396 -0.4669 -2.1982
 2963TIP3   OH230379   5.761   0.855  13.221 -0.2201 -0.3575  0.2896
 2963TIP3    H130380   5.771   0.802  13.300  0.1071  0.0603  0.5298
 2963TIP3    H230381   5.666   0.865  13.211 -0.2908 -1.1455  0.1319
 2964TIP3   OH230382   4.877   3.384  17.179  0.0080 -0.9314  0.0942
 2964TIP3    H130383   4.791   3.382  17.138  0.6412  0.4112 -1.3582
 2964TIP3    H230384   4.923   3.455  17.135  1.9654 -1.8199  0.6434
 2965TIP3   OH230385   2.329   5.023  16.981  0.5514  0.4823  0.2942
 2965TIP3    H130386   2.416   5.062  16.977 -0.1740  2.1095 -0.1373
 2965TIP3    H230387   2.286   5.067  17.054 -0.3164  0.5888 -0.2647
 2966TIP3   OH230388   3.730   0.422  15.475  0.2963 -0.2715  0.0993
 2966TIP3    H130389   3.639   0.449  15.488  0.1404 -1.0276  0.6124
 2966TIP3    H230390   3.780   0.504  15.477 -0.0217 -0.1018  2.8620
 2967TIP3   OH230391   4.976   4.913   1.642  0.0800  0.0836 -0.2543
 2967TIP3    H130392   4.932   4.884   1.562 -1.6671  2.9970 -0.4350
 2967TIP3    H230393   4.906   4.927   1.705  1.3820 -1.4622  1.5945
 2968TIP3   OH230394   0.141   0.621  12.235  0.0459 -0.5314 -0.2142
 2968TIP3    H130395   0.215   0.670  12.270 -0.6380  1.4174 -1.3564
 2968TIP3    H230396   0.167   0.529  12.241  2.9121  0.1466 -1.4334
 2969TIP3   OH230397   5.486   0.225   5.111  0.2017  0.4579 -0.5806
 2969TIP3    H130398   5.573   0.204   5.147 -0.1348 -0.3463 -0.2231
 2969TIP3    H230399   5.428   0.159   5.148 -0.6292  1.1715 -0.5717
 2970TIP3   OH230400   4.706   6.648   2.385 -0.2329  0.3984 -0.5906
 2970TIP3    H130401   4.657   6.729   2.401  1.5345  1.1824  1.0976
 2970TIP3    H230402   4.779   6.675   2.329 -0.5383 -0.3436 -1.3490
 2971TIP3   OH230403   6.127   0.376   4.522  0.0402 -0.0323  0.1830
 2971TIP3    H130404   6.113   0.282   4.527  0.4724 -0.0801  0.4933
 2971TIP3    H230405   6.039   0.414   4.523 -0.0999 -0.3857  1.0396
 2972TIP3   OH230406   4.300   6.299   5.339  0.2929  0.1131 -0.0089
 2972TIP3    H130407   4.232   6.367   5.339  2.4502  2.3833  2.1931
 2972TIP3    H230408   4.318   6.284   5.246 -1.5338  1.1744 -0.5685
 2973TIP3   OH230409   0.197   3.750  15.486 -0.1675  0.2431  0.5191
 2973TIP3    H130410   0.290   3.770  15.478 -0.1486 -0.0991 -0.2037
 2973TIP3    H230411   0.192   3.689  15.560  0.3221 -0.5805 -0.1127
 2974TIP3   OH230412   1.828   2.408  14.372  0.2935  0.2036  0.6052
 2974TIP3    H130413   1.804   2.322  14.338  0.9883 -0.2181  1.1543
 2974TIP3    H230414   1.808   2.469  14.301 -0.5986 -0.3610  0.3705
 2975TIP3   OH230415   1.658   5.745  15.925 -0.2388 -0.2539  0.1549
 2975TIP3    H130416   1.736   5.800  15.934  1.3448 -2.4941  0.8591
 2975TIP3    H230417   1.641   5.714  16.014  1.2713 -3.9054 -0.7193
 2976TIP3   OH230418   2.746   6.795   0.310  0.7880  0.4217  0.9374
 2976TIP3    H130419   2.697   6.716   0.288  0.4797  0.5160  1.2914
 2976TIP3    H230420   2.732   6.807   0.404  1.2174  0.6340  0.9742
 2977TIP3   OH230421   6.192   4.819  17.190 -0.3234 -0.7469  0.3696
 2977TIP3    H130422   6.285   4.801  17.177 -0.6031 -0.5609 -1.9878
 2977TIP3    H230423   6.153   4.733  17.208  0.1724 -0.9205  0.6282
 2978TIP3   OH230424   2.603   0.212   1.127 -0.2333  0.4119  0.1126
 2978TIP3    H130425   2.534   0.153   1.096 -0.0068 -0.3783  1.0732
 2978TIP3    H230426   2.664   0.155   1.173 -1.0895  1.6700  2.9026
 2979TIP3   OH230427   6.084   3.401   0.783  0.0936  0.6424 -0.2083
 2979TIP3    H130428   6.030   3.480   0.784 -1.5456 -0.4618  0.4128
 2979TIP3    H230429   6.098   3.383   0.690 -0.6938  0.8890 -0.3754
 2980TIP3   OH230430   2.123   5.751   5.871  0.2547  0.1906  0.0174
 2980TIP3    H130431   2.122   5.846   5.859 -3.2472  0.0340 -1.4882
 2980TIP3    H230432   2.094   5.738   5.961 -2.0507  0.4834 -0.6650
 2981TIP3   OH230433   6.643   3.762   4.876  0.0376  0.1280 -0.1915
 2981TIP3    H130434   6.599   3.727   4.954  0.3490 -1.6560 -0.7968
 2981TIP3    H230435   6.584   3.741   4.804  1.2445 -1.0981 -0.8409
 2982TIP3   OH230436   0.604   1.896   2.328 -0.3504 -0.1966 -0.3701
 2982TIP3    H130437   0.632   1.987   2.343 -0.0911 -0.2981 -0.2362
 2982TIP3    H230438   0.640   1.847   2.402  0.8229 -0.6738 -1.2391
 2983TIP3   OH230439   5.520   0.509  16.618 -0.0064 -0.5371 -0.1267
 2983TIP3    H130440   5.498   0.599  16.594  0.9147 -0.0964  0.6763
 2983TIP3    H230441   5.483   0.497  16.705 -1.8470 -1.5898 -1.0143
 2984TIP3   OH230442   2.464   5.731   4.858 -0.0763 -0.4509  0.4295
 2984TIP3    H130443   2.522   5.711   4.785 -0.2089 -1.4891  0.6092
 2984TIP3    H230444   2.453   5.648   4.904 -0.1472  0.1476  1.5253
 2985TIP3   OH230445   3.637   3.277  10.156 -0.3013 -0.1368  0.1539
 2985TIP3    H130446   3.635   3.371  10.173 -3.4548 -0.2018  0.3355
 2985TIP3    H230447   3.688   3.268  10.075 -0.6409  1.8058 -0.2919
 2986TIP3   OH230448   3.624   0.218  15.817  0.4757  0.2127  0.5474
 2986TIP3    H130449   3.607   0.231  15.724 -0.0743 -0.3753  0.5686
 2986TIP3    H230450   3.640   0.124  15.826  1.0249  0.3428  0.9663
 2987TIP3   OH230451   4.386   3.032  14.040 -0.2401  0.2491 -0.0828
 2987TIP3    H130452   4.424   2.998  14.121 -1.4636  0.8749  0.7604
 2987TIP3    H230453   4.385   2.957  13.981 -0.3386 -0.4868  0.8433
 2988TIP3   OH230454   5.798   4.525  11.435 -0.2535 -0.0667  0.3513
 2988TIP3    H130455   5.862   4.483  11.378  0.0563  0.6843  0.1379
 2988TIP3    H230456   5.728   4.554  11.377  0.2753  1.1003  0.2890
 2989TIP3   OH230457   3.191   1.132  12.191 -0.0778  0.3934 -0.3061
 2989TIP3    H130458   3.100   1.160  12.194 -0.0650  0.4885 -0.8036
 2989TIP3    H230459   3.237   1.204  12.149  0.0267 -0.1797 -1.1837
 2990TIP3   OH230460   6.198   3.590   2.326  0.3514 -0.3135 -0.7815
 2990TIP3    H130461   6.250   3.627   2.255  0.6387  0.2658 -0.2694
 2990TIP3    H230462   6.258   3.584   2.400  0.0121 -0.7724 -0.5360
 2991TIP3   OH230463   0.062   0.741  14.538  0.0625  0.1945 -0.2673
 2991TIP3    H130464   0.019   0.771  14.458 -0.7155  1.4892  0.6046
 2991TIP3    H230465   0.028   0.799  14.606  0.2906 -1.2454  1.0989
 2992TIP3   OH230466   2.855   0.675   5.626  0.6656  0.0635  0.4097
 2992TIP3    H130467   2.905   0.683   5.545 -0.7231  0.5272 -0.4297
 2992TIP3    H230468   2.801   0.596   5.613  1.4735 -0.6770  1.4675
 2993TIP3   OH230469   6.020   6.295  15.906 -0.6433  0.1440  0.0531
 2993TIP3    H130470   6.101   6.332  15.872 -1.3450  2.1933  0.5288
 2993TIP3    H230471   6.020   6.204  15.875  1.8370  0.0909  0.1033
 2994TIP3   OH230472   6.087   0.474   1.527  0.1212 -0.2868 -0.2241
 2994TIP3    H130473   6.024   0.424   1.475 -0.2508 -1.3283  1.2141
 2994TIP3    H230474   6.138   0.408   1.573  1.4809  0.5857 -0.4416
 2995TIP3   OH230475   4.694   2.395  12.803  0.1563  0.0035  0.6746
 2995TIP3    H130476   4.783   2.367  12.824 -0.9906 -3.3654  1.4552
 2995TIP3    H230477   4.676   2.356  12.718 -0.8531 -0.1410  0.9422
 2996TIP3   OH230478   1.263   1.983  11.009 -0.2793 -0.8249 -0.1668
 2996TIP3    H130479   1.291   2.073  10.991 -1.1607  0.0180  2.4389
 2996TIP3    H230480   1.344   1.932  11.011  0.4915  0.4184  0.9664
 2997TIP3   OH230481   6.200   3.053   6.150  0.6111  0.5407  0.2756
 2997TIP3    H130482   6.213   3.145   6.173 -1.2584  0.9357 -0.2244
 2997TIP3    H230483   6.137   3.020   6.214  1.6822 -0.5539  0.7925
 2998TIP3   OH230484   5.499   4.272  11.194 -0.1671  0.0241 -0.5546
 2998TIP3    H130485   5.428   4.305  11.249 -1.5171  1.3031 -2.9627
 2998TIP3    H230486   5.562   4.344  11.190 -0.3551  0.1673 -1.1075
 2999TIP3   OH230487   1.428   5.672   5.980  0.6900 -0.0004 -0.2425
 2999TIP3    H130488   1.344   5.673   6.025  1.6588 -0.4735  1.6524
 2999TIP3    H230489   1.425   5.596   5.924  0.9667 -1.7840  2.0821
 3000TIP3   OH230490   2.602   2.292   0.928 -0.7217  0.2084 -0.4550
 3000TIP3    H130491   2.678   2.345   0.905  0.9880 -1.3506  1.4509
 3000TIP3    H230492   2.538   2.354   0.962  0.0679  1.4117 -1.1503
 3001TIP3   OH230493   0.254   3.955   5.029 -0.4223  0.2126 -0.6148
 3001TIP3    H130494   0.241   3.965   4.934 -0.5423 -1.8319 -0.8486
 3001TIP3    H230495   0.167   3.935   5.063 -0.2760  0.3307 -0.1689
 3002TIP3   OH230496   4.036   5.597   0.551  0.3212 -0.3457 -0.0354
 3002TIP3    H130497   4.001   5.634   0.632  0.6520 -1.4041  0.5931
 3002TIP3    H230498   4.012   5.660   0.484  2.3547  1.9138  1.2583
 3003TIP3   OH230499   3.050   2.611   2.307  0.2588 -0.2482 -0.2509
 3003TIP3    H130500   2.963   2.576   2.290 -0.1027  0.6427 -0.2240
 3003TIP3    H230501   3.063   2.598   2.401  0.0816 -0.1981 -0.2198
 3004TIP3   OH230502   6.632   1.709  12.870  0.2036 -0.8708 -0.3204
 3004TIP3    H130503   6.707   1.658  12.899 -0.6978 -1.8507  0.3062
 3004TIP3    H230504   6.654   1.799  12.894  0.9223 -1.2216  0.3655
 3005TIP3   OH230505   5.623   2.829   5.106  0.0937 -0.7311 -0.0800
 3005TIP3    H130506   5.555   2.891   5.082  0.5234 -0.0804  0.3463
 3005TIP3    H230507   5.576   2.749   5.129 -0.3434 -1.2149 -2.5579
 3006TIP3   OH230508   5.511   2.319  11.672 -0.0450  0.2046  0.0934
 3006TIP3    H130509   5.505   2.286  11.761 -1.3339 -0.9728 -0.4231
 3006TIP3    H230510   5.602   2.303  11.647 -0.0386 -0.7308  0.7034
 3007TIP3   OH230511   0.600   3.122   4.643 -0.2846 -0.4508  0.2832
 3007TIP3    H130512   0.562   3.034   4.644 -1.4525  0.0019 -1.3421
 3007TIP3    H230513   0.689   3.109   4.612 -1.4894 -0.7715 -3.3738
 3008TIP3   OH230514   1.274   4.067  15.070 -0.2226 -0.0889  0.2386
 3008TIP3    H130515   1.353   4.030  15.110  0.0133 -0.0783 -0.2209
 3008TIP3    H230516   1.247   4.136  15.131 -0.5640 -0.8940  1.0113
 3009TIP3   OH230517   1.475   1.447   1.664 -0.3552  0.1625 -0.9063
 3009TIP3    H130518   1.480   1.356   1.694  0.6651  0.1578 -1.0668
 3009TIP3    H230519   1.454   1.441   1.571 -0.0344  0.0919 -0.9719
 3010TIP3   OH230520   2.588   6.194  15.326 -0.5369 -0.3225 -0.1398
 3010TIP3    H130521   2.684   6.184  15.324 -0.6437 -1.1550 -1.4455
 3010TIP3    H230522   2.569   6.217  15.417  0.7443 -2.1292  0.6360
 3011TIP3   OH230523   3.288   4.068   0.631  0.1797 -0.0833  0.2897
 3011TIP3    H130524   3.361   4.124   0.657  1.0637 -0.4249 -1.3858
 3011TIP3    H230525   3.303   4.049   0.539 -2.0647 -0.1270 -0.1114
 3012TIP3   OH230526   2.758   4.749   5.047 -0.6825 -0.1333  0.5118
 3012TIP3    H130527   2.824   4.740   4.979  0.2150 -0.2637  1.3953
 3012TIP3    H230528   2.765   4.840   5.076  0.0768 -0.5233  1.5808
 3013TIP3   OH230529   2.415   0.527  16.443  0.3030 -0.0214  0.2408
 3013TIP3    H130530   2.495   0.565  16.405 -0.5632  0.5673 -1.0248
 3013TIP3    H230531   2.419   0.551  16.536  1.4310  0.2913  0.1212
 3014TIP3   OH230532   1.469   1.432  16.731 -0.3976 -0.4013  0.0699
 3014TIP3    H130533   1.377   1.451  16.709 -0.7927 -1.0178  1.1644
 3014TIP3    H230534   1.504   1.516  16.762 -0.5066 -0.0947 -0.6381
 3015TIP3   OH230535   1.781   0.938  12.582  0.1105 -0.2812 -0.3424
 3015TIP3    H130536   1.726   0.905  12.653  1.6669  0.9415  1.4872
 3015TIP3    H230537   1.758   0.884  12.506 -0.8879 -2.2546  1.3276
 3016TIP3   OH230538   2.835   6.665   5.829  0.4967  0.1948 -0.1658
 3016TIP3    H130539   2.762   6.634   5.776 -0.9520  2.1804  0.5982
 3016TIP3    H230540   2.878   6.586   5.860 -1.9697 -1.0203  0.2352
 3017TIP3   OH230541   5.199   0.218  16.952  0.0808 -0.2965 -0.2056
 3017TIP3    H130542   5.132   0.185  17.012 -1.1780  0.6489 -1.0459
 3017TIP3    H230543   5.212   0.148  16.888  1.7097 -1.4596  1.3734
 3018TIP3   OH230544   2.249   2.003   5.568 -0.0796  0.0198 -0.2605
 3018TIP3    H130545   2.263   2.092   5.599 -1.2355 -0.1136  0.6723
 3018TIP3    H230546   2.202   2.014   5.485  0.6439  0.3003 -0.6372
 3019TIP3   OH230547   3.116   6.093   3.794 -0.2060  0.2483  0.4159
 3019TIP3    H130548   3.045   6.030   3.803  1.2175 -1.2655  1.4836
 3019TIP3    H230549   3.108   6.150   3.870  0.8152 -1.1179  1.5980
 3020TIP3   OH230550   5.391   3.424  15.648  0.1312 -0.2220 -0.3420
 3020TIP3    H130551   5.461   3.485  15.670 -0.8829  0.0142  2.4727
 3020TIP3    H230552   5.408   3.398  15.558  3.2150  0.6347 -0.0402
 3021TIP3   OH230553   3.994   3.408   0.085 -0.4726  0.1057 -0.1929
 3021TIP3    H130554   4.074   3.449   0.050 -0.7746 -0.0658 -1.1098
 3021TIP3    H230555   3.930   3.418   0.015 -1.6191  1.3135  1.0301
 3022TIP3   OH230556   3.026   3.641  14.924  0.1955  0.2613  0.6255
 3022TIP3    H130557   2.992   3.660  15.011  0.4270  0.3618  0.6927
 3022TIP3    H230558   3.029   3.545  14.919 -1.9524  0.1909 -0.0833
 3023TIP3   OH230559   2.741   2.926  15.257 -0.9819  0.2717  0.1004
 3023TIP3    H130560   2.699   2.864  15.317  0.8715  0.8191  1.9911
 3023TIP3    H230561   2.684   3.003  15.259 -1.5755 -0.1659  0.2082
 3024TIP3   OH230562   4.150   1.498   4.743 -0.5914 -0.4836  0.2159
 3024TIP3    H130563   4.138   1.581   4.788 -3.1543  0.6039 -2.3272
 3024TIP3    H230564   4.128   1.432   4.810 -0.6296  0.9225  1.6260
 3025TIP3   OH230565   5.355   0.096  15.388 -0.3538 -0.5717  0.0926
 3025TIP3    H130566   5.316   0.183  15.390  1.7076  0.4594 -2.5750
 3025TIP3    H230567   5.446   0.110  15.414 -0.6951 -2.3855  2.4268
 3026TIP3   OH230568   6.530   2.056   1.023  0.1836 -0.0289  0.2805
 3026TIP3    H130569   6.449   2.051   0.973 -0.0472  0.8743  0.5683
 3026TIP3    H230570   6.564   2.144   1.006 -0.5487  0.7538  2.7279
 3027TIP3   OH230571   2.871   4.999   2.753 -0.3052  0.3544 -0.0088
 3027TIP3    H130572   2.791   5.050   2.746  0.3622  1.7067  1.9077
 3027TIP3    H230573   2.941   5.060   2.729  0.2614 -0.4294 -0.3641
 3028TIP3   OH230574   3.859   2.798  14.877 -0.3765  0.4822 -0.1382
 3028TIP3    H130575   3.788   2.853  14.913 -1.6048  0.6888 -2.7608
 3028TIP3    H230576   3.817   2.713  14.861  0.1840  0.3658 -0.9655
 3029TIP3   OH230577   5.026   3.160   1.038 -0.2382 -0.4454  0.1152
 3029TIP3    H130578   5.017   3.065   1.051 -0.2241 -0.3807  0.6255
 3029TIP3    H230579   5.063   3.192   1.121 -2.4597  0.3379  0.8234
 3030TIP3   OH230580   3.857   0.500  13.490  0.4052 -0.0683 -0.0304
 3030TIP3    H130581   3.947   0.514  13.518  0.9685 -2.0533 -0.7568
 3030TIP3    H230582   3.856   0.524  13.398  0.2158 -0.0783 -0.0311
 3031TIP3   OH230583   2.708   5.538   3.173  0.4752 -0.0777 -0.3801
 3031TIP3    H130584   2.730   5.504   3.260  0.6812 -0.0752 -0.4287
 3031TIP3    H230585   2.716   5.463   3.115  1.1817  0.1039 -0.5272
 3032TIP3   OH230586   3.486   5.583  15.633  0.0068  0.1073 -0.1689
 3032TIP3    H130587   3.582   5.592  15.632  0.0330 -0.0342  1.1384
 3032TIP3    H230588   3.468   5.519  15.702 -1.0178 -0.1285 -0.6453
 3033TIP3   OH230589   6.455   3.595  11.134  0.0412 -0.3054  0.2816
 3033TIP3    H130590   6.436   3.616  11.226 -0.0073  1.0247 -0.0205
 3033TIP3    H230591   6.521   3.658  11.108 -0.5302 -0.1501 -0.8353
 3034TIP3   OH230592   6.250   3.345   1.432 -0.0944  0.1706  0.4203
 3034TIP3    H130593   6.230   3.424   1.383 -2.0622 -0.7915 -0.3952
 3034TIP3    H230594   6.165   3.303   1.446  0.9248 -1.9597  0.5349
 3035TIP3   OH230595   0.431   5.704   5.585  0.1397  0.3958 -0.0966
 3035TIP3    H130596   0.402   5.792   5.560  1.1488  0.8205  0.2021
 3035TIP3    H230597   0.359   5.669   5.637 -0.6685  0.6838 -1.0143
 3036TIP3   OH230598   3.800   3.823   3.617 -0.1107 -0.4352 -0.0380
 3036TIP3    H130599   3.720   3.858   3.579 -0.2636 -0.0387  0.6473
 3036TIP3    H230600   3.830   3.758   3.553 -0.6189 -0.1160 -0.6065
 3037TIP3   OH230601   6.234   1.107  11.578 -0.3575 -0.1408  0.0590
 3037TIP3    H130602   6.175   1.120  11.653 -0.4165  3.0221 -0.4686
 3037TIP3    H230603   6.198   1.163  11.510 -0.2323 -2.8958 -2.3565
 3038TIP3   OH230604   0.426   1.821   1.091 -0.0795 -0.1079  0.1800
 3038TIP3    H130605   0.469   1.903   1.115  0.5092 -0.7875  1.5080
 3038TIP3    H230606   0.337   1.830   1.123  0.1706 -0.2430  0.9272
 3039TIP3   OH230607   3.709   3.036  12.957 -0.3942  0.0791  0.3350
 3039TIP3    H130608   3.722   3.058  13.050  0.0212 -2.3353  0.8888
 3039TIP3    H230609   3.623   2.992  12.955  0.2356 -1.1440 -0.1852
 3040TIP3   OH230610   3.961   1.271  15.197  0.4920  0.1662  0.0905
 3040TIP3    H130611   3.985   1.260  15.289 -0.5954  0.0225  0.3563
 3040TIP3    H230612   3.910   1.352  15.194  1.1018  0.5394 -0.4988
 3041TIP3   OH230613   1.009   1.893   2.516  0.5860  0.2060 -0.1779
 3041TIP3    H130614   1.003   1.803   2.546  1.9532  0.1664 -0.0120
 3041TIP3    H230615   1.067   1.936   2.579 -0.4863  1.3403  0.0617
 3042TIP3   OH230616   3.685   5.635  13.039  0.9080  0.4115  0.0794
 3042TIP3    H130617   3.687   5.711  13.097 -2.4304 -0.4604  1.4910
 3042TIP3    H230618   3.608   5.650  12.984 -0.2794 -2.2945  0.9313
 3043TIP3   OH230619   3.730   2.211  15.262 -0.1199  0.8738 -0.1524
 3043TIP3    H130620   3.746   2.118  15.279 -1.6207  0.6599  0.2060
 3043TIP3    H230621   3.816   2.247  15.240  1.0007 -0.0071  2.5089
 3044TIP3   OH230622   5.854   6.580   4.333  0.2878  0.2580 -0.8567
 3044TIP3    H130623   5.765   6.614   4.335 -0.1614 -0.7779 -1.9893
 3044TIP3    H230624   5.878   6.569   4.425 -0.2442  1.8024 -0.5179
 3045TIP3   OH230625   1.303   0.523   1.418 -0.3208  0.6652 -0.2435
 3045TIP3    H130626   1.361   0.594   1.442  0.7912 -0.4456  0.4327
 3045TIP3    H230627   1.325   0.503   1.327  2.0987 -1.3149  0.6933
 3046TIP3   OH230628   6.739   1.752   3.343  0.0160  0.0564 -0.2548
 3046TIP3    H130629   6.686   1.793   3.410  0.6888 -0.3443  0.5309
 3046TIP3    H230630   6.789   1.824   3.304 -0.6921  0.3524 -0.6383
 3047TIP3   OH230631   4.897   3.504  14.241 -0.4607  0.0307  0.2410
 3047TIP3    H130632   4.902   3.412  14.268 -0.6548 -0.5749 -1.7280
 3047TIP3    H230633   4.885   3.501  14.146 -0.6646  2.0961  0.1752
 3048TIP3   OH230634   5.258   6.138  14.021 -0.2990  0.2616 -0.1423
 3048TIP3    H130635   5.174   6.143  13.974 -0.4316 -0.5272  0.0083
 3048TIP3    H230636   5.234   6.144  14.113 -0.2556 -0.6518 -0.0656
 3049TIP3   OH230637   4.615   5.724  11.743  0.1690  0.0031 -0.2859
 3049TIP3    H130638   4.602   5.710  11.837  0.3010 -0.7919 -0.3813
 3049TIP3    H230639   4.597   5.817  11.729 -0.6820 -0.0641  0.3821
 3050TIP3   OH230640   3.243   6.290   1.952  0.3312 -0.1921 -0.5953
 3050TIP3    H130641   3.331   6.311   1.982  0.8879 -0.4792 -1.9699
 3050TIP3    H230642   3.216   6.366   1.900 -1.3486  1.1069  2.0551
 3051TIP3   OH230643   3.433   6.611   4.003  0.3223  0.4706  0.0874
 3051TIP3    H130644   3.463   6.534   3.955 -0.3340 -0.5392  1.2722
 3051TIP3    H230645   3.370   6.577   4.067  0.7401  1.8542  1.2693
 3052TIP3   OH230646   1.424   1.846   3.847 -0.2642  0.5304  0.3936
 3052TIP3    H130647   1.374   1.764   3.840  0.5580  0.1312 -1.2034
 3052TIP3    H230648   1.395   1.898   3.773  0.0440  1.2118  0.7524
 3053TIP3   OH230649   6.688   5.843   2.771 -0.0465 -0.1251 -0.1302
 3053TIP3    H130650   6.685   5.881   2.684 -0.1114 -0.2415 -0.1773
 3053TIP3    H230651   6.622   5.891   2.821 -1.4570 -1.4739 -0.6908
 3054TIP3   OH230652   3.700   1.288   4.920 -0.0612  0.1694 -0.7532
 3054TIP3    H130653   3.661   1.288   5.007 -0.8850  1.5795 -1.1133
 3054TIP3    H230654   3.658   1.215   4.874 -0.8895  0.4992 -0.5202
 3055TIP3   OH230655   2.925   0.912   1.560 -0.1973  0.4396  0.1076
 3055TIP3    H130656   3.008   0.943   1.596 -1.1637  2.7538  0.4374
 3055TIP3    H230657   2.905   0.832   1.610  0.7689  1.0546  1.5052
 3056TIP3   OH230658   1.689   2.792  14.399  0.0530  0.3035  0.6317
 3056TIP3    H130659   1.600   2.771  14.370  0.5235 -0.2104 -0.4751
 3056TIP3    H230660   1.687   2.886  14.416 -0.4370  0.4979 -0.4127
 3057TIP3   OH230661   0.653   6.522  10.830 -0.1733  0.3418 -0.1647
 3057TIP3    H130662   0.594   6.517  10.754 -0.5104 -1.2821  0.1808
 3057TIP3    H230663   0.671   6.616  10.841 -1.7507  0.7531 -0.9993
 3058TIP3   OH230664   6.681   1.159   5.668 -0.7388 -0.6387  0.0198
 3058TIP3    H130665   6.690   1.112   5.751 -0.3010  0.2957  0.5100
 3058TIP3    H230666   6.739   1.235   5.677 -1.3556 -0.0595 -0.7883
 3059TIP3   OH230667   6.564   1.778  13.674  0.7697  0.0919  0.1707
 3059TIP3    H130668   6.615   1.825  13.607 -0.9729  3.8949  1.3372
 3059TIP3    H230669   6.627   1.762  13.745  2.2344 -2.5398 -1.6286
 3060TIP3   OH230670   3.598   4.381  16.325  0.4335 -0.5365 -0.0577
 3060TIP3    H130671   3.619   4.376  16.418  0.4143 -1.1132 -0.0788
 3060TIP3    H230672   3.627   4.468  16.298 -0.5625  0.0416  0.7260
 3061TIP3   OH230673   5.592   0.485  15.360 -0.3228 -0.2030 -0.6521
 3061TIP3    H130674   5.686   0.488  15.343  0.0216 -0.7763  1.0513
 3061TIP3    H230675   5.556   0.437  15.285  0.4196  2.0629 -2.5090
 3062TIP3   OH230676   5.383   5.155  11.924  0.2761 -0.5046  0.5713
 3062TIP3    H130677   5.401   5.068  11.960 -0.5224 -0.8909  0.0699
 3062TIP3    H230678   5.307   5.186  11.973  0.0390 -0.4495  0.1718
 3063TIP3   OH230679   4.878   6.431   1.365  0.1505 -1.0314  0.1719
 3063TIP3    H130680   4.938   6.431   1.440 -0.8506 -0.6919  0.9706
 3063TIP3    H230681   4.819   6.357   1.381 -0.2120 -0.8153 -0.1630
 3064TIP3   OH230682   1.688   5.181  11.381 -0.2439  0.8515  0.0005
 3064TIP3    H130683   1.704   5.203  11.289 -0.7857  1.8638  0.1400
 3064TIP3    H230684   1.599   5.145  11.381 -0.3814  1.1916  0.1813
 3065TIP3   OH230685   2.352   0.746   6.030  0.0413 -0.3485  0.1191
 3065TIP3    H130686   2.397   0.746   5.945  0.4990  1.3010  0.3409
 3065TIP3    H230687   2.379   0.664   6.071  2.7192  0.4678  0.1362
 3066TIP3   OH230688   4.509   5.425   0.085 -0.0082  0.2583  0.3916
 3066TIP3    H130689   4.588   5.435   0.138 -0.5614  0.6879  1.1391
 3066TIP3    H230690   4.497   5.511   0.044  0.2626  0.0092 -0.2240
 3067TIP3   OH230691   4.825   4.307  11.546  0.0694  0.0192 -0.0006
 3067TIP3    H130692   4.758   4.369  11.574  0.0266 -0.6752  1.4826
 3067TIP3    H230693   4.835   4.323  11.452 -3.0447 -0.6807 -0.5270
 3068TIP3   OH230694   5.711   4.539  16.732 -0.4063 -0.8900  0.1320
 3068TIP3    H130695   5.675   4.491  16.658 -0.1726 -0.7694 -0.0597
 3068TIP3    H230696   5.787   4.585  16.697 -0.9734  0.1088  0.1662
 3069TIP3   OH230697   5.107   2.630   4.283 -0.8597  0.6248 -0.1542
 3069TIP3    H130698   5.155   2.554   4.250 -0.9757  0.0491  0.9910
 3069TIP3    H230699   5.111   2.693   4.212 -0.1679 -0.1978 -0.8551
 3070TIP3   OH230700   1.827   4.119  11.191  0.1142 -0.2987 -0.1435
 3070TIP3    H130701   1.859   4.055  11.127 -0.9164  0.5475 -1.5363
 3070TIP3    H230702   1.738   4.089  11.211 -0.3093  0.5894 -0.6668
 3071TIP3   OH230703   6.459   1.497  13.564 -0.5248 -0.2293 -0.2809
 3071TIP3    H130704   6.504   1.564  13.616  0.4440 -0.0230 -1.3522
 3071TIP3    H230705   6.366   1.517  13.574 -0.3354  0.0445  1.0389
 3072TIP3   OH230706   0.380   5.132  14.151  0.2607 -0.0103  0.3342
 3072TIP3    H130707   0.362   5.213  14.199 -1.1388  0.0358 -0.2428
 3072TIP3    H230708   0.305   5.121  14.093  0.2852 -1.8909  0.6236
 3073TIP3   OH230709   1.519   4.001  13.749  0.1250  0.3127  0.1132
 3073TIP3    H130710   1.587   3.988  13.815  0.0380 -1.1868 -0.0727
 3073TIP3    H230711   1.567   4.025  13.670  0.3591  0.3578  0.2699
 3074TIP3   OH230712   3.686   5.202   6.085 -0.0336 -0.4464 -0.2334
 3074TIP3    H130713   3.622   5.137   6.054 -0.6665 -0.0351  0.2066
 3074TIP3    H230714   3.771   5.163   6.064 -0.4333 -0.3552 -2.1735
 3075TIP3   OH230715   4.709   4.982   4.931 -0.1964  0.1362 -0.3561
 3075TIP3    H130716   4.758   4.936   4.999 -0.5669  0.5645  0.2069
 3075TIP3    H230717   4.731   4.936   4.850  0.1389 -0.4658  0.0734
 3076TIP3   OH230718   2.089   1.556   4.629  0.0963 -0.8464  0.1472
 3076TIP3    H130719   2.003   1.548   4.671  0.1320 -0.0781  0.3862
 3076TIP3    H230720   2.150   1.516   4.690  0.0763 -0.2046  0.5951
 3077TIP3   OH230721   0.806   0.675   1.995 -0.7933 -0.5807 -0.6851
 3077TIP3    H130722   0.756   0.743   1.951 -0.6024 -1.0587 -1.6422
 3077TIP3    H230723   0.853   0.630   1.925  0.3821 -0.6328  0.1155
 3078TIP3   OH230724   1.905   2.639  11.940 -0.0782  0.2477 -0.5523
 3078TIP3    H130725   1.813   2.635  11.914 -0.7221 -0.1702  1.6858
 3078TIP3    H230726   1.948   2.568  11.892 -1.1670 -0.3085 -0.7062
 3079TIP3   OH230727   4.398   0.769   3.224  0.1170 -0.0291  0.2539
 3079TIP3    H130728   4.436   0.733   3.304 -0.3190 -1.9138 -0.3490
 3079TIP3    H230729   4.383   0.861   3.243 -0.6525 -0.6069  2.5860
 3080TIP3   OH230730   2.732   2.915   2.709 -0.0346 -0.2881  0.1533
 3080TIP3    H130731   2.771   2.958   2.633  0.0135  0.1946  0.4546
 3080TIP3    H230732   2.773   2.828   2.710 -1.1242 -0.8542 -1.2412
 3081TIP3   OH230733   1.516   2.724   4.403  0.4384  0.0600  0.3170
 3081TIP3    H130734   1.593   2.774   4.376  2.6172 -2.3441  1.8313
 3081TIP3    H230735   1.480   2.772   4.478  2.0277 -0.1870  1.2478
 3082TIP3   OH230736   5.308   3.507   2.527  0.2523  0.1285  0.3152
 3082TIP3    H130737   5.307   3.530   2.620 -0.2783  0.8079  0.1459
 3082TIP3    H230738   5.267   3.421   2.524  0.0761  0.1953  0.6885
 3083TIP3   OH230739   2.428   1.115  15.044  0.1986  0.6751  0.1943
 3083TIP3    H130740   2.347   1.120  14.994  0.6020  2.4055 -0.3440
 3083TIP3    H230741   2.494   1.087  14.981  0.1678 -0.0022  0.4570
 3084TIP3   OH230742   4.012   0.587  10.441 -0.5904 -0.2143 -0.4693
 3084TIP3    H130743   3.980   0.567  10.529 -1.0618 -1.2164 -0.8659
 3084TIP3    H230744   4.068   0.513  10.418  0.5927  0.6679 -0.5011
 3085TIP3   OH230745   4.026   0.858   1.582  0.2199 -0.1907  0.3497
 3085TIP3    H130746   4.020   0.800   1.506  1.3855  0.3583 -0.1714
 3085TIP3    H230747   4.102   0.826   1.632 -0.5605 -0.5758  1.3164
 3086TIP3   OH230748   1.939   6.023  14.324  0.5519  0.2466  0.6181
 3086TIP3    H130749   1.918   5.932  14.305 -0.9240  0.6152  0.3953
 3086TIP3    H230750   1.902   6.039  14.411  0.4839  0.7214  0.5046
 3087TIP3   OH230751   6.816   0.114  11.137  0.5631  0.3276  1.1040
 3087TIP3    H130752   6.909   0.120  11.113  0.9125 -0.7207  2.1123
 3087TIP3    H230753   6.777   0.061  11.068  0.8710  0.1545  1.0597
 3088TIP3   OH230754   6.489   0.704  15.638  0.2068 -0.4125 -0.0537
 3088TIP3    H130755   6.556   0.714  15.570  0.2337 -0.3102 -0.0123
 3088TIP3    H230756   6.407   0.692  15.590  0.2524 -0.5229 -0.1045
 3089TIP3   OH230757   5.483   5.148  15.060  0.2949  0.2571 -0.3284
 3089TIP3    H130758   5.418   5.216  15.073  1.2629  1.1155  0.0400
 3089TIP3    H230759   5.484   5.133  14.966 -1.7775 -1.1083 -0.1839
 3090TIP3   OH230760   0.558   6.410   3.437 -0.0393 -0.0700  0.7721
 3090TIP3    H130761   0.557   6.359   3.357 -0.4152 -1.2033  1.4904
 3090TIP3    H230762   0.615   6.485   3.417  0.5215 -0.7673 -0.2828
 3091TIP3   OH230763   4.677   5.033  15.574  0.1653  0.0748  0.0934
 3091TIP3    H130764   4.727   5.002  15.498  0.7751 -3.2132  1.7719
 3091TIP3    H230765   4.586   5.030  15.545  0.4076 -0.9351 -0.5840
 3092TIP3   OH230766   3.760   1.680   0.601 -0.1284  0.0085  0.1940
 3092TIP3    H130767   3.767   1.683   0.696  1.1573  0.7439  0.0842
 3092TIP3    H230768   3.723   1.594   0.582 -0.2821 -0.1828  1.3520
 3093TIP3   OH230769   1.642   1.202  15.775  0.1824  0.1034 -0.4831
 3093TIP3    H130770   1.554   1.231  15.797  0.3443  0.6049 -0.4758
 3093TIP3    H230771   1.654   1.122  15.825 -0.1031  0.2792 -0.1269
 3094TIP3   OH230772   0.232   1.290   5.201 -0.0283  0.0485 -1.1737
 3094TIP3    H130773   0.230   1.307   5.107  0.1385  2.3509 -0.7926
 3094TIP3    H230774   0.269   1.370   5.239 -0.7339 -0.5768  0.9001
 3095TIP3   OH230775   1.237   3.215   4.900  0.3399  0.5479 -0.1262
 3095TIP3    H130776   1.246   3.310   4.903 -0.7611  0.6625 -0.2347
 3095TIP3    H230777   1.304   3.182   4.960  1.1192  1.3648 -0.5529
 3096TIP3   OH230778   5.628   6.421   5.623  0.2682  0.4887 -0.0371
 3096TIP3    H130779   5.711   6.388   5.656  0.7918  1.8767  0.0653
 3096TIP3    H230780   5.565   6.352   5.643  1.4820 -0.7887 -0.5600
 3097TIP3   OH230781   5.492   5.080  16.122  0.1095 -0.1042 -0.2827
 3097TIP3    H130782   5.570   5.131  16.102 -0.0394  0.8553  1.4478
 3097TIP3    H230783   5.425   5.146  16.140 -1.2839 -0.9174 -2.4031
 3098TIP3   OH230784   0.784   0.102  11.529 -0.4396 -0.3318  0.1299
 3098TIP3    H130785   0.759   0.104  11.437  0.4758  3.6027 -0.1209
 3098TIP3    H230786   0.862   0.047  11.532 -0.9049 -1.1020 -1.3030
 3099TIP3   OH230787   0.681   0.095  11.928  0.2672 -0.3761  0.0970
 3099TIP3    H130788   0.743   0.168  11.925  1.1078 -0.9194  2.8849
 3099TIP3    H230789   0.730   0.020  11.893 -0.0955  0.0222 -1.3056
 3100TIP3   OH230790   6.665   0.223   0.660 -0.4896  0.3055  0.5037
 3100TIP3    H130791   6.639   0.295   0.718  3.7816  1.9805  0.5524
 3100TIP3    H230792   6.722   0.168   0.714 -0.3083 -0.7548 -0.7503
 3101TIP3   OH230793   2.598   5.407  12.523  0.3409  0.0371  0.1623
 3101TIP3    H130794   2.532   5.475  12.529 -0.1591 -0.3734 -0.6055
 3101TIP3    H230795   2.612   5.394  12.429  0.7960 -0.5667  0.3035
 3102TIP3   OH230796   1.256   4.574   4.757 -0.4370 -0.4905  0.1576
 3102TIP3    H130797   1.254   4.606   4.667  1.5899 -2.0440 -0.4869
 3102TIP3    H230798   1.309   4.638   4.805 -0.8204 -0.1042  0.0652
 3103TIP3   OH230799   6.020   3.101   1.996 -0.4814  0.2985  0.1610
 3103TIP3    H130800   6.000   3.081   1.904  0.7004  0.0991 -0.0581
 3103TIP3    H230801   6.000   3.020   2.043  1.5657 -0.5199 -0.3247
 3104TIP3   OH230802   3.867   4.251  16.284 -0.8538 -0.0225 -0.2650
 3104TIP3    H130803   3.857   4.182  16.218 -0.5509 -0.5143  0.1947
 3104TIP3    H230804   3.783   4.297  16.285 -1.6300 -1.4245  0.5881
 3105TIP3   OH230805   4.382   3.416   0.503  0.3012  0.0002  0.4115
 3105TIP3    H130806   4.337   3.352   0.558 -0.4276 -0.3469 -0.5709
 3105TIP3    H230807   4.347   3.401   0.415 -0.3068  2.0903  0.2526
 3106TIP3   OH230808   4.502   2.058  12.982  0.1605 -0.1390 -0.0990
 3106TIP3    H130809   4.448   2.058  13.061  0.6485  0.6517  0.2508
 3106TIP3    H230810   4.577   2.002  13.004 -0.6716 -1.4799 -0.6902
 3107TIP3   OH230811   6.633   3.383   5.631  0.1099 -0.2152  0.2046
 3107TIP3    H130812   6.680   3.305   5.660 -1.9058 -1.2249  0.8394
 3107TIP3    H230813   6.549   3.380   5.677 -0.1022  2.2106  0.0730
 3108TIP3   OH230814   3.086   0.230   2.472  0.1083 -0.2978  0.2954
 3108TIP3    H130815   3.084   0.324   2.454  1.2087 -0.3206  0.0346
 3108TIP3    H230816   3.142   0.193   2.404  0.5449 -0.9918  1.0186
 3109TIP3   OH230817   0.906   0.717  13.887  0.1811 -0.5597 -0.4111
 3109TIP3    H130818   0.897   0.805  13.851 -1.8048 -0.4108  0.3847
 3109TIP3    H230819   0.920   0.661  13.810  0.3881  0.3077 -1.0129
 3110TIP3   OH230820   5.066   4.520   0.361 -0.2029  0.8488 -0.1793
 3110TIP3    H130821   5.155   4.492   0.340  0.2659  0.5989  2.0007
 3110TIP3    H230822   5.067   4.614   0.348 -0.1646  0.6002 -2.0156
 3111TIP3   OH230823   0.933   1.241  14.893 -0.2968 -0.1386  0.2626
 3111TIP3    H130824   0.921   1.225  14.800 -0.0266 -1.8260  0.5020
 3111TIP3    H230825   1.006   1.302  14.898 -0.0110 -0.4126 -0.6105
 3112TIP3   OH230826   3.800   5.527  15.561  0.5167 -0.0119  0.7104
 3112TIP3    H130827   3.805   5.455  15.624  0.9906 -0.1059  0.5680
 3112TIP3    H230828   3.868   5.588  15.590  1.8882 -0.8372 -0.6910
 3113TIP3   OH230829   3.424   2.234   1.882 -0.2183 -0.0664  0.0789
 3113TIP3    H130830   3.372   2.216   1.960 -2.0634  1.3980 -0.7874
 3113TIP3    H230831   3.460   2.149   1.857 -1.6826 -0.9896  1.0561
 3114TIP3   OH230832   4.425   0.323   1.551  0.2076  0.1948  0.1735
 3114TIP3    H130833   4.500   0.333   1.609  0.5277  0.3421 -0.2593
 3114TIP3    H230834   4.360   0.385   1.585 -0.4267 -1.2663  1.6572
 3115TIP3   OH230835   6.622   4.500   2.789  0.1454 -0.3159 -0.0412
 3115TIP3    H130836   6.650   4.575   2.841 -1.2046 -0.6499  1.1794
 3115TIP3    H230837   6.641   4.423   2.843 -1.2551 -0.6676 -0.0348
 3116TIP3   OH230838   5.907   2.575  16.293  0.3742 -0.2988 -0.3504
 3116TIP3    H130839   5.960   2.550  16.217 -0.2717  0.3738 -1.0248
 3116TIP3    H230840   5.952   2.534  16.367  1.9963  0.4533 -0.8710
 3117TIP3   OH230841   1.993   0.394  14.412  0.0648  0.4326  0.2180
 3117TIP3    H130842   2.018   0.461  14.348 -0.6632 -0.2175 -0.7715
 3117TIP3    H230843   2.057   0.402  14.482  0.8151  1.2326 -0.5477
 3118TIP3   OH230844   2.705   5.803   3.745  0.7597 -0.9931  0.0895
 3118TIP3    H130845   2.632   5.864   3.751  1.4465 -0.1935  0.3650
 3118TIP3    H230846   2.778   5.855   3.711  0.9989 -1.9614 -0.9225
 3119TIP3   OH230847   2.031   4.151   1.613  0.6010 -0.0392  0.0187
 3119TIP3    H130848   1.996   4.070   1.650 -1.4580  1.3427  1.2362
 3119TIP3    H230849   2.124   4.149   1.635  0.4028 -1.6575  0.8200
 3120TIP3   OH230850   1.756   5.681  16.637  0.6420 -0.9486  0.4101
 3120TIP3    H130851   1.687   5.709  16.578  2.0275  0.5560 -0.5210
 3120TIP3    H230852   1.803   5.612  16.589 -1.1442 -3.1347  1.6726
 3121TIP3   OH230853   2.823   6.136   4.910 -0.3540  0.3691  0.2175
 3121TIP3    H130854   2.751   6.120   4.971 -0.4133 -1.0987 -0.2300
 3121TIP3    H230855   2.861   6.050   4.893 -0.0285  0.8185 -1.4416
 3122TIP3   OH230856   4.747   2.944  16.821 -0.1386  0.1082 -0.1893
 3122TIP3    H130857   4.811   2.937  16.751 -0.8342  0.3249 -0.8490
 3122TIP3    H230858   4.761   2.866  16.874  1.1724  0.5189  0.1105
 3123TIP3   OH230859   0.684   5.307   2.235  0.1647  0.8279 -0.1217
 3123TIP3    H130860   0.667   5.310   2.141  1.2747  0.9717 -0.3232
 3123TIP3    H230861   0.665   5.217   2.259  0.5660  0.6088 -0.6165
 3124TIP3   OH230862   1.449   1.511   2.087 -0.2903  0.0607  0.0770
 3124TIP3    H130863   1.492   1.584   2.041  0.3518  0.5414  1.4103
 3124TIP3    H230864   1.355   1.527   2.075 -0.1557  1.1516  0.4278
 3125TIP3   OH230865   1.292   2.220  13.170 -0.2842 -0.0463 -0.2086
 3125TIP3    H130866   1.343   2.300  13.177 -1.8754  0.9806 -0.2883
 3125TIP3    H230867   1.232   2.235  13.098 -1.1778 -0.9800  0.3155
 3126TIP3   OH230868   1.134   3.419   2.864 -0.1356  0.1093  0.5091
 3126TIP3    H130869   1.043   3.435   2.836  0.0157  1.3515  0.6696
 3126TIP3    H230870   1.173   3.507   2.867  1.8643 -0.5983 -2.1989
 3127TIP3   OH230871   2.209   1.407  15.641  0.3074 -0.3931 -0.0891
 3127TIP3    H130872   2.183   1.481  15.695  0.7600 -0.4251  0.1722
 3127TIP3    H230873   2.259   1.350  15.700  0.3685 -0.6725 -0.4095
 3128TIP3   OH230874   2.707   3.368  15.432 -0.5352  0.2226 -0.0914
 3128TIP3    H130875   2.693   3.453  15.474  0.8579  1.6119 -2.3628
 3128TIP3    H230876   2.800   3.350  15.446 -0.6130 -0.4657 -0.4642
 3129TIP3   OH230877   0.299   1.217  16.756 -0.2391 -0.4172 -0.1449
 3129TIP3    H130878   0.284   1.151  16.689  1.0585 -0.7955 -0.0858
 3129TIP3    H230879   0.342   1.170  16.827  1.0898  0.5500 -0.2793
 3130TIP3   OH230880   4.274   4.418  13.994  0.3316  0.2661 -0.0683
 3130TIP3    H130881   4.185   4.390  14.012  0.7435 -1.6717 -0.8634
 3130TIP3    H230882   4.267   4.474  13.917 -0.3960  1.5819  0.9410
 3131TIP3   OH230883   5.573   2.510   1.328 -0.0367 -0.0550 -0.5376
 3131TIP3    H130884   5.626   2.516   1.408  0.0705 -2.0228 -0.4383
 3131TIP3    H230885   5.636   2.488   1.259  0.0594  2.8204 -1.4234
 3132TIP3   OH230886   1.684   5.738   0.626  0.0149  0.4831  0.1746
 3132TIP3    H130887   1.664   5.801   0.696 -0.5755  0.8530 -0.3169
 3132TIP3    H230888   1.624   5.762   0.555  0.3400 -0.1374 -0.3122
 3133TIP3   OH230889   3.225   6.222   2.644 -0.3827  0.3513 -0.3549
 3133TIP3    H130890   3.153   6.269   2.687 -1.0399  0.2816 -1.3742
 3133TIP3    H230891   3.182   6.156   2.590  0.4640  0.1117 -0.7429
 3134TIP3   OH230892   0.907   3.469  14.768 -0.3853 -0.0814 -0.2085
 3134TIP3    H130893   0.822   3.491  14.806 -0.7481 -0.4167 -0.8149
 3134TIP3    H230894   0.965   3.540  14.795 -1.0423  0.5441 -0.4395
 3135TIP3   OH230895   6.706   2.768  13.400  0.2926  0.0109  0.3748
 3135TIP3    H130896   6.686   2.775  13.307  1.0850  0.7205  0.2583
 3135TIP3    H230897   6.652   2.695  13.430 -1.4290  0.9862 -0.2335
 3136TIP3   OH230898   1.238   6.125  16.652  0.3983 -0.0421  0.3767
 3136TIP3    H130899   1.182   6.155  16.581 -0.2234 -2.0077  0.0030
 3136TIP3    H230900   1.325   6.157  16.630  0.2671 -0.8837 -1.4299
 3137TIP3   OH230901   6.153   1.356  13.666 -0.2456  0.2974 -0.2959
 3137TIP3    H130902   6.161   1.390  13.577  0.9191  0.2824 -0.2103
 3137TIP3    H230903   6.176   1.430  13.722  0.0650  0.0118 -0.0437
 3138TIP3   OH230904   1.223   3.206  12.959 -0.2711 -0.0234  0.0702
 3138TIP3    H130905   1.269   3.282  12.922 -1.9842  0.7894 -0.4560
 3138TIP3    H230906   1.135   3.239  12.978 -1.1607 -2.0034 -0.5497
 3139TIP3   OH230907   6.253   5.948   4.252  0.2370  0.1721 -0.4173
 3139TIP3    H130908   6.267   5.885   4.322  0.1918 -0.5325 -1.0245
 3139TIP3    H230909   6.270   5.898   4.172  2.0200  1.4075 -0.8518
 3140TIP3   OH230910   6.008   2.696   3.423 -0.0661  0.2383 -0.3222
 3140TIP3    H130911   6.003   2.601   3.436  2.7221  0.2505  1.2142
 3140TIP3    H230912   5.970   2.733   3.502  0.7777  0.3630  0.0371
 3141TIP3   OH230913   0.738   0.517  16.643  0.2909 -0.4677 -0.0898
 3141TIP3    H130914   0.769   0.433  16.610  2.0835 -0.3390  1.1657
 3141TIP3    H230915   0.812   0.551  16.695 -0.3644  1.9157 -0.6512
 3142TIP3   OH230916   0.855   2.669  10.969 -0.0277  0.0569  0.5615
 3142TIP3    H130917   0.889   2.642  10.884 -2.1420 -1.6779  0.2297
 3142TIP3    H230918   0.805   2.749  10.951 -1.1346 -0.7455  0.0148
 3143TIP3   OH230919   3.444   2.801  14.940 -0.2532 -0.3865  0.0563
 3143TIP3    H130920   3.468   2.723  14.891 -1.4827  1.2592 -3.3635
 3143TIP3    H230921   3.522   2.857  14.935 -0.3613 -0.2420 -0.0315
 3144TIP3   OH230922   3.674   3.201   2.106  0.3995  0.0496  0.1302
 3144TIP3    H130923   3.609   3.211   2.175  0.8816  2.3083  0.2993
 3144TIP3    H230924   3.637   3.136   2.047 -1.0096 -0.2939  1.3678
 3145TIP3   OH230925   5.780   6.507   2.761  0.1657 -0.4682 -0.5105
 3145TIP3    H130926   5.721   6.550   2.823 -0.5388 -2.1063 -0.0140
 3145TIP3    H230927   5.733   6.508   2.678  1.3403  2.2254 -1.2041
 3146TIP3   OH230928   3.209   5.711  14.503  0.2849 -0.0190  0.2481
 3146TIP3    H130929   3.268   5.661  14.447 -0.2775  0.4931 -0.8248
 3146TIP3    H230930   3.180   5.784  14.448 -1.9976 -0.7171  0.4591
 3147TIP3   OH230931   5.446   5.270   3.330  0.3887 -0.5304  0.3586
 3147TIP3    H130932   5.448   5.337   3.398  2.6617  0.2919 -0.4797
 3147TIP3    H230933   5.402   5.311   3.256  1.9912  0.1674 -0.2382
 3148TIP3   OH230934   5.336   5.721   1.511 -0.4208  0.2552 -0.5769
 3148TIP3    H130935   5.389   5.763   1.578  1.4325 -0.2240 -1.7270
 3148TIP3    H230936   5.249   5.715   1.550  0.3573  1.0416  1.3233
 3149TIP3   OH230937   1.507   3.702   4.849  0.0087  0.0254  0.1523
 3149TIP3    H130938   1.557   3.755   4.911 -0.2845  1.6373 -0.9402
 3149TIP3    H230939   1.552   3.618   4.847  1.4378  0.7579  0.7333
 3150TIP3   OH230940   0.237   5.204  13.491  0.0014  0.4051 -0.3037
 3150TIP3    H130941   0.175   5.242  13.553 -0.0387 -0.7818  0.4085
 3150TIP3    H230942   0.224   5.110  13.499 -0.0085  0.2290 -2.1354
 3151TIP3   OH230943   1.269   4.837  14.315 -0.1131  0.5042  0.4249
 3151TIP3    H130944   1.196   4.828  14.255  0.9816 -0.3053 -0.8247
 3151TIP3    H230945   1.332   4.892  14.268  1.2661 -1.1374  0.2948
 3152TIP3   OH230946   3.631   1.737   0.853 -0.0959  0.1126  0.4037
 3152TIP3    H130947   3.617   1.794   0.928  1.0875  1.6984 -0.5420
 3152TIP3    H230948   3.543   1.724   0.816 -0.3008  2.0107  0.1581
 3153TIP3   OH230949   2.662   5.643   2.117 -0.3993  0.1487  0.0046
 3153TIP3    H130950   2.652   5.688   2.033  0.5395 -0.4511 -0.4291
 3153TIP3    H230951   2.590   5.580   2.120 -0.4581  0.2029 -0.3191
 3154TIP3   OH230952   0.276   0.722  16.006  0.1903  0.1175 -0.6360
 3154TIP3    H130953   0.287   0.816  15.989  0.0701  0.3314  0.4519
 3154TIP3    H230954   0.264   0.716  16.100  0.4551 -1.0246 -0.6697
 3155TIP3   OH230955   2.546   2.010   2.512 -0.2507  0.1654  0.8467
 3155TIP3    H130956   2.615   2.030   2.575 -0.2602 -0.3124  1.0187
 3155TIP3    H230957   2.529   1.916   2.525  0.0462 -0.0393 -0.1707
 3156TIP3   OH230958   1.853   5.765  12.478 -0.0555  0.6461 -0.1592
 3156TIP3    H130959   1.788   5.717  12.530  0.1936  0.0591 -0.3918
 3156TIP3    H230960   1.888   5.831  12.538 -0.5378  0.6626  0.1015
 3157TIP3   OH230961   5.050   1.531  16.270  0.0553  0.5068  0.1612
 3157TIP3    H130962   5.139   1.563  16.258 -0.2599  1.3907  0.1114
 3157TIP3    H230963   4.995   1.594  16.223 -0.7104  0.7534  1.3609
 3158TIP3   OH230964   6.770   1.475   4.044 -0.1389 -0.1354  0.1747
 3158TIP3    H130965   6.811   1.538   3.985  2.6882 -2.2706 -0.2447
 3158TIP3    H230966   6.732   1.528   4.113  0.8402  2.1111 -0.9707
 3159TIP3   OH230967   4.544   2.104  12.288  0.9983  0.0702 -0.1619
 3159TIP3    H130968   4.605   2.060  12.229  2.7441  1.1519  0.7467
 3159TIP3    H230969   4.465   2.118  12.237  2.3140  0.6033 -2.1142
 3160TIP3   OH230970   6.690   1.231   2.271 -0.3032 -0.5355 -0.2028
 3160TIP3    H130971   6.699   1.288   2.195 -1.2800 -0.4367 -0.2472
 3160TIP3    H230972   6.659   1.148   2.235 -0.5483 -0.5579  0.0639
 3161TIP3   OH230973   3.291   4.923  13.002 -0.2102  0.1930 -0.3123
 3161TIP3    H130974   3.255   4.969  12.926 -0.5633  1.9194  0.8728
 3161TIP3    H230975   3.261   4.833  12.991  0.7348  0.1325 -2.8324
 3162TIP3   OH230976   5.912   5.812  10.749  0.4619 -0.3486  0.3446
 3162TIP3    H130977   5.935   5.894  10.703 -0.6858 -0.3580 -0.2708
 3162TIP3    H230978   5.996   5.774  10.772  1.0820 -0.1791 -1.4977
 3163TIP3   OH230979   1.001   5.610  16.956  0.3082  0.3680 -0.5582
 3163TIP3    H130980   0.949   5.667  17.013 -1.8331 -1.5530 -0.5197
 3163TIP3    H230981   1.086   5.653  16.951 -1.1096  3.3600 -0.2351
 3164TIP3   OH230982   4.208   0.672   4.214  0.0122 -0.5115 -0.0942
 3164TIP3    H130983   4.221   0.766   4.202 -0.0948 -0.5250 -0.3158
 3164TIP3    H230984   4.131   0.652   4.161 -0.0865 -0.6872  0.1151
 3165TIP3   OH230985   4.652   1.755   5.426  0.2872 -0.2835 -0.8827
 3165TIP3    H130986   4.669   1.679   5.369  0.9063 -0.3084 -0.6654
 3165TIP3    H230987   4.738   1.793   5.442  0.2739 -1.0023  1.0430
 3166TIP3   OH230988   1.939   4.065   2.131 -0.1081  0.6925 -0.2764
 3166TIP3    H130989   1.876   4.136   2.145  0.3244  1.4254 -1.9212
 3166TIP3    H230990   1.918   4.030   2.045 -0.3204 -1.2134  0.5264
 3167TIP3   OH230991   1.717   2.980   1.487 -0.2877 -0.3888 -0.4802
 3167TIP3    H130992   1.729   3.072   1.511 -0.4544 -0.2454 -0.9285
 3167TIP3    H230993   1.664   2.943   1.557 -0.2633 -0.1280 -0.3254
 3168TIP3   OH230994   2.578   2.174   4.554 -0.1801 -0.2359 -0.3453
 3168TIP3    H130995   2.586   2.123   4.635  0.5515 -0.4075 -0.5220
 3168TIP3    H230996   2.486   2.201   4.552  0.2193  1.3501  1.5036
 3169TIP3   OH230997   5.881   2.137   5.860  0.3345 -0.1411 -0.2335
 3169TIP3    H130998   5.800   2.185   5.877  0.1149 -0.3863 -0.5641
 3169TIP3    H230999   5.919   2.122   5.946 -0.1444 -0.3131 -0.0490
 3170TIP3   OH231000   0.369   5.103   0.092  0.0794 -0.2420 -0.9589
 3170TIP3    H131001   0.309   5.137   0.157 -1.2313 -0.3142 -2.1047
 3170TIP3    H231002   0.406   5.024   0.131 -1.0047 -0.5094 -0.4787
 3171TIP3   OH231003   5.757   1.872  10.839  0.3446  0.6832  0.6494
 3171TIP3    H131004   5.770   1.916  10.756 -0.8325  0.0149  0.0993
 3171TIP3    H231005   5.695   1.802  10.820  1.6007 -0.7524  1.6582
 3172TIP3   OH231006   2.948   5.116  11.353  0.2701 -0.1887 -0.2307
 3172TIP3    H131007   2.970   5.053  11.284  2.1398 -1.5304  1.5449
 3172TIP3    H231008   2.929   5.062  11.430  0.6511  1.3632  0.9764
 3173TIP3   OH231009   4.397   1.071  14.451 -0.1208 -0.1622 -0.0495
 3173TIP3    H131010   4.311   1.078  14.492 -0.5493 -1.1434 -0.7701
 3173TIP3    H231011   4.410   0.977  14.439  1.1001 -0.0254  0.1440
 3174TIP3   OH231012   2.714   1.169   1.594  0.3235 -0.3716 -0.8098
 3174TIP3    H131013   2.807   1.181   1.610  0.4079 -1.5116 -0.4639
 3174TIP3    H231014   2.700   1.075   1.598 -1.3134 -0.0659  1.7810
 3175TIP3   OH231015   2.234   1.119  14.578  0.5517  0.0517 -0.4949
 3175TIP3    H131016   2.249   1.197  14.524  1.0421  1.4538  1.5677
 3175TIP3    H231017   2.157   1.077  14.540 -2.1421  3.7045  0.6282
 3176TIP3   OH231018   5.740   3.442   3.726  0.2728 -0.2077 -0.5899
 3176TIP3    H131019   5.745   3.537   3.725  0.8117 -0.2358 -0.5354
 3176TIP3    H231020   5.811   3.413   3.669  0.4001 -0.5867 -0.2449
 3177TIP3   OH231021   0.425   5.238   2.935  0.0371 -0.4004 -0.2496
 3177TIP3    H131022   0.337   5.239   2.973 -0.0469  2.3528 -0.4425
 3177TIP3    H231023   0.415   5.190   2.853 -1.3110 -0.0297 -0.3162
 3178TIP3   OH231024   5.588   0.996   3.798  0.4085  0.3068  0.1797
 3178TIP3    H131025   5.537   0.920   3.772  1.9630 -1.2279  1.5518
 3178TIP3    H231026   5.589   0.994   3.894  2.0071  0.9898  0.2052
 3179TIP3   OH231027   4.258   5.934   4.085  0.4465  0.0071  0.3347
 3179TIP3    H131028   4.225   5.969   4.003  1.2993  0.5284  0.1998
 3179TIP3    H231029   4.236   6.000   4.151 -1.7023 -1.1671  0.8244
 3180TIP3   OH231030   6.596   2.255  14.331 -0.0037  0.4969 -0.5715
 3180TIP3    H131031   6.665   2.266  14.397  0.0203 -0.5809 -0.4077
 3180TIP3    H231032   6.515   2.277  14.377 -0.1865 -1.9932  0.3385
 3181TIP3   OH231033   3.258   6.440  14.330 -0.1227 -0.0417 -0.3230
 3181TIP3    H131034   3.296   6.525  14.309 -0.0982 -0.5149 -2.2515
 3181TIP3    H231035   3.175   6.438  14.282 -0.7957 -0.5613  0.8293
 3182TIP3   OH231036   4.204   4.372  12.459 -0.0136 -0.4182  0.0598
 3182TIP3    H131037   4.121   4.357  12.504 -0.1499  2.5513  0.8926
 3182TIP3    H231038   4.268   4.383  12.530  0.5876  0.0174 -0.5414
 3183TIP3   OH231039   3.655   0.978  14.150  0.0853 -0.1812  0.3905
 3183TIP3    H131040   3.681   1.069  14.161  3.0104 -0.9408  0.1725
 3183TIP3    H231041   3.589   0.980  14.080  2.0135  1.4670 -1.4437
 3184TIP3   OH231042   6.323   5.599   3.855  0.2508 -0.1889  0.3634
 3184TIP3    H131043   6.355   5.628   3.769  0.2791  1.8218  1.0236
 3184TIP3    H231044   6.246   5.545   3.835  0.8293 -0.5419 -0.9695
 3185TIP3   OH231045   4.393   4.771   6.195  0.5620  0.2013  0.3464
 3185TIP3    H131046   4.477   4.784   6.151 -0.9603  2.4796 -2.0043
 3185TIP3    H231047   4.383   4.847   6.253 -0.9060  1.1623 -1.1251
 3186TIP3   OH231048   6.714   2.279   6.582  0.1949 -0.1870 -0.0320
 3186TIP3    H131049   6.675   2.233   6.657 -1.2084 -0.6163 -0.9976
 3186TIP3    H231050   6.708   2.372   6.605  3.1182 -0.4227  1.9648
 3187TIP3   OH231051   0.535   2.661   2.045 -0.0045  0.1822 -0.3424
 3187TIP3    H131052   0.510   2.569   2.044  0.0972  0.1059  1.4606
 3187TIP3    H231053   0.459   2.707   2.009 -1.3587 -0.3527  1.7290
 3188TIP3   OH231054   4.308   0.319   2.345 -0.4385 -0.3234  0.1693
 3188TIP3    H131055   4.263   0.400   2.323  1.1691  0.5932  0.1329
 3188TIP3    H231056   4.396   0.330   2.308 -0.0135 -1.8240  0.6886
 3189TIP3   OH231057   2.243   1.630  15.787 -0.4159 -0.4378  0.3336
 3189TIP3    H131058   2.173   1.688  15.816 -0.1610  0.6618 -1.1759
 3189TIP3    H231059   2.324   1.670  15.821 -0.3133 -0.3510 -0.0064
 3190TIP3   OH231060   1.496   2.117  13.521 -0.6349  0.5772  0.2908
 3190TIP3    H131061   1.541   2.076  13.595  0.0123 -1.5163 -1.2218
 3190TIP3    H231062   1.537   2.203  13.513  1.8576 -0.5663  0.1231
 3191TIP3   OH231063   0.868   2.142  13.763  0.3016 -0.0255 -0.0650
 3191TIP3    H131064   0.865   2.049  13.739 -1.3394  0.6092 -2.4464
 3191TIP3    H231065   0.898   2.187  13.684 -0.6758  1.6671  0.4978
 3192TIP3   OH231066   3.747   5.900   2.631  0.6211 -0.3020  0.3225
 3192TIP3    H131067   3.805   5.972   2.607  1.7541 -1.5379 -0.7072
 3192TIP3    H231068   3.772   5.879   2.721  1.5619 -0.6059 -0.0002
 3193TIP3   OH231069   6.433   2.506  15.480  0.2290  0.0783 -0.2012
 3193TIP3    H131070   6.430   2.582  15.538  0.6403  0.3942 -0.5931
 3193TIP3    H231071   6.385   2.438  15.527  1.4684  0.0047  0.9680
 3194TIP3   OH231072   1.874   3.415  13.138 -0.8422 -0.0829  0.0110
 3194TIP3    H131073   1.882   3.429  13.232  1.9791  0.2499 -0.2469
 3194TIP3    H231074   1.924   3.486  13.098 -0.9933 -0.9176 -1.7182
 3195TIP3   OH231075   2.518   3.618   3.207 -0.0590  0.1540 -0.3834
 3195TIP3    H131076   2.459   3.580   3.272  0.3985 -0.7108 -0.4747
 3195TIP3    H231077   2.560   3.692   3.252  1.0520 -1.0844  0.6320
 3196TIP3   OH231078   4.696   6.379  14.532  0.5159 -0.4737 -0.1024
 3196TIP3    H131079   4.708   6.455  14.589 -2.7390 -0.5239  0.7391
 3196TIP3    H231080   4.717   6.304  14.587  0.2277 -0.3680  0.1524
 3197TIP3   OH231081   3.259   6.212  12.529 -0.7041  0.1739 -0.1519
 3197TIP3    H131082   3.339   6.225  12.580 -0.5093  2.2011 -0.9248
 3197TIP3    H231083   3.199   6.169  12.590  0.9452 -1.3611  0.4465
 3198TIP3   OH231084   2.932   5.882  10.723 -0.0512 -0.3418  0.5829
 3198TIP3    H131085   3.022   5.864  10.696 -0.7167 -0.8467 -1.3883
 3198TIP3    H231086   2.913   5.815  10.789  0.8274 -0.6042  0.5764
 3199TIP3   OH231087   1.698   4.783   5.702 -0.4037  0.4127 -0.1575
 3199TIP3    H131088   1.759   4.719   5.664 -0.9466 -1.0933  1.4289
 3199TIP3    H231089   1.744   4.817   5.779 -0.9159  0.4518  0.1298
 3200TIP3   OH231090   1.161   4.971   2.985 -0.0940  0.1905 -0.3687
 3200TIP3    H131091   1.230   4.961   3.051 -0.0658  1.0605 -0.2609
 3200TIP3    H231092   1.200   5.029   2.919 -0.7408  0.7361 -0.2761
 3201TIP3   OH231093   6.138   6.422  13.889 -0.5205  0.7066 -0.3599
 3201TIP3    H131094   6.136   6.507  13.933  2.3070  1.3272 -1.3598
 3201TIP3    H231095   6.162   6.359  13.957 -1.1976  0.8980  0.0602
 3202TIP3   OH231096   3.628   1.338   1.188  0.7276 -0.1030 -0.0932
 3202TIP3    H131097   3.697   1.405   1.184  0.6112 -0.0485 -1.9496
 3202TIP3    H231098   3.672   1.257   1.162  0.0031  0.0457 -1.9104
 3203TIP3   OH231099   6.706   5.080   3.752 -0.2119  0.2284  0.0485
 3203TIP3    H131100   6.725   5.122   3.836  0.8400  0.8722 -0.5022
 3203TIP3    H231101   6.624   5.032   3.767  0.4806 -0.4849  1.7335
 3204TIP3   OH231102   2.416   2.543  13.608 -0.1016  0.0892  0.0344
 3204TIP3    H131103   2.473   2.611  13.573  1.7526 -1.3964  0.0560
 3204TIP3    H231104   2.399   2.569  13.698  2.1786 -0.4134  0.6491
 3205TIP3   OH231105   0.694   3.661   0.699 -0.2155  0.3578 -0.2563
 3205TIP3    H131106   0.776   3.613   0.688  0.6402  1.3113  1.7263
 3205TIP3    H231107   0.626   3.596   0.681  0.9391 -1.1109  0.5572
 3206TIP3   OH231108   5.910   3.448   3.325 -0.1499  0.7813  0.1789
 3206TIP3    H131109   5.904   3.360   3.288  1.2334  1.3815 -1.5692
 3206TIP3    H231110   5.820   3.477   3.332 -0.5726 -0.3840 -0.1998
 3207TIP3   OH231111   3.404   5.605  14.347  0.2785 -0.3291 -0.5869
 3207TIP3    H131112   3.469   5.673  14.365  0.2318 -0.2774 -0.6128
 3207TIP3    H231113   3.384   5.614  14.254  2.4169 -2.2700 -1.2731
 3208TIP3   OH231114   3.921   3.789  11.916 -0.2222  0.3195 -0.3749
 3208TIP3    H131115   3.938   3.778  11.822 -1.3907  2.3156 -0.8607
 3208TIP3    H231116   3.852   3.725  11.936 -0.3525  0.2575 -1.0114
 3209TIP3   OH231117   0.023   2.513   3.408 -0.1501 -0.4724 -0.3400
 3209TIP3    H131118   0.061   2.467   3.483 -1.5213 -0.7371  0.1894
 3209TIP3    H231119   0.098   2.556   3.367  0.6276 -0.4275  1.1000
 3210TIP3   OH231120   6.135   5.543   4.874 -0.3153 -0.3993 -0.4108
 3210TIP3    H131121   6.117   5.463   4.923 -0.6741 -0.2535 -0.3074
 3210TIP3    H231122   6.215   5.578   4.914 -0.7420 -0.1515  0.2273
 3211TIP3   OH231123   6.259   4.502   3.436 -0.5335 -0.5752  0.0779
 3211TIP3    H131124   6.274   4.508   3.342 -1.8615  1.7346 -0.0156
 3211TIP3    H231125   6.179   4.451   3.444 -0.7268 -0.2906 -0.0547
 3212TIP3   OH231126   3.053   1.905   1.078  0.3748  0.5105  0.5786
 3212TIP3    H131127   3.013   1.985   1.046  0.1215 -0.9324 -2.8647
 3212TIP3    H231128   3.120   1.884   1.013 -0.6709 -2.9351  0.5141
 3213TIP3   OH231129   0.583   3.753  15.143 -0.1415  0.1231 -0.4197
 3213TIP3    H131130   0.561   3.684  15.081 -2.4778  0.8588 -0.4608
 3213TIP3    H231131   0.645   3.809  15.097  0.9159 -1.3119 -0.7725
 3214TIP3   OH231132   1.494   1.041   2.778 -0.1688 -0.3371 -0.0828
 3214TIP3    H131133   1.538   0.961   2.750  2.3599  0.7429  0.5842
 3214TIP3    H231134   1.428   1.013   2.840 -0.0541 -2.0049 -0.7045
 3215TIP3   OH231135   1.224   5.774   1.274 -0.2758  0.0499 -0.3382
 3215TIP3    H131136   1.245   5.780   1.368  0.6848  0.2481 -0.5565
 3215TIP3    H231137   1.212   5.865   1.247  2.3141  0.2263 -1.0237
 3216TIP3   OH231138   4.027   0.725  12.599  0.1871 -0.4079 -0.3993
 3216TIP3    H131139   4.020   0.716  12.694 -0.5370  0.8724 -0.3168
 3216TIP3    H231140   3.942   0.762  12.572  1.9871  3.5798 -0.9634
 3217TIP3   OH231141   0.791   0.805  17.178  0.6405 -0.0322  0.1020
 3217TIP3    H131142   0.842   0.769  17.250  0.5741  1.1784  0.7648
 3217TIP3    H231143   0.709   0.833  17.219  0.8177  1.1552 -0.3551
 3218TIP3   OH231144   5.213   4.069   6.515 -0.2284  0.2336 -0.3641
 3218TIP3    H131145   5.263   4.125   6.575  0.0354 -0.7394  0.3330
 3218TIP3    H231146   5.130   4.053   6.561 -0.9758  1.3810 -1.2755
 3219TIP3   OH231147   2.833   1.700  17.099  0.7701  0.0523  0.3791
 3219TIP3    H131148   2.912   1.721  17.147  1.0059 -0.7254  0.3339
 3219TIP3    H231149   2.859   1.632  17.037  0.5712  1.3030 -1.1353
 3220TIP3   OH231150   2.936   0.994  10.945  1.0221  0.3873  0.2177
 3220TIP3    H131151   2.844   1.016  10.929  1.2584  1.4171  0.2125
 3220TIP3    H231152   2.942   0.981  11.039  0.9261  0.6334  0.2587
 3221TIP3   OH231153   0.956   4.836  11.299 -0.3655 -0.2747  0.3290
 3221TIP3    H131154   0.869   4.833  11.340 -0.8049 -1.7821 -0.6428
 3221TIP3    H231155   0.958   4.758  11.244  0.4225  1.4232 -2.0901
 3222TIP3   OH231156   5.234   4.219  10.487 -0.1386 -0.1991 -0.2085
 3222TIP3    H131157   5.272   4.259  10.565  0.3745  1.1916 -1.1313
 3222TIP3    H231158   5.149   4.261  10.478  0.2171  0.3858 -0.9349
 3223TIP3   OH231159   1.760   2.775  16.368  0.1222 -0.3927  0.2124
 3223TIP3    H131160   1.758   2.771  16.273  0.3026  1.5676  0.1116
 3223TIP3    H231161   1.849   2.805  16.389 -0.2225  0.1324  0.9474
 3224TIP3   OH231162   5.072   0.936  15.052  0.3852 -0.1722  0.2334
 3224TIP3    H131163   5.120   1.018  15.056 -1.7409  1.1131  0.4381
 3224TIP3    H231164   5.042   0.920  15.141 -2.4067  0.8405 -0.4823
 3225TIP3   OH231165   0.931   6.601   2.746 -0.5782 -0.6279 -0.0194
 3225TIP3    H131166   0.892   6.637   2.667  0.5707 -0.5217 -0.5535
 3225TIP3    H231167   0.874   6.630   2.817 -0.4718  1.0010 -0.5920
 3226TIP3   OH231168   2.146   2.236  11.997  0.3409 -0.0146  0.4307
 3226TIP3    H131169   2.180   2.202  12.079 -1.0358 -0.9480  0.6223
 3226TIP3    H231170   2.083   2.171  11.968  0.3180  0.6354 -1.0300
 3227TIP3   OH231171   3.407   4.656   6.135 -0.9691  0.3294  0.0868
 3227TIP3    H131172   3.375   4.571   6.167  0.9738 -0.5943 -0.3643
 3227TIP3    H231173   3.328   4.710   6.129 -2.1196 -1.1753  1.1942
 3228TIP3   OH231174   5.749   1.646   0.702  0.0064  0.5078 -0.1506
 3228TIP3    H131175   5.813   1.658   0.633 -0.0623 -1.8459 -0.6616
 3228TIP3    H231176   5.707   1.731   0.711  0.1908  0.9184 -2.8228
 3229TIP3   OH231177   6.455   1.156   3.156 -0.8653 -0.5119  0.1643
 3229TIP3    H131178   6.413   1.218   3.096 -1.0197  0.1471  0.9428
 3229TIP3    H231179   6.400   1.157   3.234 -0.7131 -1.4349  0.2850
 3230TIP3   OH231180   5.052   3.243  12.530  0.1184  0.1509 -0.4971
 3230TIP3    H131181   5.137   3.277  12.558 -0.0273 -1.8683  2.6153
 3230TIP3    H231182   5.072   3.181  12.460  1.1786 -0.0428 -0.0310
 3231TIP3   OH231183   4.027   6.415   3.565 -0.2776  0.2912  0.3181
 3231TIP3    H131184   3.966   6.425   3.492  0.3530 -0.0542 -0.2609
 3231TIP3    H231185   3.980   6.452   3.640 -1.4597 -0.5349  0.0192
 3232TIP3   OH231186   2.843   6.280  12.110  0.0378  0.0020  0.0408
 3232TIP3    H131187   2.827   6.237  12.194 -0.1121  1.2917  0.6845
 3232TIP3    H231188   2.860   6.208  12.049 -2.1303 -1.1095  0.6629
 3233TIP3   OH231189   6.328   3.054   4.183  0.0186 -0.3013  0.5878
 3233TIP3    H131190   6.387   3.105   4.126  1.1976 -0.3903  1.7180
 3233TIP3    H231191   6.338   2.964   4.152  1.4321 -0.5008  1.5625
 3234TIP3   OH231192   3.506   0.713  15.868  0.1851 -0.5309 -0.0611
 3234TIP3    H131193   3.507   0.799  15.910 -0.7111  0.8108 -2.6747
 3234TIP3    H231194   3.521   0.651  15.940  0.6298  1.7723  1.8997
 3235TIP3   OH231195   5.828   1.298   5.218 -0.1417  0.2181  1.0501
 3235TIP3    H131196   5.922   1.309   5.199 -0.1700  0.5622  1.0984
 3235TIP3    H231197   5.826   1.254   5.303 -0.0214  1.6401  1.8136
 3236TIP3   OH231198   1.337   0.394  16.422  0.1540  0.4037 -0.2887
 3236TIP3    H131199   1.257   0.446  16.414 -0.6881 -0.8658 -0.2688
 3236TIP3    H231200   1.306   0.304  16.430  1.6137 -0.1545 -0.8481
 3237TIP3   OH231201   4.156   0.818  15.075 -0.4712 -0.0201  0.2273
 3237TIP3    H131202   4.134   0.800  15.166 -1.8027 -0.7760 -0.2247
 3237TIP3    H231203   4.170   0.912  15.071 -1.0293  0.0976  1.0886
 3238TIP3   OH231204   1.242   4.986   2.569 -0.1617  0.4089 -0.2140
 3238TIP3    H131205   1.176   4.924   2.540  0.2852 -0.4438  0.5547
 3238TIP3    H231206   1.293   5.006   2.490 -0.2981 -0.2123 -0.4606
 3239TIP3   OH231207   4.859   0.858   6.225  0.4110 -0.5404  0.1612
 3239TIP3    H131208   4.764   0.863   6.234  0.3758 -1.4264  0.3170
 3239TIP3    H231209   4.873   0.809   6.144  0.7296 -1.6502  0.8780
 3240TIP3   OH231210   0.403   2.264  13.233  0.2428  0.4405 -0.5950
 3240TIP3    H131211   0.429   2.355  13.247 -0.8015  0.7086 -0.3534
 3240TIP3    H231212   0.428   2.246  13.142 -0.4571  1.2775 -0.9606
 3241TIP3   OH231213   5.443   6.088   3.554  0.2042  0.2612 -0.0516
 3241TIP3    H131214   5.376   6.051   3.496  1.7367 -1.3327 -0.8370
 3241TIP3    H231215   5.424   6.050   3.639  1.4928 -2.0568 -0.7576
 3242TIP3   OH231216   2.037   6.385   3.690 -0.0758 -0.4413 -0.1701
 3242TIP3    H131217   2.124   6.358   3.661 -0.7724 -1.2526 -1.5444
 3242TIP3    H231218   2.042   6.386   3.786  1.2731 -1.0178 -0.2301
 3243TIP3   OH231219   4.770   6.078  16.652  0.0116  0.5561 -0.0290
 3243TIP3    H131220   4.857   6.108  16.625  0.3109 -0.1060  0.1998
 3243TIP3    H231221   4.746   6.013  16.587 -0.1598  0.4776  0.1156
 3244TIP3   OH231222   1.401   3.232   0.170 -0.3643 -0.9356 -0.0700
 3244TIP3    H131223   1.323   3.180   0.191 -0.7807  0.0289  0.7619
 3244TIP3    H231224   1.473   3.169   0.172 -0.4500 -0.9858  3.6824
 3245TIP3   OH231225   2.809   6.304   3.189  0.0606 -0.3449  0.2897
 3245TIP3    H131226   2.722   6.314   3.228 -0.1898 -1.2297 -0.0443
 3245TIP3    H231227   2.841   6.221   3.224  0.7495 -0.0572  0.3542
 3246TIP3   OH231228   1.342   5.673  11.901  0.1639 -0.4607  0.0362
 3246TIP3    H131229   1.352   5.637  11.813 -1.7911  0.5634 -0.6600
 3246TIP3    H231230   1.401   5.748  11.903 -0.2389 -0.1116 -0.6559
 3247TIP3   OH231231   0.743   2.836  11.768 -0.1208  0.5573 -0.4396
 3247TIP3    H131232   0.674   2.810  11.707 -0.9142 -0.6303  0.9113
 3247TIP3    H231233   0.780   2.753  11.799 -0.1632  1.0973  1.1331
 3248TIP3   OH231234   1.516   3.608  12.732 -0.2809  0.2100 -0.2999
 3248TIP3    H131235   1.575   3.677  12.700 -1.1558  0.8201 -0.6041
 3248TIP3    H231236   1.568   3.528  12.726  0.1768  0.5862 -1.5496
 3249TIP3   OH231237   5.854   6.590   0.274  0.2240 -0.2326  0.0399
 3249TIP3    H131238   5.833   6.554   0.188 -0.0672 -0.2141  0.0995
 3249TIP3    H231239   5.813   6.529   0.336  0.0280  0.0079  0.1503
 3250TIP3   OH231240   6.074   1.331   5.979 -0.0282  0.7333  0.2897
 3250TIP3    H131241   6.083   1.343   5.885  0.2691  0.7222  0.3177
 3250TIP3    H231242   6.154   1.285   6.006 -1.4503 -1.9989  0.0630
 3251TIP3   OH231243   1.178   1.871   2.282  0.0433 -0.4529 -0.7377
 3251TIP3    H131244   1.125   1.871   2.361 -0.9594  1.3211 -1.3646
 3251TIP3    H231245   1.117   1.846   2.212  0.3852  0.0632 -1.2346
 3252TIP3   OH231246   5.204   4.507  12.869 -0.3403  0.2193  0.2290
 3252TIP3    H131247   5.133   4.478  12.812 -1.6186 -4.0092  3.7000
 3252TIP3    H231248   5.279   4.454  12.843 -0.0100  0.6832  0.2352
 3253TIP3   OH231249   1.462   5.107  12.813 -0.1326 -0.0557  0.2361
 3253TIP3    H131250   1.487   5.190  12.853 -0.1878 -0.2478  0.6670
 3253TIP3    H231251   1.536   5.049  12.830 -0.1877 -0.1582  0.1233
 3254TIP3   OH231252   4.608   6.279   2.684  0.4932 -0.5410 -0.0884
 3254TIP3    H131253   4.636   6.367   2.661  0.8501 -1.2601 -2.6405
 3254TIP3    H231254   4.569   6.245   2.603 -1.4336 -2.0150  1.4252
 3255TIP3   OH231255   6.464   0.932   5.369  0.2118  0.6442 -0.3788
 3255TIP3    H131256   6.488   0.854   5.419 -0.3676  0.9168  0.3363
 3255TIP3    H231257   6.478   1.005   5.430  0.8926  1.1106 -1.0926
 3256TIP3   OH231258   5.719   0.177   0.856  0.0117 -0.0234 -0.8498
 3256TIP3    H131259   5.731   0.218   0.770  1.5448 -0.3003 -0.7889
 3256TIP3    H231260   5.768   0.095   0.850  1.7269  0.8316  0.9031
 3257TIP3   OH231261   0.978   6.300   0.495 -0.2895 -0.4170 -0.3856
 3257TIP3    H131262   0.983   6.391   0.522  0.0235 -0.7969  0.8795
 3257TIP3    H231263   1.061   6.283   0.449 -1.5755  0.7290 -3.2643
 3258TIP3   OH231264   5.918   6.709  16.732  0.1641 -0.6159 -0.2715
 3258TIP3    H131265   5.942   6.761  16.808 -1.3225 -0.1082 -0.1450
 3258TIP3    H231266   5.936   6.766  16.657  1.5489 -1.0859 -0.3205
 3259TIP3   OH231267   4.406   3.576  10.899 -0.8224  0.2448 -0.1875
 3259TIP3    H131268   4.374   3.623  10.822 -0.1059  1.9957  0.5708
 3259TIP3    H231269   4.494   3.548  10.875 -0.5789  0.8373  0.0175
 3260TIP3   OH231270   5.009   3.179   0.196 -0.4325  0.8765 -0.3073
 3260TIP3    H131271   5.012   3.243   0.125 -0.5335 -0.3716 -1.4656
 3260TIP3    H231272   4.921   3.142   0.192  0.0695 -0.3153 -0.5523
 3261TIP3   OH231273   4.255   1.915   1.287  0.0499  0.6878 -0.1761
 3261TIP3    H131274   4.294   1.869   1.213 -1.4226  2.2179 -1.9396
 3261TIP3    H231275   4.212   1.847   1.338  1.3611 -0.4282 -0.5355
 3262TIP3   OH231276   4.568   1.261  17.266  0.6670 -0.0501  0.1195
 3262TIP3    H131277   4.600   1.351  17.264  0.1196  0.1463 -2.4410
 3262TIP3    H231278   4.548   1.241  17.174 -1.5034 -1.9536  0.9592
 3263TIP3   OH231279   4.044   2.516  11.806 -0.8529 -0.4391  0.1004
 3263TIP3    H131280   4.118   2.465  11.774 -0.3523  1.2874 -1.5747
 3263TIP3    H231281   3.971   2.454  11.806  0.0701 -1.5572 -0.4068
 3264TIP3   OH231282   1.634   0.286  14.024  0.1567  0.0422 -0.6621
 3264TIP3    H131283   1.682   0.324  13.951  0.2853  1.1448 -0.0044
 3264TIP3    H231284   1.625   0.357  14.087 -0.3531 -0.7772  0.2012
 3265TIP3   OH231285   4.938   0.804   0.498 -0.3989 -0.4554  0.2988
 3265TIP3    H131286   4.876   0.736   0.526 -0.7638 -0.3529 -0.2593
 3265TIP3    H231287   4.968   0.775   0.412  1.4629 -1.2621  1.1848
 3266TIP3   OH231288   5.266   1.630   0.681 -0.1620 -0.5386 -0.1396
 3266TIP3    H131289   5.240   1.663   0.595 -1.3447 -0.4827  0.2331
 3266TIP3    H231290   5.211   1.678   0.743 -0.5774 -1.8458  0.5271
 3267TIP3   OH231291   6.081   1.829   3.962 -0.0744 -0.3605  0.2595
 3267TIP3    H131292   5.997   1.869   3.940 -0.2692 -0.5598  0.6418
 3267TIP3    H231293   6.087   1.753   3.904 -0.5304 -0.8116  0.8000
 3268TIP3   OH231294   3.900   1.983  15.112 -0.2193 -0.0669  0.2477
 3268TIP3    H131295   3.981   2.011  15.155 -0.3124  0.6107 -0.0017
 3268TIP3    H231296   3.914   2.002  15.019  0.1286 -1.8860 -0.0758
 3269TIP3   OH231297   0.404   6.815  17.054 -0.0022 -0.0915 -0.4443
 3269TIP3    H131298   0.385   6.876  17.126 -1.5323 -0.6857 -0.3209
 3269TIP3    H231299   0.348   6.740  17.072  0.0166 -0.4832 -1.9678
 3270TIP3   OH231300   0.857   3.584  13.985 -0.9013 -0.1776  0.2801
 3270TIP3    H131301   0.794   3.628  13.928 -0.8338 -2.0650 -1.2946
 3270TIP3    H231302   0.943   3.607  13.948 -0.8723 -1.7640 -0.6885
 3271TIP3   OH231303   3.101   2.608   5.652 -0.0629  0.3759 -0.0778
 3271TIP3    H131304   3.026   2.561   5.688 -0.9890  0.9931 -1.1810
 3271TIP3    H231305   3.158   2.624   5.727 -0.3782 -1.3055  0.5415
 3272TIP3   OH231306   1.649   0.260   1.766  0.0661  0.2992  0.3100
 3272TIP3    H131307   1.709   0.250   1.840  2.5202  3.7874 -1.0798
 3272TIP3    H231308   1.699   0.227   1.691  0.1765  2.8917 -0.8047
 3273TIP3   OH231309   3.490   0.918  16.035 -0.8235 -0.7962  0.8601
 3273TIP3    H131310   3.394   0.918  16.037 -0.8644 -1.6297 -0.6839
 3273TIP3    H231311   3.515   0.984  16.100 -2.4736  1.1768 -0.4556
 3274TIP3   OH231312   1.017   5.214  13.257 -0.5781 -0.4012  0.0073
 3274TIP3    H131313   1.090   5.196  13.198 -0.5663 -0.2320 -0.0297
 3274TIP3    H231314   0.992   5.304  13.237  0.1259  0.0321  1.0028
 3275TIP3   OH231315   2.986   2.794   1.927  0.2945  0.0258  0.2994
 3275TIP3    H131316   3.020   2.777   2.015 -0.2370  1.0546  0.7206
 3275TIP3    H231317   3.003   2.714   1.878  1.5411 -0.1792  1.0504
 3276TIP3   OH231318   5.555   5.948  12.541 -0.3821  0.0629  0.0133
 3276TIP3    H131319   5.601   5.988  12.467  0.4790 -0.8886  0.0299
 3276TIP3    H231320   5.587   5.996  12.617 -2.7893  2.4306 -0.3907
 3277TIP3   OH231321   5.933   2.276  16.788 -0.1863 -0.0203 -0.7168
 3277TIP3    H131322   5.913   2.183  16.791  0.2894 -0.1466 -1.1704
 3277TIP3    H231323   5.940   2.303  16.879  0.3507 -0.5854 -0.5853
 3278TIP3   OH231324   3.339   6.602   5.104 -0.1109 -0.4781 -0.0106
 3278TIP3    H131325   3.392   6.672   5.067 -2.2016  0.5204 -1.1790
 3278TIP3    H231326   3.306   6.638   5.186  1.5582 -1.3633  1.0788
 3279TIP3   OH231327   2.091   2.806   5.951  0.1518 -0.2350  0.0665
 3279TIP3    H131328   2.060   2.742   6.016 -1.3791 -0.4932 -0.8710
 3279TIP3    H231329   2.010   2.839   5.911  1.0381  0.6510 -1.0074
 3280TIP3   OH231330   2.092   3.578  15.354  0.0875  0.3009  0.3635
 3280TIP3    H131331   2.184   3.554  15.360 -0.0731 -0.3589  0.2656
 3280TIP3    H231332   2.091   3.663  15.310  0.4640 -1.0835 -2.4412
 3281TIP3   OH231333   3.343   2.918   1.783  0.4038  0.1491  0.2738
 3281TIP3    H131334   3.276   2.933   1.849  0.4150 -1.0517  0.5690
 3281TIP3    H231335   3.341   2.997   1.727 -1.0540  0.2280  0.4366
 3282TIP3   OH231336   2.966   5.844  16.803  0.3294  0.8483  0.1841
 3282TIP3    H131337   2.878   5.881  16.804  0.2270  0.6310 -0.8133
 3282TIP3    H231338   3.017   5.904  16.857 -0.9904 -0.4841  3.0089
 3283TIP3   OH231339   4.925   5.982   0.988  0.3971  0.2279  0.6950
 3283TIP3    H131340   4.870   5.904   0.986 -0.3344  0.7269  0.7594
 3283TIP3    H231341   4.865   6.053   1.012  1.0235  0.8239  0.5385
 3284TIP3   OH231342   6.054   0.092  16.161 -0.0967 -0.1704  0.2008
 3284TIP3    H131343   5.984   0.094  16.096 -0.0189  0.1520  0.1218
 3284TIP3    H231344   6.080   0.000  16.166 -0.9700 -0.3895  0.7177
 3285TIP3   OH231345   1.498   5.446  12.128 -0.0162  0.5406 -0.0787
 3285TIP3    H131346   1.542   5.530  12.139 -0.2461  0.6477  0.0349
 3285TIP3    H231347   1.500   5.430  12.033  0.4231  0.4587 -0.0541
 3286TIP3   OH231348   4.584   6.751  13.627  0.5453  0.3061 -0.1748
 3286TIP3    H131349   4.529   6.698  13.570 -0.9911  0.5122  1.0995
 3286TIP3    H231350   4.530   6.827  13.649  1.8180  1.1699  0.0254
 3287TIP3   OH231351   2.058   1.818   2.725  0.3395 -0.2768  0.1560
 3287TIP3    H131352   2.068   1.781   2.637 -0.0226  1.4990 -0.6475
 3287TIP3    H231353   1.964   1.829   2.736  0.4092 -0.1244  0.6258
 3288TIP3   OH231354   2.768   4.720  13.882 -0.1643 -0.7077  0.0146
 3288TIP3    H131355   2.852   4.761  13.864 -0.5809  1.0722  1.9096
 3288TIP3    H231356   2.703   4.787  13.863 -0.9067 -0.7255  2.3138
 3289TIP3   OH231357   2.196   0.844  13.679  0.4621 -0.2973 -0.1335
 3289TIP3    H131358   2.153   0.769  13.720  0.0389  0.2817  0.4817
 3289TIP3    H231359   2.130   0.881  13.621 -0.3991  1.4525  1.8745
 3290TIP3   OH231360   3.019   3.674  11.463 -0.2979 -0.1107  0.1668
 3290TIP3    H131361   3.071   3.597  11.444 -0.8650 -0.9874  2.0791
 3290TIP3    H231362   2.939   3.662  11.411  0.0729 -0.2804 -0.3666
 3291TIP3   OH231363   5.007   2.708   3.839  0.0474 -0.3890 -0.3586
 3291TIP3    H131364   4.974   2.759   3.765 -0.3730 -0.8021 -0.4586
 3291TIP3    H231365   4.979   2.618   3.820  3.1533 -1.1645 -1.6006
 3292TIP3   OH231366   0.087   2.256  16.197  0.3257  0.4403  0.3744
 3292TIP3    H131367   0.132   2.233  16.115  0.0022 -0.6625  0.4908
 3292TIP3    H231368   0.125   2.340  16.223  1.8478 -0.1528  0.1279
 3293TIP3   OH231369   1.225   6.601   5.511 -0.2430 -0.5185 -0.1280
 3293TIP3    H131370   1.150   6.659   5.510 -0.5825 -0.9320  0.7726
 3293TIP3    H231371   1.290   6.645   5.456 -0.4862  0.7170  0.5509
 3294TIP3   OH231372   2.074   1.392  14.052 -0.3354 -0.4584  0.0567
 3294TIP3    H131373   2.003   1.441  14.094 -1.0775 -1.0600 -0.4813
 3294TIP3    H231374   2.045   1.381  13.961 -0.3455 -2.2120  0.2666
 3295TIP3   OH231375   1.951   3.432   1.036  0.2484 -0.2060  0.0905
 3295TIP3    H131376   1.960   3.518   0.996  0.7063 -0.4146 -0.2615
 3295TIP3    H231377   1.997   3.439   1.120 -0.1705  0.0462  0.2999
 3296TIP3   OH231378   2.298   1.662   2.259  0.4707  0.6120  0.1139
 3296TIP3    H131379   2.236   1.590   2.244 -0.5992  1.6475 -0.5454
 3296TIP3    H231380   2.381   1.629   2.224  0.0430 -0.3781  0.0005
 3297TIP3   OH231381   6.704   6.004   6.480  0.4811 -0.0814  0.3821
 3297TIP3    H131382   6.779   5.961   6.521  1.1206  1.3913  0.7812
 3297TIP3    H231383   6.709   5.977   6.388  0.4817 -1.3818  0.7533
 3298TIP3   OH231384   0.185   4.079  15.921 -0.0639  0.3212  0.2642
 3298TIP3    H131385   0.090   4.091  15.929  0.1157  1.7345  0.5001
 3298TIP3    H231386   0.208   4.127  15.841  0.0447 -2.5430 -1.4827
 3299TIP3   OH231387   1.476   0.409  13.244 -0.2832  0.1496  0.3549
 3299TIP3    H131388   1.409   0.420  13.176 -0.4254 -1.6432  0.1707
 3299TIP3    H231389   1.538   0.347  13.205  0.9810  1.0628  0.8965
 3300TIP3   OH231390   5.853   2.749  12.215 -0.0050 -0.5419  0.3546
 3300TIP3    H131391   5.929   2.694  12.230 -0.6205 -1.2347  0.9740
 3300TIP3    H231392   5.794   2.695  12.162 -0.4481 -0.3500  0.6445
 3301TIP3   OH231393   6.459   1.504   6.713 -0.2356 -0.5866 -0.2671
 3301TIP3    H131394   6.390   1.514   6.779 -0.8648 -0.3366 -0.9541
 3301TIP3    H231395   6.415   1.465   6.638 -0.1922  1.8355 -1.6116
 3302TIP3   OH231396   2.931   0.837  14.937 -0.1789  1.0031  0.7120
 3302TIP3    H131397   2.885   0.789  14.868  1.5290  0.6757 -0.2454
 3302TIP3    H231398   2.938   0.927  14.904  2.1662  0.4681 -0.3855
 3303TIP3   OH231399   4.054   5.822  10.491 -0.6193 -0.2502  0.8065
 3303TIP3    H131400   4.141   5.861  10.495 -1.3234  1.2268  2.1295
 3303TIP3    H231401   4.058   5.762  10.417  0.6446  1.9728 -0.9671
 3304TIP3   OH231402   1.353   4.507   2.556  0.1511  0.4796 -0.0892
 3304TIP3    H131403   1.421   4.571   2.576  1.4532 -1.4396  1.8081
 3304TIP3    H231404   1.393   4.450   2.490  0.2317 -0.3850  0.6980
 3305TIP3   OH231405   5.453   4.243  15.356  0.3468  1.1140 -0.3726
 3305TIP3    H131406   5.455   4.311  15.424 -1.4395  0.4453  0.3548
 3305TIP3    H231407   5.386   4.182  15.385  1.7137 -0.8088 -1.1984
 3306TIP3   OH231408   6.204   2.072   3.761  0.2716 -0.2609 -0.4061
 3306TIP3    H131409   6.112   2.065   3.736  0.0949 -0.8559  0.3934
 3306TIP3    H231410   6.217   2.002   3.826  1.4616 -0.6301 -1.0337
 3307TIP3   OH231411   5.016   3.990  15.839  0.2067  0.2023 -0.3721
 3307TIP3    H131412   4.941   3.995  15.781 -0.5137  0.7915  0.5921
 3307TIP3    H231413   4.979   3.979  15.926  1.2886 -1.6688 -0.1020
 3308TIP3   OH231414   2.346   5.785  16.677  0.0860 -0.0152 -0.6392
 3308TIP3    H131415   2.425   5.733  16.691  0.5961  0.6163 -1.1519
 3308TIP3    H231416   2.325   5.771  16.584 -0.7642 -0.6879 -0.3468
 3309TIP3   OH231417   1.176   1.975   4.485  0.1039 -0.0926  0.2821
 3309TIP3    H131418   1.209   2.050   4.533  0.6538 -0.5777  0.6689
 3309TIP3    H231419   1.201   1.991   4.394 -1.4850  1.1309  0.0334
 3310TIP3   OH231420   5.550   3.944  11.717 -0.0736 -0.0416  0.6405
 3310TIP3    H131421   5.497   3.998  11.659  0.1012 -0.2036  0.3256
 3310TIP3    H231422   5.597   4.006  11.771 -1.7569  0.0855  1.9920
 3311TIP3   OH231423   4.224   2.787   4.481 -0.4868 -0.2413 -0.3430
 3311TIP3    H131424   4.312   2.758   4.505 -0.3103 -0.5227 -1.2979
 3311TIP3    H231425   4.222   2.880   4.505  0.6892  0.2192 -1.9767
 3312TIP3   OH231426   0.207   4.652  10.978  0.0564 -0.3389  0.5371
 3312TIP3    H131427   0.134   4.626  10.923  0.0816 -0.4232  0.5419
 3312TIP3    H231428   0.167   4.683  11.059  0.0806 -1.8913  1.1616
 3313TIP3   OH231429   0.597   3.186   6.720 -0.7462  0.7809 -0.4782
 3313TIP3    H131430   0.628   3.258   6.774 -2.1718  1.8923 -1.1184
 3313TIP3    H231431   0.676   3.137   6.697  0.5092  3.4458 -1.9754
 3314TIP3   OH231432   4.087   1.913   2.638 -0.1706  0.0759 -0.1086
 3314TIP3    H131433   4.183   1.915   2.635 -0.1967  1.5528 -0.4212
 3314TIP3    H231434   4.063   1.991   2.687 -1.1774 -1.1547  1.3925
 3315TIP3   OH231435   4.498   1.423  16.676  0.7423  0.0798  0.6131
 3315TIP3    H131436   4.489   1.439  16.770  0.2796  0.9513  0.4261
 3315TIP3    H231437   4.417   1.379  16.651  0.9337 -0.2972  0.6459
 3316TIP3   OH231438   4.836   2.137   6.532 -0.3901 -0.6296 -0.3816
 3316TIP3    H131439   4.769   2.072   6.554  0.3286 -0.8255  1.2536
 3316TIP3    H231440   4.919   2.091   6.545  0.0904 -0.1888 -1.7952
 3317TIP3   OH231441   6.204   2.696   3.780 -0.2413 -0.2301  0.5726
 3317TIP3    H131442   6.263   2.639   3.829 -0.3311  0.3471  1.3637
 3317TIP3    H231443   6.244   2.703   3.693  1.5411  1.1351  1.4649
 3318TIP3   OH231444   1.973   2.138  13.005 -0.3791  0.9775 -0.1629
 3318TIP3    H131445   2.008   2.068  12.949 -0.1626  1.4788 -0.6622
 3318TIP3    H231446   2.019   2.127  13.088 -0.1626  0.6811 -0.3177
 3319TIP3   OH231447   1.515   0.336   2.692 -0.1174  0.5282  0.0431
 3319TIP3    H131448   1.435   0.301   2.730 -0.9633  3.0110  0.6239
 3319TIP3    H231449   1.526   0.287   2.610 -1.3856 -0.8760  0.6962
 3320TIP3   OH231450   5.840   0.635   3.076  0.1961  0.2676 -0.2430
 3320TIP3    H131451   5.832   0.690   2.998  2.9753 -1.3786 -1.7426
 3320TIP3    H231452   5.816   0.547   3.046 -1.0261  0.0358  1.3518
 3321TIP3   OH231453   0.315   0.702  11.454 -0.5233 -0.0440 -0.6545
 3321TIP3    H131454   0.395   0.752  11.434  0.0251 -0.3835  0.6760
 3321TIP3    H231455   0.267   0.757  11.516 -1.9007  0.6933 -2.3250
 3322TIP3   OH231456   6.736   3.691  11.952 -0.2053 -0.0755  0.3125
 3322TIP3    H131457   6.820   3.667  11.914  0.8882  1.9180  1.3860
 3322TIP3    H231458   6.739   3.656  12.041  0.2219  1.4474  0.9219
 3323TIP3   OH231459   3.288   1.813   6.978  0.0523 -0.3015  0.7294
 3323TIP3    H131460   3.269   1.868   7.054  0.4640  0.5677  0.2122
 3323TIP3    H231461   3.250   1.860   6.904  1.2690 -0.2169  0.1480
 3324TIP3   OH231462   5.157   1.283  14.084 -0.1267  0.1927 -0.1284
 3324TIP3    H131463   5.182   1.375  14.093  0.4751 -0.0746  0.9098
 3324TIP3    H231464   5.061   1.283  14.093 -0.4958  1.1086 -3.3347
 3325TIP3   OH231465   5.462   0.238  14.310  0.4298 -0.1881 -0.7798
 3325TIP3    H131466   5.397   0.175  14.341  0.3931  1.1351  1.9735
 3325TIP3    H231467   5.543   0.188  14.306  0.0387 -0.8615 -0.3672
 3326TIP3   OH231468   1.824   0.781  15.079 -0.1043  0.1582 -0.3599
 3326TIP3    H131469   1.911   0.792  15.117  0.6165 -4.4868 -0.3861
 3326TIP3    H231470   1.839   0.778  14.985 -0.1294 -1.5950 -0.3195
 3327TIP3   OH231471   0.113   2.579  16.094  0.0107 -0.0570 -0.1572
 3327TIP3    H131472   0.032   2.535  16.069  0.5547 -1.0466 -0.2308
 3327TIP3    H231473   0.169   2.571  16.017  1.2899 -2.1146  0.9468
 3328TIP3   OH231474   6.503   0.180   4.113  0.1747 -0.0711 -0.5863
 3328TIP3    H131475   6.531   0.217   4.197  0.1015 -2.0301  0.3321
 3328TIP3    H231476   6.581   0.135   4.080  0.1551  0.5664 -1.4870
 3329TIP3   OH231477   5.676   0.786  16.663  0.0870 -0.7832  0.2129
 3329TIP3    H131478   5.710   0.791  16.573 -1.6506 -0.2998 -0.4408
 3329TIP3    H231479   5.737   0.839  16.715  0.7398 -0.5265 -0.7965
 3330TIP3   OH231480   4.651   2.528   0.611 -0.1492 -0.1829 -0.0896
 3330TIP3    H131481   4.619   2.444   0.580 -0.1244  0.6484 -2.4425
 3330TIP3    H231482   4.572   2.576   0.638 -0.6745  0.7067 -3.0069
 3331TIP3   OH231483   4.023   1.433  14.202  0.9360 -0.0699 -0.2318
 3331TIP3    H131484   4.012   1.527  14.209 -0.4843 -0.0019 -2.7927
 3331TIP3    H231485   4.117   1.420  14.189  1.0847  0.9992 -0.2120
 3332TIP3   OH231486   1.192   4.033   0.977 -0.1723  0.1152 -0.3732
 3332TIP3    H131487   1.260   4.092   0.944  0.4526 -1.4328 -1.9407
 3332TIP3    H231488   1.110   4.072   0.946  0.0278  1.5811  0.8774
 3333TIP3   OH231489   6.588   5.997   0.362 -0.1178  0.5125 -0.1162
 3333TIP3    H131490   6.543   5.958   0.287 -1.4365 -1.3290  1.6150
 3333TIP3    H231491   6.678   6.011   0.331 -0.4906 -0.7716 -1.8485
 3334TIP3   OH231492   2.247   1.936   4.359  0.0552 -0.5363  0.1595
 3334TIP3    H131493   2.152   1.936   4.344 -0.0345 -0.9620  0.7104
 3334TIP3    H231494   2.257   1.903   4.449  0.6553  0.5692  0.5166
 3335TIP3   OH231495   3.792   2.614  15.400  0.2199 -0.7396  0.0894
 3335TIP3    H131496   3.732   2.630  15.472  2.2219 -2.9817  2.3493
 3335TIP3    H231497   3.836   2.698  15.386 -2.7432  0.6971 -1.0602
 3336TIP3   OH231498   3.071   6.293   2.183 -0.3228 -0.2168  0.0192
 3336TIP3    H131499   3.142   6.287   2.118 -0.9470 -1.8876 -0.5367
 3336TIP3    H231500   3.010   6.224   2.158 -1.1117 -0.1743  1.7602
 3337TIP3   OH231501   1.614   5.001   5.184 -0.2973 -0.6100  0.2404
 3337TIP3    H131502   1.530   5.041   5.162  0.4682  0.6131 -0.5249
 3337TIP3    H231503   1.592   4.911   5.206 -2.0339  0.1469  1.7826
 3338TIP3   OH231504   3.900   1.816   1.216 -0.0408 -0.1108  0.0015
 3338TIP3    H131505   3.991   1.810   1.185 -0.5694 -0.0045 -1.5876
 3338TIP3    H231506   3.896   1.903   1.257  0.2270  0.4232 -1.0827
 3339TIP3   OH231507   1.119   2.297  12.952  0.9261  0.2244  0.1168
 3339TIP3    H131508   1.026   2.306  12.931  0.9540  1.0116  0.3082
 3339TIP3    H231509   1.158   2.379  12.923  1.6810 -0.3817 -0.5897
 3340TIP3   OH231510   6.646   4.155  16.206 -0.0345 -1.0797  0.3605
 3340TIP3    H131511   6.630   4.240  16.247  1.6107 -0.2359 -0.6949
 3340TIP3    H231512   6.641   4.093  16.278 -0.3238  0.0113  1.3076
 3341TIP3   OH231513   0.778   5.645   4.922  0.1442 -0.1981  0.2724
 3341TIP3    H131514   0.762   5.553   4.945  0.0784 -0.1253  0.5163
 3341TIP3    H231515   0.866   5.645   4.884 -0.6142 -0.6783 -1.5027
 3342TIP3   OH231516   5.549   2.630  17.177  0.5606 -0.2426 -0.5007
 3342TIP3    H131517   5.526   2.716  17.211  1.1062 -0.2639 -0.0729
 3342TIP3    H231518   5.486   2.614  17.107  0.4467  0.4931 -0.5669
 3343TIP3   OH231519   2.048   1.361  11.750 -0.0501  0.7636  0.9886
 3343TIP3    H131520   1.960   1.379  11.716  0.2286 -0.8885 -0.6753
 3343TIP3    H231521   2.033   1.299  11.822 -0.2346  0.3800  0.6213
 3344TIP3   OH231522   6.684   4.817   0.439  0.2347 -0.1030 -0.2493
 3344TIP3    H131523   6.713   4.894   0.488 -0.8876 -0.5225  1.1007
 3344TIP3    H231524   6.598   4.796   0.476 -0.3788 -0.7781 -2.0145
 3345TIP3   OH231525   1.371   6.765   3.562 -0.2336 -0.1461 -0.2653
 3345TIP3    H131526   1.343   6.698   3.624 -0.5868  0.1247 -0.1289
 3345TIP3    H231527   1.300   6.830   3.564 -1.8562 -1.7137 -3.3640
 3346TIP3   OH231528   2.413   2.478  17.292  0.1472  0.2095  0.1299
 3346TIP3    H131529   2.324   2.454  17.266  0.6312 -1.5398  0.0548
 3346TIP3    H231530   2.434   2.555  17.238 -0.7733 -0.2636 -0.9097
 3347TIP3   OH231531   5.590   6.028  12.277 -0.1063 -0.1286 -0.6784
 3347TIP3    H131532   5.529   5.955  12.272  0.3628 -0.5867  0.3065
 3347TIP3    H231533   5.645   6.018  12.200 -0.2046 -0.6681 -0.6805
 3348TIP3   OH231534   3.728   1.393  12.044 -0.4154  0.1228  0.7186
 3348TIP3    H131535   3.784   1.328  12.003  0.2527  1.6451 -0.8704
 3348TIP3    H231536   3.709   1.456  11.974  2.7537  4.1472  3.2620
 3349TIP3   OH231537   0.810   1.937  13.368 -0.4913 -0.2136  0.3107
 3349TIP3    H131538   0.826   1.864  13.309 -0.5758  0.4725 -0.5855
 3349TIP3    H231539   0.893   1.984  13.371 -0.6645  0.0983  0.2522
 3350TIP3   OH231540   1.726   0.666  13.728 -0.1988  0.1712  0.3363
 3350TIP3    H131541   1.649   0.627  13.686 -0.3675  1.9638 -1.0870
 3350TIP3    H231542   1.692   0.709  13.806 -0.9045  2.1735 -1.0383
 3351TIP3   OH231543   3.758   4.476  11.672  0.1906 -0.2543  0.5014
 3351TIP3    H131544   3.767   4.443  11.761 -0.0103 -0.4975  0.4351
 3351TIP3    H231545   3.698   4.550  11.680 -1.6639 -1.6788  0.2682
 3352TIP3   OH231546   3.191   3.335  10.437  0.0998  0.1367  0.1725
 3352TIP3    H131547   3.139   3.397  10.385 -1.1404 -1.3768 -0.4292
 3352TIP3    H231548   3.130   3.303  10.503  0.6576 -0.6885  0.2874
 3353TIP3   OH231549   4.931   3.207  14.206  0.3599  0.4530 -0.3517
 3353TIP3    H131550   5.014   3.197  14.159 -0.8931 -1.7911 -2.1681
 3353TIP3    H231551   4.950   3.177  14.295  1.7170  0.8915 -0.4774
 3354TIP3   OH231552   4.409   5.443  12.129 -0.3439  0.2145 -0.2740
 3354TIP3    H131553   4.413   5.350  12.109 -0.1197  0.1564  0.0395
 3354TIP3    H231554   4.471   5.455  12.201 -1.5281  0.3244  0.7507
 3355TIP3   OH231555   5.718   0.019   5.044 -0.3109 -0.1452 -0.7220
 3355TIP3    H131556   5.661   0.004   4.968  1.2148 -0.0859 -1.8915
 3355TIP3    H231557   5.718  -0.064   5.091 -0.4977 -0.4748 -1.3070
 3356TIP3   OH231558   2.359   1.017  15.974  0.0532 -0.1886  0.5034
 3356TIP3    H131559   2.296   1.081  16.008 -1.1924 -1.4670  0.6838
 3356TIP3    H231560   2.444   1.051  16.000 -0.6596  0.7328  1.7134
 3357TIP3   OH231561   6.470   5.917   5.946  0.4057  0.2231  0.3950
 3357TIP3    H131562   6.501   5.885   6.031  0.8786 -0.2576  0.0460
 3357TIP3    H231563   6.383   5.879   5.937  0.1318  0.7279  0.9139
 3358TIP3   OH231564   6.148   0.847  13.013  0.0469 -0.4847  0.6613
 3358TIP3    H131565   6.083   0.870  12.947 -0.3355 -1.1551  0.8039
 3358TIP3    H231566   6.232   0.865  12.971 -0.1357 -2.6947 -0.6946
 3359TIP3   OH231567   6.773   1.962  15.101 -0.1739 -0.2787 -0.7233
 3359TIP3    H131568   6.859   1.997  15.122 -0.4500 -0.0076 -0.0402
 3359TIP3    H231569   6.791   1.883  15.050  0.4771 -0.3185 -0.4356
 3360TIP3   OH231570   1.481   5.883  13.216  0.5580  0.1707 -0.0662
 3360TIP3    H131571   1.400   5.834  13.200  1.4190 -1.5410  0.6566
 3360TIP3    H231572   1.461   5.937  13.292 -0.2611  0.6116 -0.5839
 3361TIP3   OH231573   1.634   4.134  15.490 -0.3415 -0.2155 -0.3641
 3361TIP3    H131574   1.613   4.170  15.404  0.5255  0.0611 -0.4658
 3361TIP3    H231575   1.708   4.187  15.520 -0.8705 -0.0757  0.7030
 3362TIP3   OH231576   3.642   5.926  15.659 -0.0844  0.1342  0.3989
 3362TIP3    H131577   3.578   5.900  15.593 -0.1454  0.5556  0.2926
 3362TIP3    H231578   3.591   5.938  15.739  0.2611 -2.3022  1.0203
 3363TIP3   OH231579   0.114   5.426  16.523 -0.0283 -0.4338 -0.4013
 3363TIP3    H131580   0.140   5.499  16.579 -0.6969 -0.2629 -0.3059
 3363TIP3    H231581   0.183   5.361  16.535  1.4834  0.8612 -1.8498
 3364TIP3   OH231582   0.812   1.961   1.897 -0.6742  0.3420 -0.0987
 3364TIP3    H131583   0.854   2.023   1.956 -0.2807  0.0603 -0.0798
 3364TIP3    H231584   0.743   1.920   1.949  0.2032 -0.4978  0.4160
 3365TIP3   OH231585   5.145   0.919  12.544  1.0567  0.2240 -0.5346
 3365TIP3    H131586   5.165   1.004  12.582  1.3488 -0.4634  0.8774
 3365TIP3    H231587   5.228   0.870  12.550  0.4382 -0.7443  0.2443
 3366TIP3   OH231588   2.182   5.188  17.154  0.2748 -0.1488  0.3342
 3366TIP3    H131589   2.109   5.132  17.180  0.1039  0.4053  1.0431
 3366TIP3    H231590   2.232   5.201  17.234  0.2652  0.7898  0.1903
 3367TIP3   OH231591   6.706   4.566  17.208  0.1745  0.1014 -0.7546
 3367TIP3    H131592   6.719   4.639  17.268 -1.5472 -0.5473  0.4432
 3367TIP3    H231593   6.760   4.495  17.243  0.4879  0.2479 -0.9366
 3368TIP3   OH231594   4.898   1.789   5.851 -0.3509  0.3340 -0.3142
 3368TIP3    H131595   4.920   1.767   5.941 -0.1692 -0.0747 -0.4573
 3368TIP3    H231596   4.955   1.863   5.829  0.3870 -0.2633 -0.4505
 3369TIP3   OH231597   2.579   2.365   1.266 -0.1264 -0.0374  0.3815
 3369TIP3    H131598   2.562   2.448   1.221 -1.7829  0.0280  1.0756
 3369TIP3    H231599   2.520   2.303   1.224  1.3987 -0.9768 -0.4067
 3370TIP3   OH231600   3.035   3.508  11.776 -0.2727  0.3614  0.1424
 3370TIP3    H131601   3.121   3.472  11.794 -0.1499  0.4241 -0.3101
 3370TIP3    H231602   3.035   3.593  11.820 -0.3910  0.0250  0.8009
 3371TIP3   OH231603   2.019   0.793   5.977  0.0042  0.6847 -0.3440
 3371TIP3    H131604   2.003   0.815   6.069  1.4328 -2.2660  0.6978
 3371TIP3    H231605   1.944   0.740   5.951  0.7303 -0.4956 -0.0983
 3372TIP3   OH231606   1.418   4.231   5.127  0.2412  0.2366 -0.3792
 3372TIP3    H131607   1.363   4.165   5.169  0.0146  0.4503 -0.3348
 3372TIP3    H231608   1.505   4.192   5.125  0.5028  0.6657  1.3400
 3373TIP3   OH231609   3.242   1.950   0.890 -0.0977 -0.1552  0.5837
 3373TIP3    H131610   3.260   1.972   0.798  1.6885  3.3376  1.6671
 3373TIP3    H231611   3.314   1.891   0.914  0.3760  0.2477  0.1803
 3374TIP3   OH231612   2.922   0.724   1.749  0.1888  0.3872  0.5905
 3374TIP3    H131613   2.915   0.631   1.729 -0.0693  0.5225  0.0445
 3374TIP3    H231614   2.974   0.727   1.829  3.6558 -0.0534 -1.5209
 3375TIP3   OH231615   3.268   5.089   1.584 -0.0826 -0.2674 -0.1801
 3375TIP3    H131616   3.287   5.135   1.502 -1.2355 -0.3609 -0.5058
 3375TIP3    H231617   3.200   5.142   1.626  1.1405  0.2795  1.1560
 3376TIP3   OH231618   3.184   1.137   3.255  0.4639  0.1891 -0.2650
 3376TIP3    H131619   3.142   1.061   3.295  2.2323  1.6345  4.5855
 3376TIP3    H231620   3.277   1.113   3.249  0.9757  1.7852  0.9633
 3377TIP3   OH231621   0.783   3.303  15.795 -0.2720 -0.2823 -0.3246
 3377TIP3    H131622   0.831   3.228  15.832 -0.2784 -1.3382 -2.3599
 3377TIP3    H231623   0.691   3.284  15.814 -0.1091  0.4189  1.2483
 3378TIP3   OH231624   1.381   5.287  14.652 -0.0770 -0.3982 -0.1791
 3378TIP3    H131625   1.310   5.278  14.588  0.3525 -3.1774 -0.3166
 3378TIP3    H231626   1.348   5.350  14.716 -0.7563  2.0129 -2.7859
 3379TIP3   OH231627   5.890   2.262  15.454 -0.0978  0.7356 -0.1317
 3379TIP3    H131628   5.847   2.270  15.369  0.7070  1.7581 -0.4467
 3379TIP3    H231629   5.978   2.230  15.434 -0.2535 -0.0356  0.4002
 3380TIP3   OH231630   3.199   2.706   1.656  0.0483 -0.7581 -0.3667
 3380TIP3    H131631   3.161   2.667   1.735 -1.8624  0.6838 -0.5077
 3380TIP3    H231632   3.270   2.761   1.688 -2.1440  1.5978  0.6634
 3381TIP3   OH231633   4.790   0.093   5.569 -0.6788 -1.3448 -0.6019
 3381TIP3    H131634   4.738   0.150   5.626 -0.0053  0.1158 -1.4243
 3381TIP3    H231635   4.735   0.080   5.492 -1.1395 -2.4330 -0.0972
 3382TIP3   OH231636   4.753   3.702  14.060  0.1040 -0.2961 -0.3708
 3382TIP3    H131637   4.841   3.678  14.087  0.0091 -1.4380 -1.0480
 3382TIP3    H231638   4.763   3.734  13.971 -0.2478 -0.9526 -0.6447
 3383TIP3   OH231639   2.603   0.417  15.426 -0.4018 -0.1950 -0.3899
 3383TIP3    H131640   2.670   0.351  15.407 -0.6632 -1.0567  1.5615
 3383TIP3    H231641   2.650   0.500  15.424  0.3996 -0.6479 -0.6462
 3384TIP3   OH231642   0.824   1.268  14.303  1.2172  0.0320  0.5707
 3384TIP3    H131643   0.879   1.342  14.277  1.3412 -0.0254  0.6736
 3384TIP3    H231644   0.879   1.191  14.289  0.8712 -0.0949 -0.1563
 3385TIP3   OH231645   2.961   2.903   0.949  0.1760  0.5616  0.0912
 3385TIP3    H131646   3.018   2.943   1.015  0.7585  0.6665 -0.4775
 3385TIP3    H231647   2.874   2.937   0.970  0.2656  0.1447  1.1561
 3386TIP3   OH231648   0.407   5.720  16.732  0.5571  0.2621  0.2165
 3386TIP3    H131649   0.380   5.786  16.668  0.6540 -0.9892 -1.1275
 3386TIP3    H231650   0.325   5.692  16.772  0.3768  0.1954 -0.1942
 3387TIP3   OH231651   3.549   6.512  13.905 -0.2275  0.1802  0.2523
 3387TIP3    H131652   3.585   6.429  13.936 -2.3858 -0.7849  0.2796
 3387TIP3    H231653   3.455   6.495  13.897 -0.4697  2.1437 -1.3070
 3388TIP3   OH231654   4.337   1.265   2.432  0.0621 -0.2961  0.1303
 3388TIP3    H131655   4.270   1.206   2.466 -0.3155  0.3371  0.4915
 3388TIP3    H231656   4.296   1.352   2.433  0.8576  0.0853  0.2741
 3389TIP3   OH231657   1.585   5.333   0.164  0.0262  0.4304  0.6116
 3389TIP3    H131658   1.637   5.360   0.088 -0.7969  0.7842  0.1612
 3389TIP3    H231659   1.649   5.308   0.230  0.7437 -0.3575 -0.3749
 3390TIP3   OH231660   0.535   3.428  15.273  0.3876 -0.1819 -0.0629
 3390TIP3    H131661   0.583   3.494  15.323  2.2049 -0.9819 -0.6944
 3390TIP3    H231662   0.590   3.349  15.280 -1.6911 -1.6145  0.6138
 3391TIP3   OH231663   0.923   4.050   4.548 -0.1678  0.4552  0.3970
 3391TIP3    H131664   0.986   3.990   4.588  0.6698  1.8525  1.1979
 3391TIP3    H231665   0.934   4.036   4.454 -0.7653 -1.4313  0.5788
 3392TIP3   OH231666   5.853   2.995   0.204 -0.0481  0.4046  0.4589
 3392TIP3    H131667   5.879   2.961   0.289 -0.5499  1.2944  0.9659
 3392TIP3    H231668   5.814   3.080   0.222  1.2694  1.3098 -0.7980
 3393TIP3   OH231669   1.736   5.404   4.465  0.3092 -0.5987  0.7073
 3393TIP3    H131670   1.751   5.310   4.451 -0.0906 -0.5228 -0.3541
 3393TIP3    H231671   1.641   5.414   4.455  0.3066 -0.1446  1.2029
 3394TIP3   OH231672   3.117   2.594   0.234 -0.5006  0.1009  0.1356
 3394TIP3    H131673   3.069   2.666   0.276  0.1639 -0.1545  1.3731
 3394TIP3    H231674   3.203   2.595   0.276 -0.4912 -1.4335  0.1915
 3395TIP3   OH231675   5.925   0.395   4.226 -0.0113  0.0679 -0.4173
 3395TIP3    H131676   5.930   0.300   4.218  0.3142  0.2619 -2.8761
 3395TIP3    H231677   5.899   0.410   4.317  0.8955 -2.3234  0.2633
 3396TIP3   OH231678   5.015   4.370  11.758  0.5483 -0.3826 -0.0138
 3396TIP3    H131679   4.954   4.359  11.686  1.7344  0.7940 -1.2189
 3396TIP3    H231680   4.963   4.353  11.837 -1.1747  0.0534 -1.0463
 3397TIP3   OH231681   3.165   3.445  15.635  0.6246  0.0214 -0.1797
 3397TIP3    H131682   3.202   3.492  15.710  3.0345  0.1524 -1.4274
 3397TIP3    H231683   3.142   3.359  15.669  1.3672  0.2017  0.7941
 3398TIP3   OH231684   5.848   4.169  11.583  0.0216  0.1387  0.0979
 3398TIP3    H131685   5.901   4.173  11.504  1.6342 -1.5329  1.0585
 3398TIP3    H231686   5.901   4.119  11.645 -1.9889 -0.1690  1.6211
 3399TIP3   OH231687   3.447   4.837  12.109 -0.5355 -0.2700  0.1696
 3399TIP3    H131688   3.512   4.899  12.143  0.1261  0.8825 -2.9983
 3399TIP3    H231689   3.455   4.760  12.165  3.2750  0.0341  0.1761
 3400TIP3   OH231690   2.043   5.570  15.005  0.0645  0.2451 -0.7294
 3400TIP3    H131691   2.098   5.581  14.927  2.5270  1.2828  1.1121
 3400TIP3    H231692   2.082   5.497  15.052 -1.4784 -0.4370 -0.4849
 3401TIP3   OH231693   0.781   3.580  11.014  0.6023  0.6934 -0.3082
 3401TIP3    H131694   0.775   3.675  11.018 -1.5300  0.5675  0.1477
 3401TIP3    H231695   0.827   3.562  10.932 -1.1313  2.0791 -1.6298
 3402TIP3   OH231696   3.804   3.728  15.497  0.3423  0.0149 -0.1367
 3402TIP3    H131697   3.739   3.716  15.427  0.4851 -0.2145 -0.2277
 3402TIP3    H231698   3.840   3.815  15.481 -0.3527  0.3792  0.2511
 3403TIP3   OH231699   4.832   6.133  13.515  0.0786  0.1467  0.2014
 3403TIP3    H131700   4.824   6.132  13.611  0.1764 -1.1679  0.2024
 3403TIP3    H231701   4.797   6.218  13.489 -1.5698 -0.1979  1.2680
 3404TIP3   OH231702   0.031   5.851   3.860  0.1352 -0.1013  0.3063
 3404TIP3    H131703  -0.050   5.901   3.857  0.3232  0.5348  3.6298
 3404TIP3    H231704   0.094   5.903   3.810 -1.0820  0.2115 -0.9077
 3405TIP3   OH231705   3.564   5.799   5.720 -0.5917  0.0656  0.4161
 3405TIP3    H131706   3.629   5.834   5.781 -0.7265 -0.2925  0.7683
 3405TIP3    H231707   3.578   5.848   5.639 -0.1089  0.2249  0.5940
 3406TIP3   OH231708   1.354   1.101  15.913 -0.1500 -0.6934 -0.2161
 3406TIP3    H131709   1.341   1.035  15.981  0.9364 -0.4426  0.2507
 3406TIP3    H231710   1.371   1.051  15.833  0.9084 -0.9789  0.1863
 3407TIP3   OH231711   1.482   3.696  14.826 -0.0461 -0.1349 -0.0124
 3407TIP3    H131712   1.423   3.641  14.877  0.3407  0.1490  0.7410
 3407TIP3    H231713   1.473   3.664  14.736 -0.2946 -1.0160  0.3245
 3408TIP3   OH231714   5.882   3.715   0.216  0.1276  0.7506 -0.0634
 3408TIP3    H131715   5.907   3.731   0.125 -1.6006 -1.3304 -0.9559
 3408TIP3    H231716   5.963   3.687   0.258  1.1369  2.5942 -0.7140
 3409TIP3   OH231717   6.620   4.418   0.491 -0.0565  0.7470  0.2480
 3409TIP3    H131718   6.529   4.440   0.472 -0.8655 -2.7048 -0.3965
 3409TIP3    H231719   6.657   4.395   0.405  1.0045  0.7895  0.6865
 3410TIP3   OH231720   2.923   2.620   5.129 -0.1520 -0.1891  0.0391
 3410TIP3    H131721   2.873   2.589   5.053 -0.9635 -1.6103  1.1262
 3410TIP3    H231722   2.874   2.587   5.204  1.0251  0.6152  1.1655
 3411TIP3   OH231723   6.197   5.086  17.289  0.2006  0.2185  0.3249
 3411TIP3    H131724   6.280   5.102  17.334  0.2478  0.6004  0.1130
 3411TIP3    H231725   6.202   4.995  17.261  0.9349  0.4880 -0.4566
 3412TIP3   OH231726   2.596   3.558   1.349  0.5045  0.2449  0.2411
 3412TIP3    H131727   2.511   3.547   1.391 -0.7073 -2.5621 -2.7226
 3412TIP3    H231728   2.639   3.473   1.360  2.0122  0.9377 -0.2026
 3413TIP3   OH231729   5.995   6.325   1.143 -0.3505  0.2085  0.0594
 3413TIP3    H131730   5.903   6.302   1.160 -0.1538  0.3796  1.3901
 3413TIP3    H231731   6.043   6.246   1.167 -0.1296  0.1974 -0.4253
 3414TIP3   OH231732   5.176   3.477   6.091  0.2031  0.2277 -0.3052
 3414TIP3    H131733   5.224   3.548   6.133 -0.5548  0.0314  0.9036
 3414TIP3    H231734   5.134   3.517   6.015  1.7454  0.5403 -1.0050
 3415TIP3   OH231735   5.698   0.200  16.151 -0.2149  0.1644  0.0351
 3415TIP3    H131736   5.758   0.151  16.094 -1.0901  0.5090 -1.1904
 3415TIP3    H231737   5.649   0.256  16.091 -1.0038  0.6801  1.1645
 3416TIP3   OH231738   4.801   2.003  14.395 -0.0397 -0.2652 -0.1417
 3416TIP3    H131739   4.708   1.991  14.374 -0.5754 -0.1204  2.0114
 3416TIP3    H231740   4.840   1.917  14.380 -0.9197 -0.8373  0.7525
 3417TIP3   OH231741   1.068   1.012  11.408 -0.5977 -0.3268  0.0958
 3417TIP3    H131742   1.121   1.066  11.349  0.3114  0.1507  1.3154
 3417TIP3    H231743   1.039   1.073  11.476  0.2002 -1.3028  1.3335
 3418TIP3   OH231744   3.017   2.766  14.811 -0.7230 -0.3505 -0.0150
 3418TIP3    H131745   3.024   2.861  14.811  0.5112 -0.4290 -0.1633
 3418TIP3    H231746   2.927   2.748  14.839 -0.3066  0.7926  2.1525
 3419TIP3   OH231747   3.117   1.358  15.606 -0.1753 -0.0507 -0.5163
 3419TIP3    H131748   3.047   1.309  15.649  0.2242 -0.6817 -0.5814
 3419TIP3    H231749   3.078   1.388  15.524 -1.2567  1.9929  0.6925
 3420TIP3   OH231750   1.667   2.751  12.806  0.0296 -0.0338 -0.1586
 3420TIP3    H131751   1.751   2.723  12.842  0.1459 -1.1021 -1.2525
 3420TIP3    H231752   1.651   2.836  12.847  1.8255  0.3628 -0.2354
 3421TIP3   OH231753   4.690   3.439  11.159  0.3898 -0.5243 -0.2373
 3421TIP3    H131754   4.715   3.504  11.224  1.9261 -0.8582 -0.4664
 3421TIP3    H231755   4.737   3.359  11.184  0.8491 -0.7147 -1.6150
 3422TIP3   OH231756   2.646   6.779  12.624  0.2372 -0.2889  0.0465
 3422TIP3    H131757   2.610   6.810  12.707  0.9050  1.8335 -0.4455
 3422TIP3    H231758   2.585   6.711  12.595 -0.8057  0.0071  1.5186
 3423TIP3   OH231759   5.623   3.279  14.073 -0.1105 -0.3199 -0.1232
 3423TIP3    H131760   5.626   3.266  13.978 -1.5926  0.5058 -0.2970
 3423TIP3    H231761   5.702   3.328  14.094 -0.5537  0.8345 -1.1487
 3424TIP3   OH231762   1.909   1.390   3.414 -0.5488  0.4393 -0.3814
 3424TIP3    H131763   1.858   1.310   3.411 -0.9573  0.6744  0.1914
 3424TIP3    H231764   1.847   1.459   3.391  0.1792  0.4243 -2.4706
 3425TIP3   OH231765   4.811   2.869   3.201 -0.2054  0.0289 -0.4793
 3425TIP3    H131766   4.743   2.906   3.143 -0.3353  1.5587  0.6325
 3425TIP3    H231767   4.867   2.943   3.222 -0.0442 -0.5551  1.2023
 3426TIP3   OH231768   3.448   5.514   5.855 -0.6436 -0.5789  0.9035
 3426TIP3    H131769   3.402   5.581   5.905  0.5029  0.6413  0.3297
 3426TIP3    H231770   3.538   5.516   5.887  0.4859  1.2846 -2.2138
 3427TIP3   OH231771   6.105   1.202   2.295 -0.0104 -0.2052 -0.2273
 3427TIP3    H131772   6.100   1.113   2.330  1.6955 -0.2631 -0.0714
 3427TIP3    H231773   6.195   1.230   2.315 -0.5603  1.5767 -0.1925
 3428TIP3   OH231774   1.385   2.056  11.629 -0.4949 -0.3624 -0.5365
 3428TIP3    H131775   1.292   2.046  11.609 -0.5990 -3.0189  1.0614
 3428TIP3    H231776   1.394   2.023  11.719  2.1814 -1.3964 -1.1363
 3429TIP3   OH231777   4.160   4.946   1.397  0.0730 -0.3899  0.1491
 3429TIP3    H131778   4.241   4.907   1.365 -0.7280 -2.7369  0.8556
 3429TIP3    H231779   4.093   4.919   1.334 -0.2712  1.0124 -0.0964
 3430TIP3   OH231780   3.088   1.374   2.324 -0.5469  0.1633  0.6711
 3430TIP3    H131781   3.055   1.448   2.273  3.9950  2.0767  0.2689
 3430TIP3    H231782   3.131   1.414   2.400  0.1854 -2.1988  1.5525
 3431TIP3   OH231783   2.185   3.937  11.718 -0.1809  0.0282 -0.2314
 3431TIP3    H131784   2.244   3.957  11.646  0.1047  2.6313  0.6535
 3431TIP3    H231785   2.131   3.865  11.686  2.5982 -1.5808 -1.5298
 3432TIP3   OH231786   0.031   6.232   4.051  0.0590 -0.2233 -0.0801
 3432TIP3    H131787   0.115   6.271   4.025 -0.7138  0.6613 -1.2870
 3432TIP3    H231788   0.022   6.255   4.143  0.6150  0.6523 -0.2379
 3433TIP3   OH231789   4.853   5.585   2.189  0.5187  0.4476  0.2376
 3433TIP3    H131790   4.858   5.580   2.094  3.1965 -2.1923  0.4627
 3433TIP3    H231791   4.905   5.663   2.211  1.4652  0.0062 -0.3780
 3434TIP3   OH231792   0.509   3.983  12.206 -0.2015 -0.3002  0.4276
 3434TIP3    H131793   0.465   4.048  12.150  0.9336  0.4411  0.3853
 3434TIP3    H231794   0.481   3.898  12.171  2.6487  0.0755 -3.0576
 3435TIP3   OH231795   5.062   4.677   3.108  0.3083  0.2322 -0.6746
 3435TIP3    H131796   5.104   4.740   3.167 -1.7081  1.5117 -0.5654
 3435TIP3    H231797   5.061   4.721   3.023 -1.7579  0.6840 -0.4448
 3436TIP3   OH231798   6.390   0.187  11.634 -0.8325  0.1614  0.2216
 3436TIP3    H131799   6.458   0.251  11.611 -0.6342 -1.2076 -3.2922
 3436TIP3    H231800   6.416   0.107  11.589 -2.6722 -1.5641  2.1263
 3437TIP3   OH231801   2.969   2.311   2.269 -0.0007 -0.0331  0.1049
 3437TIP3    H131802   2.936   2.223   2.286 -1.3815  0.6932  1.2990
 3437TIP3    H231803   2.972   2.353   2.355 -1.2916  1.7485 -0.6852
 3438TIP3   OH231804   2.841   2.093   2.399  0.0669  0.7095 -0.5789
 3438TIP3    H131805   2.761   2.136   2.428 -1.0062 -1.5188 -0.1332
 3438TIP3    H231806   2.886   2.068   2.480  0.6534  0.9196 -0.8315
 3439TIP3   OH231807   6.131   1.815  13.876  0.2888  0.4799  0.2855
 3439TIP3    H131808   6.161   1.892  13.925  0.5554  0.9846 -0.6594
 3439TIP3    H231809   6.087   1.850  13.799 -1.8291 -0.2888  1.1233
 3440TIP3   OH231810   1.353   5.244   3.842 -0.0068  0.1258  0.2711
 3440TIP3    H131811   1.393   5.173   3.893  1.1105  1.4516  1.2679
 3440TIP3    H231812   1.359   5.214   3.751  0.7393 -0.9190  0.6497
 3441TIP3   OH231813   4.902   0.509  14.521  0.5827  0.0200  0.1794
 3441TIP3    H131814   4.962   0.550  14.583  0.7523 -0.4459  0.3283
 3441TIP3    H231815   4.820   0.557  14.531 -0.2363 -1.8235  2.7889
 3442TIP3   OH231816   5.321   6.179  15.216 -0.2049 -0.3570 -0.1061
 3442TIP3    H131817   5.244   6.124  15.227  1.0352 -2.0405  0.3686
 3442TIP3    H231818   5.372   6.165  15.296  1.0687 -0.0476 -0.8541
 3443TIP3   OH231819   2.318   3.115   4.819  0.0012  0.1864 -0.3913
 3443TIP3    H131820   2.354   3.100   4.731  0.4585  0.5602 -0.2727
 3443TIP3    H231821   2.230   3.078   4.816  1.3564 -3.2285  0.1396
 3444TIP3   OH231822   5.048   6.763   6.033 -0.9073  0.4109  0.1686
 3444TIP3    H131823   5.124   6.740   6.087 -0.1799  2.0860 -0.1148
 3444TIP3    H231824   4.985   6.801   6.094 -0.1746  2.0963 -0.1022
 3445TIP3   OH231825   4.501   2.875   5.601 -0.1736 -0.2411 -0.1948
 3445TIP3    H131826   4.554   2.821   5.660 -0.6036  0.2207  0.6085
 3445TIP3    H231827   4.457   2.938   5.658  0.0220  0.7186 -1.0880
 3446TIP3   OH231828   4.521   0.728   4.368 -0.1867  0.6281  0.1046
 3446TIP3    H131829   4.513   0.824   4.364 -2.2648  0.3883 -2.3431
 3446TIP3    H231830   4.598   0.708   4.316 -1.3854  0.8047 -1.7885
 3447TIP3   OH231831   1.188   5.304   1.352  0.2434  0.1621 -0.4634
 3447TIP3    H131832   1.278   5.276   1.333  0.6120  1.0211  0.0294
 3447TIP3    H231833   1.178   5.387   1.304  0.6056  1.4527  1.6591
 3448TIP3   OH231834   3.207   5.753   4.381  0.6085  0.0903  0.6000
 3448TIP3    H131835   3.200   5.848   4.383 -0.9340  0.1276 -2.5507
 3448TIP3    H231836   3.258   5.730   4.459 -1.7155  3.2308  3.1855
 3449TIP3   OH231837   1.969   5.472   2.618 -0.1447 -0.2312  0.5756
 3449TIP3    H131838   1.900   5.405   2.615  1.0483 -1.4349 -0.3599
 3449TIP3    H231839   1.945   5.534   2.550 -0.1524 -0.8082  0.0505
 3450TIP3   OH231840   0.268   3.793  14.933 -0.2975 -0.0540  0.8981
 3450TIP3    H131841   0.276   3.876  14.886 -1.6297 -1.3660 -1.7569
 3450TIP3    H231842   0.352   3.749  14.920 -1.0448 -0.8928 -1.2778
 3451TIP3   OH231843   0.205   1.084  13.135 -0.1474  0.0885 -0.2887
 3451TIP3    H131844   0.123   1.042  13.108  0.5319 -0.4017 -1.6548
 3451TIP3    H231845   0.186   1.122  13.220 -2.3855  1.6651 -1.4506
 3452TIP3   OH231846   4.940   2.773   3.570  0.0717 -0.0931  0.3074
 3452TIP3    H131847   4.914   2.723   3.493  0.6773 -1.1548  0.7759
 3452TIP3    H231848   5.029   2.801   3.552 -1.1123  3.0034 -1.0268
 3453TIP3   OH231849   2.387   1.682  13.181  0.1309  0.7133  0.0608
 3453TIP3    H131850   2.394   1.720  13.093  1.7843  1.5068  0.5257
 3453TIP3    H231851   2.293   1.667  13.193 -0.0299 -0.3252 -2.2319
 3454TIP3   OH231852   4.177   5.021   2.637 -0.5962 -0.2913 -0.0543
 3454TIP3    H131853   4.149   5.111   2.618 -0.9565 -0.2480  0.6515
 3454TIP3    H231854   4.160   5.011   2.731 -0.0211 -0.9084 -0.0203
 3455TIP3   OH231855   4.437   0.809   2.048 -0.8266  0.3073  0.0104
 3455TIP3    H131856   4.346   0.817   2.076 -0.9952 -0.8582 -0.1617
 3455TIP3    H231857   4.478   0.892   2.073 -1.6014  0.3095  1.3016
 3456TIP3   OH231858   2.443   3.149  12.130  0.9401 -0.5687 -0.4707
 3456TIP3    H131859   2.459   3.073  12.185 -1.2406 -0.5087  0.2987
 3456TIP3    H231860   2.457   3.118  12.041  2.6291 -1.1645 -0.0182
 3457TIP3   OH231861   5.288   4.453  11.366  1.0784  0.0547 -0.2335
 3457TIP3    H131862   5.217   4.517  11.367  1.1426  0.1322 -0.4868
 3457TIP3    H231863   5.247   4.373  11.333  0.9288 -0.1197  0.3688
 3458TIP3   OH231864   5.937   1.787   2.729  0.5679 -0.1138  0.2508
 3458TIP3    H131865   6.016   1.741   2.757 -0.3743 -1.8096  0.2062
 3458TIP3    H231866   5.941   1.785   2.633 -0.9088 -2.7316  0.2010
 3459TIP3   OH231867   2.667   1.940  13.393 -0.0227 -0.6391 -0.7995
 3459TIP3    H131868   2.620   1.860  13.415  0.2243 -0.1886  1.5483
 3459TIP3    H231869   2.642   2.002  13.462  1.3461  0.6753 -1.4478
 3460TIP3   OH231870   1.493   1.780   5.922  0.5155 -0.2091 -0.3069
 3460TIP3    H131871   1.499   1.731   6.004 -0.7268  0.6866  0.3450
 3460TIP3    H231872   1.490   1.872   5.949 -0.5665  0.0670 -1.2999
 3461TIP3   OH231873   1.624   4.966   3.792 -0.0921  0.4384 -0.5251
 3461TIP3    H131874   1.569   5.002   3.862  0.1110  2.2352 -1.2658
 3461TIP3    H231875   1.711   5.002   3.808  0.3037 -0.3724 -0.8156
 3462TIP3   OH231876   4.498   2.122   2.040 -0.6214  0.0358 -0.1827
 3462TIP3    H131877   4.480   2.163   2.125 -1.1758  0.4873 -0.5099
 3462TIP3    H231878   4.564   2.179   2.000 -0.5885 -0.0018 -0.1816
 3463TIP3   OH231879   6.403   0.462   3.606 -0.1102  0.5258  0.4245
 3463TIP3    H131880   6.481   0.482   3.659  0.1098 -1.6779  0.9960
 3463TIP3    H231881   6.340   0.429   3.669 -0.6384 -0.0334 -0.3987
 3464TIP3   OH231882   3.492   0.424   6.037  0.4616  0.0555 -0.0555
 3464TIP3    H131883   3.411   0.441   5.990  0.9202 -1.5503 -1.4495
 3464TIP3    H231884   3.465   0.412   6.128 -0.7705  0.2887 -0.3890
 3465TIP3   OH231885   4.951   1.998  15.722 -0.0361 -0.4971  0.2903
 3465TIP3    H131886   5.023   2.055  15.749  0.5805 -0.6898 -0.8924
 3465TIP3    H231887   4.886   2.058  15.686 -0.3768 -0.3409  1.1626
 3466TIP3   OH231888   0.201   2.639   5.963 -0.2491 -0.0114  0.1297
 3466TIP3    H131889   0.188   2.571   5.898  0.6955  0.5242 -0.6353
 3466TIP3    H231890   0.278   2.611   6.012  1.0584  1.2352 -1.1717
 3467TIP3   OH231891   4.400   2.616   0.609 -0.4199 -0.5014  0.5534
 3467TIP3    H131892   4.382   2.567   0.689 -1.1650 -1.3718 -0.1419
 3467TIP3    H231893   4.320   2.666   0.593  0.3104  0.9130  1.2237
 3468TIP3   OH231894   1.143   5.374  16.404 -0.0313 -0.1799 -0.2276
 3468TIP3    H131895   1.061   5.413  16.435 -0.3345 -0.3118 -0.8513
 3468TIP3    H231896   1.119   5.330  16.322  0.0108 -2.8688  1.1439
 3469TIP3   OH231897   0.206   4.028   0.453  0.2354  0.2573  0.4375
 3469TIP3    H131898   0.241   3.988   0.532 -0.0518  0.5303  0.7082
 3469TIP3    H231899   0.143   3.964   0.419 -0.9838  0.9019  1.4356
 3470TIP3   OH231900   1.203   3.002   4.737 -0.1959 -0.0463 -0.2492
 3470TIP3    H131901   1.163   2.950   4.807  1.3611 -1.3919 -0.3406
 3470TIP3    H231902   1.209   3.090   4.774  1.5696 -0.9546  1.7421
 3471TIP3   OH231903   4.918   1.848   5.470  0.2340  0.1722 -0.2531
 3471TIP3    H131904   4.946   1.893   5.390  0.0484  1.3949  0.3667
 3471TIP3    H231905   4.908   1.917   5.535  0.9320 -0.8885  0.9981
 3472TIP3   OH231906   4.077   0.961   5.073  0.8382 -0.3700 -0.3514
 3472TIP3    H131907   4.162   0.950   5.031  1.3344  0.6789  0.3511
 3472TIP3    H231908   4.015   0.969   5.000  1.3573 -1.0226 -0.8650
 3473TIP3   OH231909   6.131   1.217  14.128  0.3655 -0.1611 -0.7835
 3473TIP3    H131910   6.165   1.297  14.088  0.8638  0.2340  0.4149
 3473TIP3    H231911   6.171   1.146  14.078  2.6035  0.2968  0.3346
 3474TIP3   OH231912   0.310   1.309  14.337 -0.5803 -0.1751 -0.2251
 3474TIP3    H131913   0.267   1.339  14.257 -0.8904 -1.1780 -0.4418
 3474TIP3    H231914   0.239   1.290  14.397 -0.3204  1.8368  0.7854
 3475TIP3   OH231915   2.556   3.143  11.580  0.3053 -0.0062 -0.7782
 3475TIP3    H131916   2.576   3.235  11.563  0.4672 -0.2784 -2.0777
 3475TIP3    H231917   2.572   3.099  11.497 -1.7922 -0.8751 -0.7445
 3476TIP3   OH231918   0.298   6.400   2.341 -0.2274 -0.1410  0.3574
 3476TIP3    H131919   0.338   6.320   2.308  2.2266  1.9065 -1.8490
 3476TIP3    H231920   0.320   6.400   2.435  1.8338 -0.8806 -0.0953
 3477TIP3   OH231921   4.838   1.830  11.636 -0.7797 -0.0659  0.1165
 3477TIP3    H131922   4.920   1.788  11.612 -1.1734  0.4509 -2.2331
 3477TIP3    H231923   4.771   1.781  11.588 -1.5010  1.6051 -0.6234
 3478TIP3   OH231924   0.738   5.951   0.720  0.3811 -0.2194  0.5488
 3478TIP3    H131925   0.682   6.026   0.701  1.2404 -0.1058 -1.6087
 3478TIP3    H231926   0.685   5.874   0.699  1.1072 -0.1074 -1.7737
 3479TIP3   OH231927   4.325   3.097  15.438 -0.0545 -0.2855 -0.5972
 3479TIP3    H131928   4.319   3.104  15.343  1.6886 -1.3679 -0.8171
 3479TIP3    H231929   4.418   3.107  15.456 -0.1556 -1.7847  0.8411
 3480TIP3   OH231930   3.181   0.896   2.075  0.0826 -0.1994  0.2426
 3480TIP3    H131931   3.202   0.841   1.999 -2.0997  1.0376 -1.3028
 3480TIP3    H231932   3.237   0.973   2.066 -0.3613  0.0629 -0.2292
 3481TIP3   OH231933   4.076   2.554   6.326 -0.1323  0.2360  0.5697
 3481TIP3    H131934   4.162   2.540   6.365  0.0253  0.6049  0.3535
 3481TIP3    H231935   4.091   2.615   6.254 -0.5477  0.1690  0.4226
 3482TIP3   OH231936   0.335   5.471   3.138 -0.1525  0.0084 -0.1164
 3482TIP3    H131937   0.350   5.493   3.230  0.9631  0.4356 -0.3862
 3482TIP3    H231938   0.423   5.466   3.101 -0.6371  1.3273 -1.4990
 3483TIP3   OH231939   2.076   4.332   3.350  0.1516  0.3872 -0.1840
 3483TIP3    H131940   2.038   4.387   3.282 -0.8569 -0.1990 -0.1064
 3483TIP3    H231941   2.046   4.244   3.329  2.8968 -0.3656 -1.1202
 3484TIP3   OH231942   0.447   5.136  16.492  0.3832  0.0426  0.5872
 3484TIP3    H131943   0.355   5.111  16.488 -0.0196  1.5039  0.4510
 3484TIP3    H231944   0.468   5.138  16.585  0.4887 -1.0659  0.5858
 3485TIP3   OH231945   6.704   1.891  13.464 -0.8660 -0.0814  0.0753
 3485TIP3    H131946   6.755   1.944  13.404 -1.6194 -0.0514 -0.5428
 3485TIP3    H231947   6.650   1.836  13.407 -0.4939 -1.1125  0.7071
 3486TIP3   OH231948   1.060   5.831  11.663 -0.0802  0.0109 -0.0407
 3486TIP3    H131949   1.018   5.905  11.620 -0.3356  0.1732  0.4774
 3486TIP3    H231950   1.151   5.859  11.676  0.0667 -0.1499 -0.7266
 3487TIP3   OH231951   6.551   5.408  15.014 -0.5027 -0.1519  0.1906
 3487TIP3    H131952   6.484   5.472  14.990 -1.5950 -1.4242 -0.2204
 3487TIP3    H231953   6.553   5.411  15.109  1.0091  2.0397  0.1340
 3488TIP3   OH231954   2.278   5.624  12.114 -0.5095 -0.1417  0.3135
 3488TIP3    H131955   2.279   5.542  12.164  2.8580  1.6654  3.4993
 3488TIP3    H231956   2.315   5.601  12.029 -1.6277 -2.3365  0.3887
 3489TIP3   OH231957   0.250   2.757  14.357 -0.8081  0.4055  0.1986
 3489TIP3    H131958   0.159   2.765  14.329 -0.4476 -1.0772 -1.5141
 3489TIP3    H231959   0.246   2.748  14.453 -2.5199 -0.5264  0.0444
 3490TIP3   OH231960   1.350   5.384   2.935  0.1272  0.1012  0.3951
 3490TIP3    H131961   1.433   5.420   2.903  1.0648 -0.8242  1.7432
 3490TIP3    H231962   1.326   5.317   2.871  0.0540  0.8631 -0.3767
 3491TIP3   OH231963   1.188   3.567   2.356  0.0573 -0.4150 -0.1766
 3491TIP3    H131964   1.159   3.642   2.409  0.7258 -1.1005  1.1836
 3491TIP3    H231965   1.187   3.600   2.266  0.5956  1.3197  0.4345
 3492TIP3   OH231966   3.104   3.460   0.830  0.5025 -0.2038 -0.4087
 3492TIP3    H131967   3.148   3.424   0.907  0.2014 -1.3689 -0.7716
 3492TIP3    H231968   3.090   3.552   0.851 -1.9021 -1.0393  2.0125
 3493TIP3   OH231969   4.993   5.373  15.937  0.4380  0.2430 -0.6123
 3493TIP3    H131970   4.974   5.346  15.847  0.6889  0.8772 -0.8603
 3493TIP3    H231971   5.088   5.377  15.941  0.4815 -1.2288  0.1185
 3494TIP3   OH231972   2.351   6.323   2.012 -0.1409  0.2260 -0.0522
 3494TIP3    H131973   2.305   6.402   2.041 -1.8497 -0.6024 -0.4550
 3494TIP3    H231974   2.339   6.260   2.083  1.5571  0.4317  0.4439
 3495TIP3   OH231975   1.017   2.964   6.129  0.3293 -0.7804  0.3238
 3495TIP3    H131976   1.106   2.932   6.143  1.2476  0.9697 -1.3812
 3495TIP3    H231977   0.981   2.974   6.218  1.9032 -1.2421  1.0240
 3496TIP3   OH231978   1.653   1.079   4.954  0.4211  0.2721 -0.1030
 3496TIP3    H131979   1.590   1.148   4.978 -2.7452 -2.6832  0.5129
 3496TIP3    H231980   1.640   1.011   5.020  1.5592 -2.0330 -2.1669
 3497TIP3   OH231981   2.415   4.999  15.251  0.0791  0.0159  0.3008
 3497TIP3    H131982   2.403   4.911  15.286 -3.3106  0.4180  0.3526
 3497TIP3    H231983   2.428   5.054  15.329  0.3004 -0.1874  0.4049
 3498TIP3   OH231984   3.341   4.304   4.874 -0.0176 -0.0746 -0.1409
 3498TIP3    H131985   3.342   4.212   4.899 -0.2583 -0.2929 -0.8953
 3498TIP3    H231986   3.431   4.324   4.851 -0.2668 -0.6120 -1.6513
 3499TIP3   OH231987   4.327   4.062   5.208 -0.0392 -0.4093  0.6432
 3499TIP3    H131988   4.366   4.025   5.287 -0.0248 -0.6881  0.5061
 3499TIP3    H231989   4.253   4.113   5.240  2.5175  3.1508  1.2728
 3500TIP3   OH231990   6.682   3.349  15.547  0.0568 -0.0981 -0.3916
 3500TIP3    H131991   6.636   3.265  15.555  1.3926 -0.6366  2.4416
 3500TIP3    H231992   6.709   3.370  15.636  1.0785  2.6174 -1.2818
 3501TIP3   OH231993   2.674   1.264   2.544 -0.2546  0.2510  0.1658
 3501TIP3    H131994   2.666   1.284   2.637  1.5529 -0.5133  0.5168
 3501TIP3    H231995   2.671   1.168   2.539  0.7713  0.2338 -0.4125
 3502TIP3   OH231996   2.544   3.534  16.079  0.4083 -0.5598 -0.4620
 3502TIP3    H131997   2.555   3.485  16.160  1.3484  0.4090  0.0206
 3502TIP3    H231998   2.609   3.497  16.020  0.1515 -0.8458 -0.5649
 3503TIP3   OH231999   4.959   2.609   5.381  0.0867  0.0888  0.1811
 3503TIP3    H132000   5.042   2.570   5.352  0.2725  1.4222 -1.1529
 3503TIP3    H232001   4.892   2.554   5.341  0.3441  0.6219 -1.0158
 3504TIP3   OH232002   1.206   3.711   5.936  0.4398  0.1025  0.5331
 3504TIP3    H132003   1.162   3.637   5.979 -1.1713 -0.0413 -1.2554
 3504TIP3    H232004   1.197   3.783   5.998 -0.6578 -0.4349  1.0308
 3505TIP3   OH232005   6.227   1.567  15.822  0.0441 -0.0923  0.7522
 3505TIP3    H132006   6.150   1.510  15.815 -0.1837  0.4935 -1.8526
 3505TIP3    H232007   6.258   1.554  15.912 -1.9158 -1.8415  1.2128
 3506TIP3   OH232008   0.766   4.589   3.928 -0.1429  0.2321  0.0852
 3506TIP3    H132009   0.717   4.566   4.007 -1.6737 -0.2719 -1.0008
 3506TIP3    H232010   0.701   4.592   3.858  1.3433 -0.3751 -1.3770
 3507TIP3   OH232011   2.970   3.598   1.500 -0.2674  0.5845 -0.3237
 3507TIP3    H132012   2.912   3.601   1.424 -1.5701 -0.0813  0.6057
 3507TIP3    H232013   3.012   3.512   1.495 -1.6510 -0.1677  0.6108
 3508TIP3   OH232014   0.766   6.265   0.766  0.4668 -0.5167  0.1790
 3508TIP3    H132015   0.736   6.258   0.675  0.3130  0.2764  0.1710
 3508TIP3    H232016   0.801   6.353   0.773 -0.7210 -0.1088  1.2495
 3509TIP3   OH232017   3.113   5.167  10.920  0.0459  0.6564 -0.1346
 3509TIP3    H132018   3.173   5.100  10.888  0.4740  0.9849 -0.0288
 3509TIP3    H232019   3.033   5.120  10.942  0.7665  0.0082  1.1155
 3510TIP3   OH232020   6.796   5.429   6.570  0.5826 -0.0165  0.2506
 3510TIP3    H132021   6.715   5.480   6.581  0.0655 -0.7020 -0.3483
 3510TIP3    H232022   6.801   5.374   6.649  1.2490  1.0887  0.9981
 3511TIP3   OH232023   5.442   2.293  15.896 -0.2800 -0.0397 -0.3917
 3511TIP3    H132024   5.384   2.292  15.821  3.2049 -1.9479 -3.2254
 3511TIP3    H232025   5.506   2.224  15.878  2.0538  1.0190  3.2154
 3512TIP3   OH232026   2.436   2.251   5.549  0.3175  0.2844  0.3020
 3512TIP3    H132027   2.507   2.240   5.612  1.1991  0.6326 -0.6052
 3512TIP3    H232028   2.430   2.346   5.536  2.5563  0.1137 -2.7508
 3513TIP3   OH232029   0.391   6.330  13.761  0.0087 -0.0925 -0.8796
 3513TIP3    H132030   0.349   6.363  13.682  0.2922  0.8774 -0.6297
 3513TIP3    H232031   0.332   6.261  13.792  0.6478 -1.5242 -2.7516
 3514TIP3   OH232032   0.438   1.533   1.452  0.1113  0.1260 -0.2456
 3514TIP3    H132033   0.436   1.628   1.460  0.9556  0.0491  1.0939
 3514TIP3    H232034   0.471   1.517   1.364  2.9344  1.1070  0.5466
 3515TIP3   OH232035   2.858   5.282  16.322 -0.6060 -0.1045  0.3250
 3515TIP3    H132036   2.831   5.374  16.329  3.3424  1.3013 -1.4748
 3515TIP3    H232037   2.878   5.257  16.412 -1.9718  0.6814  0.8746
 3516TIP3   OH232038   6.389   6.684  12.045  0.0383  0.4057  0.0766
 3516TIP3    H132039   6.420   6.602  12.006 -0.6847  0.2459 -0.1675
 3516TIP3    H232040   6.299   6.692  12.015 -0.0325  1.0669  0.4650
 3517TIP3   OH232041   5.668   1.626  12.851 -0.3662 -0.0662 -0.2058
 3517TIP3    H132042   5.749   1.605  12.897 -0.2330  0.1223 -0.3560
 3517TIP3    H232043   5.649   1.549  12.797 -0.1052  0.0303 -0.4327
 3518TIP3   OH232044   1.161   2.493  10.474 -0.4911 -0.1536  0.0720
 3518TIP3    H132045   1.203   2.407  10.467  1.3892  0.7129  0.4254
 3518TIP3    H232046   1.197   2.530  10.555  0.0423  1.6803 -0.9946
 3519TIP3   OH232047   1.238   5.720  16.881 -0.0048  0.6276 -0.3237
 3519TIP3    H132048   1.222   5.759  16.795  2.1009  0.8073 -0.6490
 3519TIP3    H232049   1.332   5.733  16.896 -0.4531  1.1066  2.2478
 3520TIP3   OH232050   4.754   1.535  14.496  0.2532 -0.1360 -0.3775
 3520TIP3    H132051   4.801   1.464  14.452 -0.4529 -0.3120 -0.8669
 3520TIP3    H232052   4.668   1.536  14.454 -0.2674  0.0090  0.6718
 3521TIP3   OH232053   5.307   0.490   3.520  0.0171 -0.1449  0.1812
 3521TIP3    H132054   5.363   0.419   3.489  1.9363  1.8507 -1.1312
 3521TIP3    H232055   5.283   0.538   3.440 -3.2064 -0.6378  0.7622
 3522TIP3   OH232056   5.720   2.329   5.183 -0.0038  0.6256  0.3086
 3522TIP3    H132057   5.757   2.413   5.208 -0.2835  0.9585 -0.3795
 3522TIP3    H232058   5.633   2.328   5.222 -1.2349  2.0113 -2.3096
 3523TIP3   OH232059   4.493   5.963  11.695 -0.2714  0.0683  0.0704
 3523TIP3    H132060   4.470   5.992  11.607 -1.6347 -0.3016  0.2861
 3523TIP3    H232061   4.535   6.038  11.736  1.7926 -0.2487 -1.4096
 3524TIP3   OH232062   1.847   4.228   2.428  0.3205  0.4086  0.1240
 3524TIP3    H132063   1.823   4.190   2.344 -2.3014  1.4322  0.3805
 3524TIP3    H232064   1.770   4.278   2.455  2.2638  2.7553  1.5965
 3525TIP3   OH232065   1.009   3.663   4.889  0.5428  0.2125 -0.4901
 3525TIP3    H132066   1.042   3.608   4.818 -0.7211 -0.0940 -0.8603
 3525TIP3    H232067   0.923   3.626   4.909  0.5440  0.8093  0.6417
 3526TIP3   OH232068   3.301   2.733   3.229  0.6316  0.0409 -0.5861
 3526TIP3    H132069   3.313   2.770   3.142 -1.0877  2.0957  0.0270
 3526TIP3    H232070   3.273   2.806   3.283 -1.5996 -1.8621  0.9547
 3527TIP3   OH232071   1.572   4.860  11.482 -0.0794 -0.0992 -0.4530
 3527TIP3    H132072   1.572   4.798  11.409 -2.8704 -0.2151 -0.4161
 3527TIP3    H232073   1.512   4.929  11.455  0.3960  0.8773  0.9125
 3528TIP3   OH232074   4.162   1.350   2.802  0.8578 -0.1585  0.1061
 3528TIP3    H132075   4.255   1.368   2.790  0.6751  0.1441 -0.8743
 3528TIP3    H232076   4.139   1.292   2.729  0.3503 -0.4997  0.5309
 3529TIP3   OH232077   3.686   3.578   2.119  0.0463 -0.0743  0.1089
 3529TIP3    H132078   3.591   3.578   2.135  0.0256  0.2215 -0.0095
 3529TIP3    H232079   3.701   3.653   2.062  0.4599  0.3700  0.7873
 3530TIP3   OH232080   2.261   2.898   1.167 -0.6252 -0.2241  0.0715
 3530TIP3    H132081   2.281   2.827   1.228 -0.4573 -0.7999 -0.6424
 3530TIP3    H232082   2.314   2.972   1.198 -0.2899 -0.6082  0.4272
 3531TIP3   OH232083   4.714   0.296  16.311  0.0280 -0.0787  0.3084
 3531TIP3    H132084   4.661   0.300  16.231 -1.9318  1.5024  1.6605
 3531TIP3    H232085   4.717   0.202  16.332 -0.6607 -0.3679 -0.8153
 3532TIP3   OH232086   1.717   3.747   1.715  0.0967  1.0572 -0.1699
 3532TIP3    H132087   1.622   3.764   1.721 -0.5680 -1.6086 -2.2180
 3532TIP3    H232088   1.728   3.704   1.630  2.7076 -1.6343  1.4636
 3533TIP3   OH232089   4.804   1.667   6.505 -0.0214  0.1207  0.2236
 3533TIP3    H132090   4.888   1.668   6.459  0.7214  0.4977  1.5431
 3533TIP3    H232091   4.770   1.756   6.493 -0.1693  0.0001 -0.2254
 3534TIP3   OH232092   4.357   6.792  11.272 -0.6282 -0.0533 -0.1356
 3534TIP3    H132093   4.335   6.872  11.320 -0.1243  0.3937 -0.6557
 3534TIP3    H232094   4.447   6.804  11.244 -1.3682  0.3316 -2.4751
 3535TIP3   OH232095   4.746   5.922   3.784 -0.3763  0.2943  0.0539
 3535TIP3    H132096   4.688   5.965   3.846 -0.7336  0.8348 -0.6470
 3535TIP3    H232097   4.748   5.830   3.811  1.4007  0.9566  2.3420
 3536TIP3   OH232098   5.504   1.051  16.548  0.8627 -0.8744 -0.5402
 3536TIP3    H132099   5.490   0.983  16.482 -2.4470 -0.6366 -0.1388
 3536TIP3    H232100   5.485   1.133  16.502 -0.0039 -0.5974  0.3127
 3537TIP3   OH232101   4.912   6.242  10.519 -0.0055 -0.0033 -0.8056
 3537TIP3    H132102   4.849   6.272  10.585  3.7500  3.6766  1.3106
 3537TIP3    H232103   4.875   6.272  10.436 -1.4763  1.3760  0.3068
 3538TIP3   OH232104   2.560   3.894   3.059  0.3000  0.6130  0.0212
 3538TIP3    H132105   2.565   3.802   3.032  1.7241  0.6105  0.2516
 3538TIP3    H232106   2.584   3.944   2.981 -0.6270  0.8130 -0.1491
 3539TIP3   OH232107   2.484   2.083   5.885  0.1160  0.1611  0.1572
 3539TIP3    H132108   2.409   2.120   5.932  0.3409  0.8347 -0.0194
 3539TIP3    H232109   2.466   1.989   5.884 -0.9963  0.3732 -0.3570
 3540TIP3   OH232110   5.648   4.944   3.038 -0.2236  0.0570  0.2043
 3540TIP3    H132111   5.661   4.896   2.956  0.6529 -2.5605  1.8126
 3540TIP3    H232112   5.563   4.914   3.069  0.7398 -1.1930  1.6805
 3541TIP3   OH232113   2.114   4.608  14.009 -0.1871  0.0448 -0.7452
 3541TIP3    H132114   2.074   4.526  13.981  0.9008 -0.9576  0.5809
 3541TIP3    H232115   2.208   4.589  14.013  0.2694  1.8618 -2.1144
 3542TIP3   OH232116   4.719   2.503  14.042 -0.1994  0.3126  0.4023
 3542TIP3    H132117   4.647   2.523  14.103 -0.2008 -0.5449  0.6794
 3542TIP3    H232118   4.795   2.548  14.080 -0.3112  0.1900  0.7775
 3543TIP3   OH232119   4.422   0.773  16.630 -0.1739 -0.0752  0.0880
 3543TIP3    H132120   4.404   0.825  16.552  2.7910  0.2765 -0.4030
 3543TIP3    H232121   4.439   0.838  16.699  1.8193 -0.3637 -0.1126
 3544TIP3   OH232122   1.699   3.787   3.362 -0.0820 -0.2257  0.0871
 3544TIP3    H132123   1.667   3.867   3.321 -2.0829 -0.7481  0.5766
 3544TIP3    H232124   1.794   3.789   3.348  0.0310  2.6902  0.9606
 3545TIP3   OH232125   2.968   1.890   2.562  0.2354 -0.2637  0.2732
 3545TIP3    H132126   2.896   1.846   2.517 -0.5786  0.8338  0.4472
 3545TIP3    H232127   3.026   1.820   2.591  0.9014 -0.9628 -2.6627
 3546TIP3   OH232128   5.167   3.837  15.301 -0.4495  0.7082  0.1322
 3546TIP3    H132129   5.251   3.880  15.286  0.3837  0.1716  2.9975
 3546TIP3    H232130   5.167   3.762  15.242  1.2764  0.4718  0.4056
 3547TIP3   OH232131   3.784   2.263   1.124 -0.2412  0.0421 -0.1772
 3547TIP3    H132132   3.789   2.213   1.205 -2.0416  0.0709 -0.0380
 3547TIP3    H232133   3.704   2.314   1.132 -0.8758 -0.5694 -2.3133
 3548TIP3   OH232134   1.384   2.095   1.287  0.2605  0.0781 -0.3323
 3548TIP3    H132135   1.356   2.186   1.297 -2.0425 -0.5303 -0.9593
 3548TIP3    H232136   1.358   2.053   1.369 -1.2768 -0.6161 -1.1400
 3549TIP3   OH232137   6.450   0.935   1.927  0.0646 -0.4303 -0.1235
 3549TIP3    H132138   6.355   0.937   1.912 -0.1851  0.9976  1.4711
 3549TIP3    H232139   6.487   0.968   1.846 -0.9346  1.2975  0.0989
 3550TIP3   OH232140   0.413   6.471  16.563 -0.2882 -0.2904 -0.1508
 3550TIP3    H132141   0.487   6.497  16.618 -0.8817 -0.9287  0.9728
 3550TIP3    H232142   0.350   6.543  16.570 -0.0853 -0.0765 -0.5198
 3551TIP3   OH232143   4.243   1.108  15.083  0.0745  0.1659 -0.0746
 3551TIP3    H132144   4.249   1.183  15.024  0.5054 -0.0561 -0.3136
 3551TIP3    H232145   4.291   1.134  15.161 -2.9709  1.6117  1.4161
 3552TIP3   OH232146   0.506   1.511   1.929  0.2324 -0.6864 -0.3499
 3552TIP3    H132147   0.541   1.422   1.939  0.2292 -0.5627  0.8761
 3552TIP3    H232148   0.418   1.506   1.967  0.6570  0.0997  0.7675
 3553TIP3   OH232149   2.914   4.219   3.720  0.3247 -0.3195 -0.1552
 3553TIP3    H132150   2.917   4.243   3.627  0.0141  0.4719  0.0324
 3553TIP3    H232151   2.919   4.303   3.766 -0.0260 -0.6768  0.5389
 3554TIP3   OH232152   5.764   1.452   4.999  0.1954  0.4186  0.6045
 3554TIP3    H132153   5.787   1.412   5.083 -0.2561 -1.0280  0.0557
 3554TIP3    H232154   5.733   1.379   4.945  2.1456  1.0153 -1.4143
 3555TIP3   OH232155   4.638   2.311  16.406 -0.5689 -0.8775 -0.1993
 3555TIP3    H132156   4.712   2.309  16.345 -0.3935 -2.8093  0.0228
 3555TIP3    H232157   4.629   2.403  16.431  1.6367 -0.5841 -0.3859
 3556TIP3   OH232158   0.343   1.450  16.644 -0.6654 -0.1047  0.5394
 3556TIP3    H132159   0.343   1.442  16.548  1.3261  1.3251  0.3860
 3556TIP3    H232160   0.343   1.360  16.676 -1.5215 -0.6016 -0.7814
 3557TIP3   OH232161   5.508   2.650  10.795  0.0799 -0.0284 -0.4438
 3557TIP3    H132162   5.447   2.581  10.821 -1.8921  1.1121 -1.8458
 3557TIP3    H232163   5.507   2.647  10.699 -0.1739  2.0116 -0.5275
 3558TIP3   OH232164   3.242   6.134   6.013 -0.4008 -0.2494  0.0719
 3558TIP3    H132165   3.264   6.177   6.096  0.2410  0.3231 -0.3864
 3558TIP3    H232166   3.300   6.175   5.949 -2.5332  1.0531 -1.1102
 3559TIP3   OH232167   1.410   4.311   5.643 -0.6803  0.5271 -0.1427
 3559TIP3    H132168   1.476   4.336   5.578 -1.2225  2.9052  0.1994
 3559TIP3    H232169   1.385   4.222   5.618  0.7362  0.5873 -1.8605
 3560TIP3   OH232170   3.186   2.874  11.710 -0.5161 -0.2614 -0.1071
 3560TIP3    H132171   3.271   2.851  11.673  0.8185  1.7706  1.6145
 3560TIP3    H232172   3.172   2.965  11.684 -0.7931  0.3433  2.0686
 3561TIP3   OH232173   5.973   0.650  12.587 -0.9301 -0.3978 -0.5300
 3561TIP3    H132174   5.898   0.607  12.629 -1.2486  0.8472  0.1766
 3561TIP3    H232175   5.953   0.645  12.493 -1.3796 -1.0250 -0.4070
 3562TIP3   OH232176   1.286   3.715   5.304  0.1131 -0.2097 -0.3813
 3562TIP3    H132177   1.286   3.752   5.216  2.9477 -1.9302 -1.1594
 3562TIP3    H232178   1.259   3.624   5.293 -1.8272  0.1827  0.8660
 3563TIP3   OH232179   2.521   3.632  14.562  0.1848 -0.2289 -0.3274
 3563TIP3    H132180   2.491   3.579  14.636  0.7890 -1.7680 -1.1608
 3563TIP3    H232181   2.573   3.571  14.509  1.4223  1.3629 -0.9708
 3564TIP3   OH232182   4.655   4.238  10.792 -0.4531 -0.5246 -0.3050
 3564TIP3    H132183   4.612   4.213  10.711 -0.1665  0.9550 -0.9432
 3564TIP3    H232184   4.640   4.165  10.851  1.6413 -2.8087 -2.5257
 3565TIP3   OH232185   0.023   1.527  13.675  0.3127  0.2425 -0.4611
 3565TIP3    H132186   0.012   1.522  13.770  1.0600 -0.7430 -0.4142
 3565TIP3    H232187   0.060   1.614  13.659  0.5195  0.2726  0.1866
 3566TIP3   OH232188   6.750   4.762  15.194 -0.4797  0.0556 -0.3070
 3566TIP3    H132189   6.717   4.678  15.160  0.2595 -0.6049  0.6132
 3566TIP3    H232190   6.812   4.791  15.127 -0.0444 -0.5804 -0.1863
 3567TIP3   OH232191   3.441   6.241   5.877 -0.4942 -0.5012 -0.4149
 3567TIP3    H132192   3.380   6.288   5.820 -0.0906 -0.0383 -0.4635
 3567TIP3    H232193   3.513   6.214   5.820  0.4743  0.9740  0.0954
 3568TIP3   OH232194   3.697   0.979   0.710  0.2604  0.0502  0.0059
 3568TIP3    H132195   3.789   0.984   0.735  0.2460  1.2531 -0.1520
 3568TIP3    H232196   3.649   0.989   0.792  0.2700 -0.4167  0.0677
 3569TIP3   OH232197   3.177   4.630  16.767 -0.4449 -0.4588 -0.3804
 3569TIP3    H132198   3.203   4.540  16.785  0.8181 -0.3151 -1.3712
 3569TIP3    H232199   3.110   4.624  16.700  0.8695 -0.5997 -1.7089
 3570TIP3   OH232200   4.699   2.019   4.985  0.1342  0.3692  0.0366
 3570TIP3    H132201   4.621   2.018   5.041 -0.1664 -0.5934 -0.3863
 3570TIP3    H232202   4.732   1.929   4.989  1.3431  0.8232  0.3722
 3571TIP3   OH232203   3.815   1.841   3.563  0.2321  0.0143  0.3299
 3571TIP3    H132204   3.740   1.838   3.623  0.7033 -0.6920  0.8885
 3571TIP3    H232205   3.775   1.847   3.476 -0.4656  0.4626  0.6684
 3572TIP3   OH232206   0.645   4.423  11.974 -0.1112 -0.5721 -0.1782
 3572TIP3    H132207   0.717   4.467  11.929  1.1103 -0.9667  1.3915
 3572TIP3    H232208   0.620   4.352  11.915  0.1820  0.1103 -1.1331
 3573TIP3   OH232209   5.068   4.232   3.598  0.0654 -0.2199  0.5012
 3573TIP3    H132210   5.103   4.272   3.677  0.8452  2.4315 -1.1234
 3573TIP3    H232211   5.075   4.300   3.531 -1.9749 -1.8780 -1.4960
 3574TIP3   OH232212   4.063   4.352   5.178  0.0559 -0.2003 -0.4136
 3574TIP3    H132213   3.976   4.347   5.217 -0.0881 -0.2229 -0.7279
 3574TIP3    H232214   4.111   4.278   5.215 -0.6561 -1.2974 -1.6536
 3575TIP3   OH232215   0.503   2.294  14.048 -0.1129 -0.5517 -0.3101
 3575TIP3    H132216   0.554   2.354  13.993 -1.6212  1.8390  0.8300
 3575TIP3    H232217   0.466   2.230  13.987 -0.3167  1.0258 -1.8557
 3576TIP3   OH232218   1.526   1.010  10.906  0.6921 -0.3696  0.7742
 3576TIP3    H132219   1.450   0.955  10.886  0.6368 -0.3858  1.0325
 3576TIP3    H232220   1.585   0.953  10.956  1.9134 -1.0745 -1.3727
 3577TIP3   OH232221   0.206   3.400   2.340  0.4382 -0.0172  0.2414
 3577TIP3    H132222   0.197   3.489   2.306  0.5116 -0.7367 -1.6815
 3577TIP3    H232223   0.291   3.370   2.309 -0.4824 -1.5159 -0.9186
 3578TIP3   OH232224   4.030   3.618   2.295 -0.1090  0.2883 -0.5796
 3578TIP3    H132225   3.966   3.547   2.305 -0.2493  0.4661 -0.2136
 3578TIP3    H232226   4.003   3.663   2.215 -0.4489  0.3685 -0.4219
 3579TIP3   OH232227   3.031   5.235   4.101  0.9426  0.1025  0.1565
 3579TIP3    H132228   3.048   5.151   4.143 -0.8928 -0.3046  0.1356
 3579TIP3    H232229   3.101   5.292   4.132  2.1156 -1.3749  0.3065
 3580TIP3   OH232230   1.218   1.087   2.217  0.2861  0.8192  0.0098
 3580TIP3    H132231   1.312   1.093   2.197  0.2619  0.0426 -0.3491
 3580TIP3    H232232   1.215   1.042   2.302  0.1920 -0.4731 -0.6598
 3581TIP3   OH232233   6.151   2.067  11.578 -0.1944  0.1287  0.1195
 3581TIP3    H132234   6.148   2.162  11.580 -2.3168  0.0654  1.0316
 3581TIP3    H232235   6.242   2.045  11.597  0.0666  1.9411  1.0020
 3582TIP3   OH232236   5.100   2.588   0.202  0.4912  0.5985 -0.1787
 3582TIP3    H132237   5.077   2.504   0.161  0.2946  1.1803 -1.2830
 3582TIP3    H232238   5.028   2.606   0.262 -0.3796  0.8685 -1.2923
 3583TIP3   OH232239   2.113   4.102  12.692 -0.0091 -0.1847  0.3192
 3583TIP3    H132240   2.190   4.045  12.687  0.3216  0.2855 -0.0123
 3583TIP3    H232241   2.085   4.113  12.600 -0.3973 -0.2530  0.4268
 3584TIP3   OH232242   5.027   1.467   2.361  0.1469 -0.8097  0.2526
 3584TIP3    H132243   5.114   1.435   2.382  1.2070  0.1546 -2.4468
 3584TIP3    H232244   5.037   1.512   2.277 -2.5278  1.1057  0.8681
 3585TIP3   OH232245   2.721   1.734   2.122 -0.1595 -0.1864  0.0266
 3585TIP3    H132246   2.641   1.783   2.141  0.3710  0.3652  0.8293
 3585TIP3    H232247   2.692   1.642   2.118 -1.0342  0.1191 -0.8810
 3586TIP3   OH232248   6.291   1.957  15.431 -0.1535  0.2673  0.2110
 3586TIP3    H132249   6.254   1.869  15.419 -2.9272  0.8271  3.8007
 3586TIP3    H232250   6.363   1.944  15.493  0.1868  0.3843 -0.1562
 3587TIP3   OH232251   2.579   1.335  14.029  0.2422 -0.2999 -0.5013
 3587TIP3    H132252   2.595   1.306  13.940  2.9180 -2.2981  0.5400
 3587TIP3    H232253   2.511   1.275  14.062 -0.2342 -0.0141 -0.9581
 3588TIP3   OH232254   4.271   5.682  10.696  0.0888  0.2195  0.0271
 3588TIP3    H132255   4.306   5.640  10.774 -1.3274  0.5011  0.8216
 3588TIP3    H232256   4.191   5.634  10.676  0.6248 -0.0888 -1.4767
 3589TIP3   OH232257   1.945   3.983   0.400  0.0741  0.5570 -0.2433
 3589TIP3    H132258   1.851   3.969   0.411  0.0883 -2.5149 -3.0346
 3589TIP3    H232259   1.973   4.028   0.480 -3.4177 -0.1582  1.4673
 3590TIP3   OH232260   3.250   0.041  15.795  0.6609  0.0137 -0.6686
 3590TIP3    H132261   3.167   0.012  15.758  0.6818  1.2893 -1.7805
 3590TIP3    H232262   3.264  -0.015  15.871 -0.4264 -1.2695 -1.4001
 3591TIP3   OH232263   3.654   3.148  15.881  0.1395 -0.2553  0.3528
 3591TIP3    H132264   3.668   3.071  15.826  0.7245  0.0676  0.0477
 3591TIP3    H232265   3.716   3.137  15.953 -1.4157 -1.2513  1.5652
 3592TIP3   OH232266   1.254   4.180  14.380  0.0710 -0.2815 -0.5672
 3592TIP3    H132267   1.197   4.256  14.365 -0.4486 -0.4457  0.5800
 3592TIP3    H232268   1.236   4.153  14.470  0.8317 -1.2885 -0.7082
 3593TIP3   OH232269   1.337   4.587   5.454  0.2282 -0.0217  0.0117
 3593TIP3    H132270   1.345   4.513   5.393 -0.9233 -1.8723  2.0300
 3593TIP3    H232271   1.244   4.588   5.478 -0.1578  3.2567 -1.3468
 3594TIP3   OH232272   5.191   2.893  15.686 -0.6312  0.3204 -0.0435
 3594TIP3    H132273   5.164   2.975  15.727 -0.8613 -0.0458  0.5510
 3594TIP3    H232274   5.278   2.910  15.652 -0.7464  0.8627 -0.0680
 3595TIP3   OH232275   2.726   0.075   2.759  0.0618  0.0452  0.0623
 3595TIP3    H132276   2.687   0.063   2.846  1.6839  1.9118  1.0940
 3595TIP3    H232277   2.663   0.131   2.713  0.9102  2.1364  1.3429
 3596TIP3   OH232278   4.394   3.959   2.302  0.2584 -0.0253 -0.2591
 3596TIP3    H132279   4.364   3.983   2.389  0.7063 -0.3700 -0.0072
 3596TIP3    H232280   4.361   3.870   2.288 -0.6068  0.3787 -0.8172
 3597TIP3   OH232281   0.657   0.350   5.484 -0.2371  0.1192 -0.3205
 3597TIP3    H132282   0.661   0.434   5.530 -1.4149 -0.8201  1.5609
 3597TIP3    H232283   0.566   0.343   5.453 -0.2708 -0.6673 -0.0622
 3598TIP3   OH232284   1.493   5.075   3.998 -0.4375 -0.1725  0.2862
 3598TIP3    H132285   1.554   5.128   4.048  1.3635 -1.6214 -0.3137
 3598TIP3    H232286   1.469   5.004   4.058 -1.2318  0.1672  0.3781
 3599TIP3   OH232287   5.216   0.337  13.944  0.0546 -0.2845  0.1396
 3599TIP3    H132288   5.245   0.421  13.979 -1.0394  0.2776 -0.2758
 3599TIP3    H232289   5.156   0.303  14.010 -0.5702 -0.0929 -0.3234
 3600TIP3   OH232290   0.405   0.520  11.096  0.4229 -0.1503 -0.0773
 3600TIP3    H132291   0.501   0.521  11.093  0.5274  0.1167  2.2121
 3600TIP3    H232292   0.380   0.611  11.082  0.3908 -0.4852 -2.4400
 3601TIP3   OH232293   2.631   4.240  13.888  0.4231  0.5415 -0.0760
 3601TIP3    H132294   2.659   4.322  13.928  0.4628  0.7147 -0.4622
 3601TIP3    H232295   2.703   4.179  13.907  0.7264  0.7900 -0.4261
 3602TIP3   OH232296   1.995   2.688  13.240 -0.5821  0.2817 -0.5573
 3602TIP3    H132297   2.050   2.715  13.313 -0.0177  0.0725 -0.9002
 3602TIP3    H232298   2.055   2.645  13.179 -1.5421 -2.3514  0.2649
 3603TIP3   OH232299   2.089   1.957   4.832  0.1129  0.0876 -0.1762
 3603TIP3    H132300   2.014   2.016   4.843 -0.3217 -0.7910  1.7369
 3603TIP3    H232301   2.145   1.975   4.908  0.2693 -1.5468  0.1020
 3604TIP3   OH232302   1.502   6.031   1.053 -0.1734  0.3157  0.1686
 3604TIP3    H132303   1.540   6.008   1.138 -0.8501  1.9835  0.9445
 3604TIP3    H232304   1.501   6.127   1.052 -1.2577  0.3107 -1.2218
 3605TIP3   OH232305   3.491   6.031  11.169 -0.0459  0.2265  0.7589
 3605TIP3    H132306   3.529   5.997  11.250 -1.2213 -1.3560  0.6696
 3605TIP3    H232307   3.565   6.040  11.109  0.3816 -1.7139  0.9560
 3606TIP3   OH232308   6.444   4.866  13.484  0.3741  0.2726  0.2824
 3606TIP3    H132309   6.529   4.901  13.459 -0.1196  1.6746  0.5021
 3606TIP3    H232310   6.406   4.933  13.542 -1.5411  0.4387 -1.0907
 3607TIP3   OH232311   6.356   2.073  14.596 -0.6642  0.5025 -0.4470
 3607TIP3    H132312   6.379   2.163  14.574 -1.4834  0.1911 -2.7748
 3607TIP3    H232313   6.440   2.027  14.597 -0.2766  1.2206  0.4225
 3608TIP3   OH232314   3.384   2.847  15.272  0.1478  0.2881 -0.3391
 3608TIP3    H132315   3.294   2.867  15.297  0.1226 -1.0179  0.6057
 3608TIP3    H232316   3.381   2.842  15.176 -0.5613  1.2967 -0.3784
 3609TIP3   OH232317   1.037   0.640  11.836 -0.4009 -0.7124 -0.2108
 3609TIP3    H132318   1.031   0.624  11.741  0.3643 -0.1343 -0.3667
 3609TIP3    H232319   0.947   0.658  11.863 -0.9804 -3.1846 -0.3918
 3610TIP3   OH232320   1.326   2.658   2.923 -0.0253  0.2006  0.0484
 3610TIP3    H132321   1.234   2.650   2.898 -0.2847  0.9010  0.7448
 3610TIP3    H232322   1.356   2.568   2.934 -0.1721 -0.1026 -1.7646
 3611TIP3   OH232323   3.934   1.354  12.479  0.6779 -0.9238  0.0092
 3611TIP3    H132324   3.855   1.378  12.431 -0.5989 -0.9059  2.0484
 3611TIP3    H232325   3.991   1.313  12.414 -0.1079  1.0171 -1.9566
 3612TIP3   OH232326   6.450   3.177  15.966  0.4601  0.4457 -0.2887
 3612TIP3    H132327   6.542   3.202  15.958  0.4336  0.1063 -1.8112
 3612TIP3    H232328   6.449   3.110  16.035  1.4358  0.0537 -0.6512
 3613TIP3   OH232329   1.493   0.210  11.464  0.3402 -0.4302 -0.6595
 3613TIP3    H132330   1.572   0.264  11.463  0.2208 -0.2647 -1.0596
 3613TIP3    H232331   1.501   0.155  11.386  1.5213 -2.5118  0.8846
 3614TIP3   OH232332   5.261   5.328   4.291 -0.1870 -0.0399  0.5819
 3614TIP3    H132333   5.275   5.402   4.350  0.2086 -0.4477  0.9984
 3614TIP3    H232334   5.197   5.360   4.227  1.2192  1.2347 -0.2348
 3615TIP3   OH232335   0.126   1.689   2.743 -0.3134 -0.1722  0.2374
 3615TIP3    H132336   0.091   1.617   2.691  0.5241 -0.9916  0.7827
 3615TIP3    H232337   0.216   1.662   2.764  0.1373  1.2030  0.1241
 3616TIP3   OH232338   2.307   2.157   0.039  0.3006 -0.2566 -0.0094
 3616TIP3    H132339   2.281   2.149   0.131 -0.4699 -1.4593 -0.3249
 3616TIP3    H232340   2.256   2.231   0.005  0.2674 -0.0881  0.4038
 3617TIP3   OH232341   6.268   2.403   3.580  0.4498  0.1864 -0.7106
 3617TIP3    H132342   6.289   2.312   3.563  0.2815 -0.0398  0.2710
 3617TIP3    H232343   6.183   2.416   3.538  2.5505  1.1842 -4.9254
 3618TIP3   OH232344   5.362   3.407  13.524  0.5318 -0.3434  0.2325
 3618TIP3    H132345   5.395   3.437  13.439  0.3538  0.1583  0.3379
 3618TIP3    H232346   5.326   3.321  13.507 -2.4343  1.0739 -0.8916
 3619TIP3   OH232347   2.732   3.854  11.036 -0.7089  0.1023 -0.4051
 3619TIP3    H132348   2.741   3.761  11.018  0.7053  0.2830 -0.7484
 3619TIP3    H232349   2.687   3.890  10.960 -0.5170 -0.1791 -0.6518
 3620TIP3   OH232350   5.661   1.952  10.589  0.5300 -0.3341  0.5511
 3620TIP3    H132351   5.692   1.885  10.528  0.2452  0.6670 -0.7180
 3620TIP3    H232352   5.731   2.018  10.589  0.7368 -0.5449  1.6677
 3621TIP3   OH232353   1.862   4.530  15.461 -0.3623 -0.2393 -0.7282
 3621TIP3    H132354   1.851   4.437  15.481 -0.6472  0.0230  0.3916
 3621TIP3    H232355   1.778   4.557  15.424 -0.9187 -0.0141  0.6612
 3622TIP3   OH232356   4.068   2.434   4.592  0.4938 -0.4128  0.1231
 3622TIP3    H132357   4.161   2.439   4.613 -0.0606  0.8412  2.5034
 3622TIP3    H232358   4.045   2.520   4.558 -0.3709  0.2511  2.2770
 3623TIP3   OH232359   1.283   5.291   2.025 -0.0165 -0.2083 -0.0750
 3623TIP3    H132360   1.353   5.234   2.057 -0.2292 -1.2344 -1.4140
 3623TIP3    H232361   1.242   5.326   2.105  1.2638 -0.5043  0.7274
 3624TIP3   OH232362   2.393   4.685   1.824  0.4831  0.5907 -0.3576
 3624TIP3    H132363   2.312   4.703   1.872  0.3744 -0.6767 -0.0635
 3624TIP3    H232364   2.412   4.593   1.841  1.4600  0.6183 -1.2280
 3625TIP3   OH232365   4.638   5.869  14.669  0.6925 -0.0104 -0.0632
 3625TIP3    H132366   4.545   5.846  14.669  0.1188  2.1855  1.0594
 3625TIP3    H232367   4.663   5.864  14.577 -1.2878  2.1593 -0.7820
 3626TIP3   OH232368   2.476   6.337   2.353 -0.1047  0.7302  0.5213
 3626TIP3    H132369   2.543   6.355   2.287 -0.1306  0.9670  0.5594
 3626TIP3    H232370   2.436   6.422   2.371  0.6609  0.8710  1.6522
 3627TIP3   OH232371   0.969   2.587  10.692  0.3690  0.4736 -0.3270
 3627TIP3    H132372   0.946   2.661  10.636 -1.4714  1.8429  2.1274
 3627TIP3    H232373   1.064   2.596  10.704  0.3761  1.6829 -1.1147
 3628TIP3   OH232374   5.089   6.567  16.297 -0.0157 -0.4544 -0.1994
 3628TIP3    H132375   5.027   6.511  16.251 -0.6047 -0.0828  0.1200
 3628TIP3    H232376   5.154   6.507  16.333 -0.7585 -0.9566  0.3284
 3629TIP3   OH232377   1.878   5.913   4.347 -0.1993  0.1624  0.6014
 3629TIP3    H132378   1.893   6.007   4.348 -0.3523  0.1823  1.2136
 3629TIP3    H232379   1.948   5.877   4.402  1.0101 -0.2525 -1.1903
 3630TIP3   OH232380   3.248   2.007  13.730  0.3110  0.5873  0.4378
 3630TIP3    H132381   3.203   2.090  13.746  0.4575  0.7697 -0.0916
 3630TIP3    H232382   3.275   2.011  13.638 -0.1018 -0.2410  0.2646
 3631TIP3   OH232383   1.915   6.168   1.316 -0.1423  0.4195  0.0549
 3631TIP3    H132384   1.943   6.118   1.239  1.1394  1.4984 -0.2028
 3631TIP3    H232385   1.972   6.138   1.386 -0.8038 -0.0178  0.4076
 3632TIP3   OH232386   5.833   3.069  14.935 -0.0453  0.3429 -0.2286
 3632TIP3    H132387   5.867   3.146  14.890 -0.7131  1.4685  1.1524
 3632TIP3    H232388   5.908   3.010  14.942  1.0407  1.8071  0.6845
 3633TIP3   OH232389   0.691   4.917   6.432  0.7410  0.5246 -0.0795
 3633TIP3    H132390   0.656   4.973   6.363  0.6030  2.2863  1.3533
 3633TIP3    H232391   0.651   4.951   6.512  0.9229 -1.4448  0.8794
 3634TIP3   OH232392   1.711   5.399   3.661 -0.2698  0.6243 -0.5867
 3634TIP3    H132393   1.732   5.486   3.627  0.7236  0.8134  0.4789
 3634TIP3    H232394   1.792   5.370   3.704 -1.6048  0.6145  2.0535
 3635TIP3   OH232395   0.893   5.430   0.302 -0.3329  0.2221 -0.4808
 3635TIP3    H132396   0.976   5.452   0.345 -0.5138  1.4665 -0.7381
 3635TIP3    H232397   0.851   5.367   0.361  0.1867  0.6217  0.3283
 3636TIP3   OH232398   1.023   3.984  12.427  0.2556  0.1720 -0.8364
 3636TIP3    H132399   0.974   4.055  12.470 -0.8584 -0.6858 -0.6582
 3636TIP3    H232400   0.960   3.945  12.366  0.7793 -0.8071 -0.7672
 3637TIP3   OH232401   2.676   1.904  17.097 -0.0916 -0.2368  0.0232
 3637TIP3    H132402   2.735   1.950  17.037 -0.8565  0.4448 -0.2203
 3637TIP3    H232403   2.718   1.820  17.113  1.5192  0.6913  0.7486
 3638TIP3   OH232404   1.397   1.222   3.635  0.1843  0.4251  0.3255
 3638TIP3    H132405   1.435   1.157   3.577 -1.3456  1.1490 -1.5288
 3638TIP3    H232406   1.385   1.175   3.718  2.9970 -0.4168  0.3043
 3639TIP3   OH232407   6.421   5.513   1.466 -0.0279 -0.1406  0.6383
 3639TIP3    H132408   6.514   5.524   1.489  0.0295 -1.2453  0.9581
 3639TIP3    H232409   6.377   5.499   1.550 -0.7393  1.9269  0.6576
 3640TIP3   OH232410   1.436   6.726  14.798  0.4591  0.1090 -0.6032
 3640TIP3    H132411   1.449   6.673  14.719  0.3565 -0.7879 -0.0190
 3640TIP3    H232412   1.489   6.805  14.782 -0.9463  0.7359 -2.3159
 3641TIP3   OH232413   2.149   5.646   3.441 -0.5289 -0.6464 -0.4413
 3641TIP3    H132414   2.242   5.630   3.459 -0.6942 -1.2694 -0.1544
 3641TIP3    H232415   2.143   5.741   3.431 -0.1908 -0.4264  1.3634
 3642TIP3   OH232416   4.794   6.239   0.268 -0.2303  0.2577 -0.5403
 3642TIP3    H132417   4.744   6.160   0.286  0.2791  0.0346 -0.0710
 3642TIP3    H232418   4.822   6.270   0.355 -0.2141  0.8049 -0.7385
 3643TIP3   OH232419   4.580   0.130   2.148 -0.2103  0.0062 -1.0892
 3643TIP3    H132420   4.663   0.165   2.117 -0.1197  1.2072  0.4516
 3643TIP3    H232421   4.571   0.045   2.104  2.8479 -1.1194  0.3112
 3644TIP3   OH232422   4.106   6.808   5.691 -0.3513 -0.4848  0.3295
 3644TIP3    H132423   4.111   6.903   5.683 -4.0891 -0.2867 -0.7243
 3644TIP3    H232424   4.117   6.775   5.602  3.6380 -1.3092  1.0252
 3645TIP3   OH232425   2.361   1.352  12.088  0.4841 -0.2800 -0.1233
 3645TIP3    H132426   2.366   1.398  12.004 -0.8363 -0.4397 -0.3019
 3645TIP3    H232427   2.267   1.343  12.105  0.6780 -3.3855 -0.3699
 3646TIP3   OH232428   3.232   0.735  13.335 -0.0950 -0.0108  0.1256
 3646TIP3    H132429   3.297   0.683  13.289 -0.7129 -0.0409 -0.7105
 3646TIP3    H232430   3.284   0.793  13.392  0.7858  1.5617 -2.1888
 3647TIP3   OH232431   1.948   1.712  11.814  0.0880 -0.0414 -0.1395
 3647TIP3    H132432   1.912   1.706  11.725 -0.5381 -1.1954  0.1876
 3647TIP3    H232433   1.937   1.804  11.838 -1.9278 -0.1995 -0.3663
 3648TIP3   OH232434   5.818   3.580   1.442 -0.0141 -0.0689 -0.3994
 3648TIP3    H132435   5.812   3.673   1.464 -3.0002 -0.2343 -0.3855
 3648TIP3    H232436   5.833   3.536   1.525 -1.6347  0.1556  0.0246
 3649TIP3   OH232437   2.941   1.798   0.435 -0.0008 -0.0476  0.3212
 3649TIP3    H132438   2.916   1.740   0.363  1.4222  0.5567 -0.6773
 3649TIP3    H232439   2.858   1.825   0.475 -0.9126  1.3014 -2.4195
 3650TIP3   OH232440   0.884   6.787   5.808  0.5456 -0.8229 -0.5182
 3650TIP3    H132441   0.812   6.848   5.828  1.0744 -0.2699 -0.2955
 3650TIP3    H232442   0.873   6.716   5.871  1.0650 -0.0202  0.5025
 3651TIP3   OH232443   1.740   4.148   3.488 -0.6038  0.2295  0.5829
 3651TIP3    H132444   1.739   4.135   3.393 -0.6385 -0.1228  0.6295
 3651TIP3    H232445   1.686   4.226   3.502 -2.8034 -1.2526  0.5261
 3652TIP3   OH232446   5.054   1.933   0.666  0.4237 -0.4524 -0.3204
 3652TIP3    H132447   5.093   1.908   0.581  0.1978 -0.9241 -0.2877
 3652TIP3    H232448   4.963   1.953   0.645  0.6710  0.6301 -0.3919
 3653TIP3   OH232449   3.059   1.138  13.072 -0.2065  0.2573  0.0028
 3653TIP3    H132450   3.051   1.125  13.166 -0.6943 -1.4392 -0.2653
 3653TIP3    H232451   2.974   1.111  13.037 -0.1659  1.2468 -0.8941
 3654TIP3   OH232452   0.232   2.557  14.569  0.3504 -0.0254  0.0240
 3654TIP3    H132453   0.142   2.536  14.592  1.0489 -0.8016  2.1647
 3654TIP3    H232454   0.271   2.473  14.545  0.7141  0.1999 -0.1777
 3655TIP3   OH232455   3.069   5.310  15.411  0.0049 -0.6822 -0.0692
 3655TIP3    H132456   3.156   5.276  15.433 -0.1746 -1.4248 -0.4737
 3655TIP3    H232457   3.026   5.237  15.364 -0.2331  0.2628 -1.3512
 3656TIP3   OH232458   1.137   6.588  16.248  0.1680  0.1559  0.4376
 3656TIP3    H132459   1.102   6.601  16.160  0.4624 -1.3309  0.0829
 3656TIP3    H232460   1.209   6.650  16.254 -1.8097  2.4633  0.7813
 3657TIP3   OH232461   6.424   5.322  16.417 -0.0455  0.4126 -0.2909
 3657TIP3    H132462   6.428   5.233  16.381  0.6273  0.3809 -0.1461
 3657TIP3    H232463   6.501   5.366  16.380  0.7911  0.3150  1.2887
 3658TIP3   OH232464   1.682   1.271   0.897  0.1410 -0.1143  0.3642
 3658TIP3    H132465   1.707   1.299   0.809  0.6232  0.9318  0.8270
 3658TIP3    H232466   1.742   1.317   0.955 -0.6207 -0.2599  1.2818
 3659TIP3   OH232467   0.598   1.019  14.716  0.2069 -0.0802 -0.3787
 3659TIP3    H132468   0.658   1.019  14.790 -0.7056  1.5345  0.3971
 3659TIP3    H232469   0.622   1.097  14.666 -1.3955  0.7334  0.0883
 3660TIP3   OH232470   1.932   5.474  16.537  0.1516  0.0687  0.3707
 3660TIP3    H132471   1.888   5.391  16.555 -0.7049  0.7286  1.3637
 3660TIP3    H232472   1.996   5.483  16.607  0.3397  0.1847  0.1856
 3661TIP3   OH232473   4.855   4.844   5.103  0.3430 -0.1243  0.3114
 3661TIP3    H132474   4.931   4.802   5.064  0.6307  0.5888  0.1017
 3661TIP3    H232475   4.874   4.844   5.197  0.7143  0.2717  0.2374
 3662TIP3   OH232476   6.461   3.347  14.896 -0.5804  0.1231 -0.2174
 3662TIP3    H132477   6.555   3.364  14.909 -0.9519  0.6197  2.0654
 3662TIP3    H232478   6.431   3.420  14.843  0.2258  0.2423 -0.5266
 3663TIP3   OH232479   2.054   3.305  15.196 -0.4241  0.8802  0.0901
 3663TIP3    H132480   2.057   3.209  15.202 -1.9879  0.8365  0.5172
 3663TIP3    H232481   2.066   3.323  15.103  2.2889  0.4150  0.3198
 3664TIP3   OH232482   2.543   2.372   4.844  0.5951  0.3881  0.1204
 3664TIP3    H132483   2.591   2.418   4.776  0.6589 -0.3414 -0.3251
 3664TIP3    H232484   2.508   2.442   4.900  1.2517  0.9506 -0.1732
 3665TIP3   OH232485   0.199   3.891   5.711  0.2476  0.3887  0.0982
 3665TIP3    H132486   0.170   3.926   5.627  0.0537  0.5226  0.2239
 3665TIP3    H232487   0.126   3.838   5.742  1.3871 -2.1159 -1.2322
 3666TIP3   OH232488   5.653   5.180   1.537  0.3372  0.0913  0.6641
 3666TIP3    H132489   5.746   5.204   1.539  0.0478  1.1458  1.7816
 3666TIP3    H232490   5.651   5.089   1.567  1.0935 -0.2193 -0.2200
 3667TIP3   OH232491   1.805   4.903  17.110 -0.3327  0.0625  0.0205
 3667TIP3    H132492   1.842   4.830  17.061  1.1498  0.6637  0.2110
 3667TIP3    H232493   1.772   4.962  17.043  2.0263  1.0607 -0.3261
 3668TIP3   OH232494   6.248   6.770   1.687 -0.2334  0.6354  0.0760
 3668TIP3    H132495   6.272   6.785   1.778  2.3702 -1.9113 -0.1090
 3668TIP3    H232496   6.169   6.716   1.692  0.3109 -0.1067  0.8566
 3669TIP3   OH232497   3.967   4.819   1.222 -0.1240 -0.1127  0.1369
 3669TIP3    H132498   3.958   4.743   1.166  0.2572 -0.5686  0.6854
 3669TIP3    H232499   3.942   4.893   1.167  0.7450 -0.4972 -0.7969
 3670TIP3   OH232500   1.646   4.750   4.873  0.0257  0.5887  0.0678
 3670TIP3    H132501   1.559   4.725   4.904 -0.2518  1.9895  0.4769
 3670TIP3    H232502   1.630   4.824   4.814  0.8819  0.3982 -0.4106
 3671TIP3   OH232503   3.234   4.216  14.802  0.2897  0.2799 -0.2569
 3671TIP3    H132504   3.269   4.251  14.720  1.3604  1.7811  0.8193
 3671TIP3    H232505   3.305   4.163  14.838  0.8305  1.8053  1.0014
 3672TIP3   OH232506   4.242   3.158  14.602  0.4307  0.0969  0.0308
 3672TIP3    H132507   4.297   3.237  14.608 -1.4486  1.3758  0.7130
 3672TIP3    H232508   4.276   3.100  14.670  0.6379  1.0720  0.7702
 3673TIP3   OH232509   3.633   6.543  10.801 -0.8963  0.1658 -0.3051
 3673TIP3    H132510   3.680   6.466  10.834 -0.2395  0.1362 -1.2851
 3673TIP3    H232511   3.549   6.541  10.847 -0.9863 -1.2787 -0.4887
 3674TIP3   OH232512   2.511   4.080  12.199 -0.6468 -0.9392  0.4372
 3674TIP3    H132513   2.586   4.035  12.238 -0.1377  0.1694  0.7479
 3674TIP3    H232514   2.445   4.080  12.269 -1.2712 -2.6787 -0.1186
 3675TIP3   OH232515   4.774   2.084   4.745 -0.0255  0.1462 -0.3348
 3675TIP3    H132516   4.708   2.147   4.715  0.1812  0.9370  0.8149
 3675TIP3    H232517   4.741   2.053   4.829 -0.4272 -1.7747 -1.1932
 3676TIP3   OH232518   4.250   4.675  10.534  0.2396  0.7551 -0.4734
 3676TIP3    H132519   4.335   4.639  10.507  0.3766  0.0742  0.8426
 3676TIP3    H232520   4.189   4.603  10.522 -0.3223  1.4940 -2.2133
 3677TIP3   OH232521   4.066   2.995   4.001  0.2907  0.0158 -0.2411
 3677TIP3    H132522   4.101   2.929   4.060  1.9042  0.5696 -0.5481
 3677TIP3    H232523   4.022   3.058   4.059 -2.0363 -1.7444 -0.0207
 3678TIP3   OH232524   4.883   3.148   2.179  0.4756 -0.2945 -0.0244
 3678TIP3    H132525   4.855   3.202   2.254 -1.2905 -2.3826  0.8929
 3678TIP3    H232526   4.938   3.080   2.218 -0.7691 -1.6255 -0.5459
 3679TIP3   OH232527   4.887   2.420   4.210  0.1193 -0.4849  0.5270
 3679TIP3    H132528   4.942   2.365   4.154  0.0782 -0.4314  0.4335
 3679TIP3    H232529   4.949   2.478   4.255  0.2383 -1.2006  1.2905
 3680TIP3   OH232530   3.819   0.210  15.320 -0.0847  0.7019  0.0262
 3680TIP3    H132531   3.794   0.278  15.383  0.1013  0.7086  0.0935
 3680TIP3    H232532   3.880   0.253  15.261  2.5267 -0.1968  1.9477
 3681TIP3   OH232533   5.433   5.314   5.039  0.2956  0.3448  0.2178
 3681TIP3    H132534   5.376   5.257   5.090 -0.0966 -0.7549 -1.4105
 3681TIP3    H232535   5.509   5.329   5.095 -0.1656 -0.7618  1.1576
 3682TIP3   OH232536   2.402   1.767   6.229  0.4903 -0.8908  0.1067
 3682TIP3    H132537   2.427   1.717   6.306 -0.0927 -1.2962  0.0324
 3682TIP3    H232538   2.327   1.721   6.193 -0.7135  0.5973  0.6301
 3683TIP3   OH232539   4.838   2.543   1.117  0.3331 -0.7418 -0.0371
 3683TIP3    H132540   4.800   2.459   1.139 -0.0711 -1.0649 -1.8375
 3683TIP3    H232541   4.807   2.603   1.185 -0.1989 -1.8345  0.6839
 3684TIP3   OH232542   0.131   5.001   5.802  0.1942 -0.2735  0.5196
 3684TIP3    H132543   0.088   4.948   5.869  0.7866  1.3227  2.1994
 3684TIP3    H232544   0.138   4.943   5.727 -3.7292 -0.9480  0.6097
 3685TIP3   OH232545   4.755   5.949   5.154 -0.6811 -1.1162 -0.0807
 3685TIP3    H132546   4.660   5.947   5.152 -0.6837 -0.2975 -1.6101
 3685TIP3    H232547   4.782   5.912   5.070  0.3141  0.2411 -0.3760
 3686TIP3   OH232548   6.323   2.384   4.726  0.3608 -0.3279  0.2109
 3686TIP3    H132549   6.258   2.357   4.661  0.0863 -1.2767  0.8700
 3686TIP3    H232550   6.349   2.303   4.769  0.3147  0.3332  1.4950
 3687TIP3   OH232551   2.801   3.486  13.056  0.0270  0.5269 -0.0452
 3687TIP3    H132552   2.754   3.487  13.139 -1.2706 -1.6690 -0.7080
 3687TIP3    H232553   2.795   3.576  13.023 -0.7048  1.0584  1.5273
 3688TIP3   OH232554   6.604   5.682  13.847  0.7448 -0.0440 -0.7007
 3688TIP3    H132555   6.517   5.668  13.812 -0.1824 -0.7592  1.7634
 3688TIP3    H232556   6.591   5.744  13.919  1.7807 -2.4501  1.6300
 3689TIP3   OH232557   4.450   4.951  16.653  0.2555 -0.2660 -0.0346
 3689TIP3    H132558   4.473   4.882  16.591  1.8664 -0.4869  0.7996
 3689TIP3    H232559   4.423   4.904  16.732 -0.2451  0.0431 -0.0205
 3690TIP3   OH232560   3.615   2.580   6.352  0.5593 -0.4661  0.1744
 3690TIP3    H132561   3.627   2.495   6.310  0.1579 -0.4293 -0.0211
 3690TIP3    H232562   3.698   2.597   6.397  1.4203  0.0027 -1.5223
 3691TIP3   OH232563   1.254   2.256  16.683 -0.0982  0.2620  0.0095
 3691TIP3    H132564   1.314   2.214  16.622  1.3085  1.8504  0.2742
 3691TIP3    H232565   1.226   2.186  16.742  1.6515 -0.4463  0.0077
 3692TIP3   OH232566   4.737   6.653   4.021 -0.4713 -0.6117 -0.2186
 3692TIP3    H132567   4.808   6.589   4.018 -3.3061 -3.9215 -0.1124
 3692TIP3    H232568   4.737   6.693   3.934  1.2207 -0.8240 -0.3450
 3693TIP3   OH232569   4.622   1.801   0.866  0.1689 -0.4279  0.4291
 3693TIP3    H132570   4.543   1.854   0.860 -0.1896 -0.9531  0.5139
 3693TIP3    H232571   4.632   1.763   0.778  1.1588  0.8152 -0.0225
 3694TIP3   OH232572   5.100   6.594   3.970  0.8223  0.2695 -0.0750
 3694TIP3    H132573   5.068   6.513   4.010 -0.3335  0.3227 -0.8778
 3694TIP3    H232574   5.190   6.573   3.944 -0.0378 -1.3589 -1.8787
 3695TIP3   OH232575   0.990   5.403  14.609 -0.0620 -0.6054 -0.1773
 3695TIP3    H132576   1.028   5.341  14.547  2.1624  0.2341  0.3215
 3695TIP3    H232577   1.044   5.396  14.687 -2.4807 -1.2130  1.4945
 3696TIP3   OH232578   2.735   3.829  13.353 -0.2098  0.3928  0.3030
 3696TIP3    H132579   2.826   3.824  13.324 -0.6235 -1.5735 -0.8012
 3696TIP3    H232580   2.733   3.903  13.414  1.9765  0.8646 -0.1377
 3697TIP3   OH232581   5.747   1.211  16.668 -0.0497 -0.5356 -0.3693
 3697TIP3    H132582   5.817   1.149  16.649  1.1161  0.4745  0.5430
 3697TIP3    H232583   5.668   1.158  16.670  0.5193 -1.5193 -2.5491
 3698TIP3   OH232584   4.935   4.421   3.337 -0.5301  0.3167 -0.5979
 3698TIP3    H132585   4.889   4.337   3.347 -1.2086  0.6423 -0.9790
 3698TIP3    H232586   5.012   4.400   3.284  0.0380 -0.3277  0.4706
 3699TIP3   OH232587   3.021   0.433  14.887 -0.2637  0.1501 -0.3339
 3699TIP3    H132588   3.070   0.456  14.967  0.6204  2.5738 -1.5107
 3699TIP3    H232589   2.974   0.353  14.910  1.8112 -0.5028  1.8622
 3700TIP3   OH232590   0.527   1.922  11.585 -0.0009  0.8862  0.8036
 3700TIP3    H132591   0.616   1.930  11.620  0.2533  2.1953 -0.0797
 3700TIP3    H232592   0.474   1.893  11.659  1.1675  0.0765  1.3341
 3701TIP3   OH232593   5.635   1.622   1.831  0.3035 -0.6989  0.3521
 3701TIP3    H132594   5.547   1.661   1.834  1.0080  0.9468 -0.0490
 3701TIP3    H232595   5.687   1.683   1.778  2.1468 -0.7414  2.0693
 3702TIP3   OH232596   1.355   5.382   3.216 -0.1113 -0.3663  0.1057
 3702TIP3    H132597   1.381   5.390   3.124 -0.1637 -2.3661 -0.1031
 3702TIP3    H232598   1.417   5.437   3.264  1.3540 -1.1231 -0.8991
 3703TIP3   OH232599   2.840   0.902   3.914  0.0903 -0.7510 -0.0524
 3703TIP3    H132600   2.805   0.866   3.995 -0.1237 -0.3302  0.0432
 3703TIP3    H232601   2.887   0.981   3.941 -1.9607  0.6902 -0.6139
 3704TIP3   OH232602   4.349   3.732  14.264 -0.1680 -0.2634 -0.1239
 3704TIP3    H132603   4.400   3.667  14.216  1.2693 -0.1774  1.2182
 3704TIP3    H232604   4.303   3.681  14.331  0.2555 -0.0227  0.3568
 3705TIP3   OH232605   6.200   0.347   3.787 -0.9883 -0.1726 -0.3104
 3705TIP3    H132606   6.262   0.277   3.808  3.5542  2.9494 -2.3644
 3705TIP3    H232607   6.175   0.382   3.873  1.8365 -0.1730  0.5787
 3706TIP3   OH232608   3.495   0.826   5.331  0.3871 -0.1419  0.3732
 3706TIP3    H132609   3.479   0.769   5.406 -1.2125  0.1097  0.2542
 3706TIP3    H232610   3.413   0.822   5.280  1.0297  0.5750 -0.7533
 3707TIP3   OH232611   1.112   2.447  14.347 -0.4012  0.1773 -0.1810
 3707TIP3    H132612   1.199   2.485  14.333 -0.4228  0.4522  0.4194
 3707TIP3    H232613   1.051   2.516  14.321 -0.4471  0.0219 -0.4992
 3708TIP3   OH232614   0.992   0.695   5.998 -0.4939  0.3959  0.0642
 3708TIP3    H132615   1.086   0.679   5.993 -0.6961 -0.7666 -0.2364
 3708TIP3    H232616   0.957   0.659   5.916 -1.4586 -1.1422  1.1163
 3709TIP3   OH232617   6.782   1.301  11.634  0.4074 -0.1466  0.2041
 3709TIP3    H132618   6.777   1.304  11.538  0.5923 -1.1920  0.1485
 3709TIP3    H232619   6.805   1.210  11.653  0.4640  0.0823  1.2402
 3710TIP3   OH232620   2.396   3.252  12.695 -0.0974 -0.6077 -0.0679
 3710TIP3    H132621   2.463   3.223  12.757  0.4365 -0.9797 -0.8150
 3710TIP3    H232622   2.442   3.310  12.635 -0.6325 -0.1815 -0.0747
 3711TIP3   OH232623   3.191   4.871   5.652  0.2058  0.3783  0.4881
 3711TIP3    H132624   3.198   4.776   5.639  2.3981  0.3018  1.8653
 3711TIP3    H232625   3.106   4.894   5.614 -0.4192 -2.1440  0.2168
 3712TIP3   OH232626   6.270   3.322  13.457 -0.4893  0.1087  0.2339
 3712TIP3    H132627   6.327   3.385  13.412  0.4809 -0.3525  0.7775
 3712TIP3    H232628   6.331   3.256  13.491 -1.2668  0.0567  1.5577
 3713TIP3   OH232629   2.874   4.702  11.367 -0.1349 -0.2812 -0.8000
 3713TIP3    H132630   2.887   4.718  11.460 -1.3805 -1.5836 -0.3762
 3713TIP3    H232631   2.789   4.658  11.362 -1.0652  1.6567 -2.7595
 3714TIP3   OH232632   3.578   4.831  15.395 -0.3346  0.5073  0.1470
 3714TIP3    H132633   3.593   4.855  15.303 -1.1204  0.6630  0.0585
 3714TIP3    H232634   3.600   4.737  15.399  0.5951  0.7157  0.0105
 3715TIP3   OH232635   0.554   4.548  13.104 -0.4604 -0.2350 -0.2840
 3715TIP3    H132636   0.542   4.453  13.111 -1.6831 -0.1766 -1.3565
 3715TIP3    H232637   0.469   4.584  13.128  0.5078  0.6795  1.8626
 3716TIP3   OH232638   1.990   6.258  12.659  0.5476 -0.8813  0.1118
 3716TIP3    H132639   2.072   6.302  12.638  0.6067  0.0753  2.2918
 3716TIP3    H232640   1.980   6.266  12.754 -1.2183 -2.4778  0.1195
 3717TIP3   OH232641   3.505   4.406   1.540 -0.4788 -0.0775 -0.5241
 3717TIP3    H132642   3.438   4.460   1.582 -0.4179 -0.9589  0.7286
 3717TIP3    H232643   3.586   4.429   1.585 -0.0052  0.6371 -1.7156
 3718TIP3   OH232644   3.223   2.912  16.845  0.0865  0.0087 -0.2933
 3718TIP3    H132645   3.209   2.835  16.790 -1.4620 -0.0511  0.1581
 3718TIP3    H232646   3.211   2.880  16.934  0.4531  0.5549 -0.0416
 3719TIP3   OH232647   1.683   4.006   0.467  0.7160  0.2638 -0.1366
 3719TIP3    H132648   1.656   4.002   0.375 -0.0182 -0.2627  0.0893
 3719TIP3    H232649   1.637   3.932   0.508 -0.3974  1.5536  1.0106
 3720TIP3   OH232650   3.107   2.768   4.986  0.0017  0.0631  0.4042
 3720TIP3    H132651   3.176   2.785   5.050  1.1825 -1.8573 -0.2834
 3720TIP3    H232652   3.044   2.713   5.032  0.0767 -0.0453  0.3785
 3721TIP3   OH232653   2.095   0.634   1.251 -0.4082 -0.1866 -0.6903
 3721TIP3    H132654   2.059   0.709   1.204 -0.4038 -0.3586 -0.9660
 3721TIP3    H232655   2.135   0.580   1.183 -1.1604 -0.8641 -0.6010
 3722TIP3   OH232656   1.101   5.721   1.620 -0.2518  0.4429  0.3829
 3722TIP3    H132657   1.154   5.768   1.684  3.4983  0.2130 -2.3713
 3722TIP3    H232658   1.152   5.642   1.601 -2.0803 -0.2882 -1.6694
 3723TIP3   OH232659   1.431   5.123   3.094  0.3607 -0.0828 -0.0241
 3723TIP3    H132660   1.437   5.206   3.142 -1.5265  0.9101 -1.4456
 3723TIP3    H232661   1.481   5.139   3.014  1.4522 -0.9228  0.4745
 3724TIP3   OH232662   2.445   6.276  12.203 -0.6377 -0.4535  0.1137
 3724TIP3    H132663   2.352   6.258  12.210 -0.9685  0.8886 -0.6246
 3724TIP3    H232664   2.450   6.360  12.158  0.8500  0.8558  2.6048
 3725TIP3   OH232665   0.881   3.078   6.845 -0.1936  0.2807  0.2766
 3725TIP3    H132666   0.902   3.001   6.897  2.3967 -0.0746 -1.2260
 3725TIP3    H232667   0.840   3.042   6.766 -1.3636  0.6375  0.7063
 3726TIP3   OH232668   5.120   5.090  14.337  0.3426  0.9832 -0.6457
 3726TIP3    H132669   5.154   5.127  14.418  0.0094 -1.5065  0.6999
 3726TIP3    H232670   5.059   5.022  14.366 -0.0351  0.2711 -2.9878
 3727TIP3   OH232671   5.000   5.767   0.183  0.2800 -0.2700 -0.2532
 3727TIP3    H132672   5.012   5.855   0.146 -1.0983  0.4552  0.9579
 3727TIP3    H232673   4.931   5.728   0.131 -0.9293  0.3618  0.8355
 3728TIP3   OH232674   1.238   1.138  15.580  0.2667  0.2763  0.0234
 3728TIP3    H132675   1.306   1.091  15.532 -0.9236 -1.7946  0.3316
 3728TIP3    H232676   1.244   1.228  15.547  4.7274  0.7420  1.7760
 3729TIP3   OH232677   0.809   1.275  13.840  0.2292 -0.1319 -0.1820
 3729TIP3    H132678   0.781   1.351  13.891  1.6186 -1.0845  2.0421
 3729TIP3    H232679   0.856   1.313  13.765  0.2712  1.2226  0.5128
 3730TIP3   OH232680   6.595   1.481  14.614 -0.2790  0.4704 -0.4060
 3730TIP3    H132681   6.518   1.503  14.668 -1.1366 -1.0783 -0.9550
 3730TIP3    H232682   6.640   1.413  14.664  0.1327  0.5993 -0.6049
 3731TIP3   OH232683   6.819   4.939   1.061  0.4988 -0.3478 -0.3029
 3731TIP3    H132684   6.857   4.885   1.130  1.0480  0.1327 -0.2299
 3731TIP3    H232685   6.734   4.899   1.044  0.1296 -0.1397  1.0192
 3732TIP3   OH232686   3.592   1.324   4.408  0.0248  0.1743  0.4506
 3732TIP3    H132687   3.632   1.407   4.383  1.1089 -0.1068  1.1879
 3732TIP3    H232688   3.613   1.314   4.501 -1.0659 -0.3893  0.6505
 3733TIP3   OH232689   3.521   0.272  16.565  0.0427 -0.0330  0.2445
 3733TIP3    H132690   3.609   0.237  16.574 -0.2910 -0.9092  0.1776
 3733TIP3    H232691   3.532   0.354  16.518  0.7734 -0.4073 -0.2463
 3734TIP3   OH232692   2.103   3.814   5.059  1.1625 -0.5231 -0.1781
 3734TIP3    H132693   2.024   3.773   5.023  0.0188 -0.5597  2.2928
 3734TIP3    H232694   2.170   3.746   5.052  0.3440 -1.3660  0.0275
 3735TIP3   OH232695   6.236   3.508   3.758  0.6050 -0.2807 -0.4966
 3735TIP3    H132696   6.317   3.559   3.753  0.2056  0.3053 -0.9583
 3735TIP3    H232697   6.265   3.420   3.782  1.3843 -0.0844 -0.7148
 3736TIP3   OH232698   4.129   4.513  16.865  0.2632  0.1886  0.3709
 3736TIP3    H132699   4.151   4.454  16.937 -0.1788 -0.2027  0.1875
 3736TIP3    H232700   4.147   4.601  16.900  3.1442 -0.1580 -0.1619
 3737TIP3   OH232701   3.445   0.030   5.034  0.3284  0.3134  0.4031
 3737TIP3    H132702   3.502   0.079   5.093  2.9288 -0.0040 -1.7021
 3737TIP3    H232703   3.399   0.098   4.984  0.9152  0.6106  0.2559
 3738TIP3   OH232704   4.409   2.584  15.728  0.8234  0.2013  0.0825
 3738TIP3    H132705   4.318   2.589  15.699  1.0104  0.3749 -0.4784
 3738TIP3    H232706   4.411   2.511  15.790  0.5889 -0.7027 -0.9639
 3739TIP3   OH232707   0.950   3.021   0.685  0.2895 -0.6132 -0.5674
 3739TIP3    H132708   0.942   2.938   0.732  0.2681 -0.5982 -0.5445
 3739TIP3    H232709   1.023   3.066   0.729 -0.6015 -0.0188  0.3269
 3740TIP3   OH232710   4.604   4.200   2.566 -0.3119 -0.1490 -0.0287
 3740TIP3    H132711   4.637   4.204   2.477  0.0253 -4.6965 -0.1805
 3740TIP3    H232712   4.509   4.202   2.557 -0.2683  0.1671 -0.4271
 3741TIP3   OH232713   2.516   1.159   6.156 -0.1093 -0.4485  0.3652
 3741TIP3    H132714   2.448   1.099   6.185  2.2359 -2.5226  1.7881
 3741TIP3    H232715   2.512   1.233   6.217 -1.5721 -0.1433 -0.0729
 3742TIP3   OH232716   1.317   3.333   5.848  0.1882 -0.7221 -0.4789
 3742TIP3    H132717   1.338   3.298   5.935  0.5294 -0.6335 -0.5255
 3742TIP3    H232718   1.311   3.256   5.792 -0.4944 -0.8181 -0.2833
 3743TIP3   OH232719   5.144   4.542   5.930 -0.6317  0.7108  0.1317
 3743TIP3    H132720   5.202   4.508   5.999  2.8741  0.9307 -2.5661
 3743TIP3    H232721   5.170   4.634   5.921 -0.5409  0.4966 -1.9297
 3744TIP3   OH232722   5.092   2.428   1.406  0.3290 -0.2173  0.2466
 3744TIP3    H132723   5.128   2.513   1.432 -0.2404 -0.2256  1.0710
 3744TIP3    H232724   5.168   2.370   1.401  0.8245  0.5394 -1.1220
 3745TIP3   OH232725   5.128   0.319  14.214 -0.0367 -0.2091 -0.5976
 3745TIP3    H132726   5.191   0.273  14.269  0.3940  0.3396 -0.6292
 3745TIP3    H232727   5.047   0.268  14.223  0.2443 -0.5721 -0.0810
 3746TIP3   OH232728   2.392   1.868   1.001  0.1531 -0.4438 -0.2052
 3746TIP3    H132729   2.475   1.833   1.035  0.2351  0.3152  0.3846
 3746TIP3    H232730   2.327   1.802   1.024  0.4290 -0.5614  0.2564
 3747TIP3   OH232731   4.580   1.455  14.287 -0.2766  0.2371  0.2847
 3747TIP3    H132732   4.538   1.388  14.233 -0.5800  1.2102 -0.7174
 3747TIP3    H232733   4.557   1.538  14.244  1.3613  0.8796  0.6257
 3748TIP3   OH232734   1.656   3.495   6.187  0.1569 -0.0790  0.0380
 3748TIP3    H132735   1.652   3.591   6.189 -2.2386 -0.1720  3.0834
 3748TIP3    H232736   1.723   3.473   6.252  0.3800 -0.4928 -0.3328
 3749TIP3   OH232737   1.110   4.166  10.775 -0.2108 -0.2637 -0.8171
 3749TIP3    H132738   1.197   4.175  10.815 -1.6273 -1.5259  2.8336
 3749TIP3    H232739   1.074   4.255  10.776  0.2432 -0.0792 -0.3712
 3750TIP3   OH232740   2.607   3.895   6.051 -0.3052  0.2946  0.2820
 3750TIP3    H132741   2.620   3.975   6.102 -0.4914  0.2156  0.4524
 3750TIP3    H232742   2.567   3.834   6.112  1.7783 -0.6378  0.7581
 3751TIP3   OH232743   4.907   2.798  11.010 -0.7056 -0.0772 -0.0646
 3751TIP3    H132744   4.852   2.721  10.994  0.1630 -0.6804 -0.1932
 3751TIP3    H232745   4.977   2.791  10.945  1.0337 -0.7817  1.8259
 3752TIP3   OH232746   4.185   0.655   4.547  0.3339 -0.4009  0.3071
 3752TIP3    H132747   4.112   0.593   4.549 -0.7533  0.8759  0.9589
 3752TIP3    H232748   4.179   0.701   4.630  1.1710  0.5507 -0.1550
 3753TIP3   OH232749   1.692   4.715   0.275  0.2469 -0.0545  0.4388
 3753TIP3    H132750   1.737   4.751   0.352  0.7139  0.0758  0.1067
 3753TIP3    H232751   1.706   4.621   0.281 -0.6796 -0.1517  1.1214
 3754TIP3   OH232752   2.400   0.100  15.149  0.6196 -0.2350  0.2209
 3754TIP3    H132753   2.488   0.116  15.115  1.9413 -1.5446  2.8825
 3754TIP3    H232754   2.386   0.172  15.212  0.8163 -1.3816  1.6073
 3755TIP3   OH232755   1.278   4.033   4.788 -0.0712 -0.4909 -1.0678
 3755TIP3    H132756   1.187   4.011   4.804 -0.2307  0.3789 -0.7532
 3755TIP3    H232757   1.284   4.127   4.807  1.5582 -1.1220  1.8894
 3756TIP3   OH232758   1.689   3.257   0.440 -0.0152  0.3902 -0.4461
 3756TIP3    H132759   1.715   3.165   0.450  2.2211  0.9255 -1.0680
 3756TIP3    H232760   1.593   3.255   0.443 -0.0451 -2.0783 -1.5554
 3757TIP3   OH232761   2.181   2.146   1.879  0.4310  0.1670  0.3636
 3757TIP3    H132762   2.123   2.095   1.936  0.8698 -0.5822  0.1521
 3757TIP3    H232763   2.269   2.125   1.911  0.5306  2.4326  1.6289
 3758TIP3   OH232764   0.033   4.574  14.710  0.2251 -0.1820  0.6548
 3758TIP3    H132765   0.092   4.514  14.665 -0.9124  0.1105 -1.2789
 3758TIP3    H232766   0.069   4.661  14.691  0.8518 -0.1359  1.9711
 3759TIP3   OH232767   5.254   0.578   2.309 -0.6877 -0.0939 -0.1798
 3759TIP3    H132768   5.261   0.576   2.404 -0.5244  0.2877 -0.1853
 3759TIP3    H232769   5.175   0.525   2.290 -1.6691  1.1906  0.2683
 3760TIP3   OH232770   4.628   0.650  12.001 -0.1467 -0.1776 -0.3799
 3760TIP3    H132771   4.653   0.704  11.926 -0.6342  0.1781 -0.2930
 3760TIP3    H232772   4.690   0.675  12.071  0.0147 -0.1737 -0.5250
 3761TIP3   OH232773   3.504   3.999  12.534 -0.4920  0.8557 -0.0147
 3761TIP3    H132774   3.543   3.931  12.589  0.7239  2.0597  0.6633
 3761TIP3    H232775   3.442   4.044  12.591 -1.3025  0.3303 -0.4658
 3762TIP3   OH232776   2.816   3.043   4.193  0.2121 -0.4811 -0.1445
 3762TIP3    H132777   2.900   3.026   4.150  1.0828  0.3243  1.2069
 3762TIP3    H232778   2.811   2.980   4.264 -0.6462 -0.9545 -0.6057
 3763TIP3   OH232779   6.764   1.072  13.376 -0.3422  0.0144 -0.1628
 3763TIP3    H132780   6.790   1.154  13.334 -0.4467 -0.1516 -0.5510
 3763TIP3    H232781   6.757   1.094  13.469 -0.5914  0.5011 -0.2953
 3764TIP3   OH232782   1.886   4.819   0.439 -0.2976 -0.3347 -0.0178
 3764TIP3    H132783   1.880   4.784   0.528 -2.8188 -0.9338 -0.3910
 3764TIP3    H232784   1.860   4.910   0.447  3.4971  0.7776  0.4857
 3765TIP3   OH232785   0.361   1.568   5.294 -0.1417  0.1804 -0.0999
 3765TIP3    H132786   0.287   1.575   5.354 -0.6376 -1.0330 -0.5479
 3765TIP3    H232787   0.342   1.631   5.224 -1.1891 -0.7151 -0.6506
 3766TIP3   OH232788   0.593   1.029   4.879 -0.4993 -0.1745  0.3049
 3766TIP3    H132789   0.568   1.119   4.896  1.1013  0.3671 -0.1123
 3766TIP3    H232790   0.605   1.025   4.784  1.1775 -0.3614  0.5168
 3767TIP3   OH232791   0.615   4.193   3.385 -0.5791 -0.2587  0.1132
 3767TIP3    H132792   0.519   4.194   3.384 -0.5813 -0.2130 -1.2144
 3767TIP3    H232793   0.638   4.171   3.475 -1.8467 -0.8817  0.3020
 3768TIP3   OH232794   2.526   5.144   5.113 -0.3455 -0.4882  0.0477
 3768TIP3    H132795   2.502   5.137   5.020 -2.1611 -1.8824  0.5952
 3768TIP3    H232796   2.504   5.234   5.136 -3.5721 -1.1813  0.0423
 3769TIP3   OH232797   0.336   4.143  15.059  0.1289 -0.1998 -0.5333
 3769TIP3    H132798   0.350   4.053  15.086 -0.3022 -0.1910 -0.2787
 3769TIP3    H232799   0.251   4.166  15.096 -0.0067  0.1337 -1.0549
 3770TIP3   OH232800   3.511   6.258  15.381  0.7413 -0.3890 -0.8703
 3770TIP3    H132801   3.465   6.292  15.305 -1.9418 -0.5174  0.6208
 3770TIP3    H232802   3.527   6.166  15.360  0.1287 -0.3913 -1.3320
 3771TIP3   OH232803   4.441   3.701   1.038 -0.2017  0.2753  0.1513
 3771TIP3    H132804   4.418   3.777   0.984 -0.1417 -0.0409 -0.3129
 3771TIP3    H232805   4.477   3.637   0.977  0.4774  0.1675  0.6589
 3772TIP3   OH232806   5.331   5.009   0.281  0.0515 -0.0271  0.4603
 3772TIP3    H132807   5.264   5.076   0.265 -0.7600 -0.7819  0.6075
 3772TIP3    H232808   5.414   5.056   0.281 -0.4208  0.8044 -0.5091
 3773TIP3   OH232809   6.559   0.041   3.675 -0.3231  1.1282  0.4028
 3773TIP3    H132810   6.585   0.127   3.641  2.2500 -0.3282 -1.5907
 3773TIP3    H232811   6.477   0.021   3.630 -1.1947  2.7334  1.2498
 3774TIP3   OH232812   0.771   0.728  11.872 -0.1283  0.2268  0.1583
 3774TIP3    H132813   0.680   0.745  11.849 -0.4588 -1.5433  0.0676
 3774TIP3    H232814   0.784   0.774  11.955 -0.9748  0.8337 -0.0390
 3775TIP3   OH232815   1.533   4.195   4.546 -0.4649  0.4311  0.4064
 3775TIP3    H132816   1.536   4.187   4.641  0.2845 -1.4820  0.2516
 3775TIP3    H232817   1.608   4.144   4.515 -1.4540 -0.0768 -1.2503
 3776TIP3   OH232818   6.457   4.457  11.891  0.7681 -0.8520  0.0017
 3776TIP3    H132819   6.455   4.452  11.986 -0.3617  1.4403  0.1489
 3776TIP3    H232820   6.391   4.524  11.869  0.0433 -2.2925 -2.4593
 3777TIP3   OH232821   0.357   5.124   5.126  0.8557 -0.2899  0.4030
 3777TIP3    H132822   0.317   5.050   5.171 -0.8260  0.4870  0.2184
 3777TIP3    H232823   0.381   5.185   5.195  2.3479 -1.0377  0.5642
 3778TIP3   OH232824   4.022   3.893   3.175  0.2521 -0.1348 -0.0032
 3778TIP3    H132825   4.094   3.952   3.197 -0.3967  0.5314  0.3803
 3778TIP3    H232826   4.026   3.824   3.242  1.1834 -0.6898 -0.6172
 3779TIP3   OH232827   3.219   3.176   1.366 -0.0449  0.4670 -0.6463
 3779TIP3    H132828   3.272   3.186   1.445 -0.7930  0.4908 -0.1449
 3779TIP3    H232829   3.278   3.197   1.294  1.0413 -0.9276 -0.1845
 3780TIP3   OH232830   0.579   0.869   0.058 -0.4760  0.9093 -0.5928
 3780TIP3    H132831   0.542   0.783   0.036  0.3483  0.7529 -1.3996
 3780TIP3    H232832   0.592   0.866   0.152  1.1629 -0.5101 -0.8385
 3781TIP3   OH232833   1.284   3.584  12.584  0.3527  0.1630 -0.0978
 3781TIP3    H132834   1.360   3.568  12.641 -1.0205 -1.9190  1.2146
 3781TIP3    H232835   1.291   3.517  12.515  0.2940  0.6577 -0.5832
 3782TIP3   OH232836   1.296   0.115   6.091 -0.2902 -0.5863  0.2091
 3782TIP3    H132837   1.229   0.169   6.048 -0.9910  0.4638  2.5241
 3782TIP3    H232838   1.307   0.155   6.178  3.3949 -0.7297 -0.1168
 3783TIP3   OH232839   1.866   3.321  12.074 -0.0163  0.5229  0.3994
 3783TIP3    H132840   1.773   3.312  12.054 -0.2155  1.3279  0.9438
 3783TIP3    H232841   1.905   3.356  11.994 -0.8028  3.6989  1.3124
 3784TIP3   OH232842   3.874   1.186   2.434 -0.2551  0.1491  0.1358
 3784TIP3    H132843   3.900   1.261   2.382 -1.5435 -0.9905 -2.2203
 3784TIP3    H232844   3.794   1.214   2.479 -2.2821 -0.6411 -2.8558
 3785TIP3   OH232845   3.327   3.271   5.331 -0.7222  0.4312  0.0126
 3785TIP3    H132846   3.351   3.260   5.423 -0.5554  3.9458  0.4688
 3785TIP3    H232847   3.232   3.261   5.330 -0.6412 -0.4694  0.4007
 3786TIP3   OH232848   5.049   0.653  15.851  0.1766  0.0606 -0.6764
 3786TIP3    H132849   5.023   0.562  15.866  0.8844 -0.0465 -0.0848
 3786TIP3    H232850   5.048   0.663  15.756 -2.9553  0.3329 -0.6671
 3787TIP3   OH232851   1.836   0.245   3.232  0.2233  0.2044 -0.2017
 3787TIP3    H132852   1.802   0.155   3.229  0.7810 -0.0827  1.5818
 3787TIP3    H232853   1.851   0.268   3.140 -0.3531 -1.3619 -0.7045
 3788TIP3   OH232854   3.590   5.507  13.612 -0.2629  0.1644 -0.6195
 3788TIP3    H132855   3.534   5.584  13.620 -0.2327  0.2381 -1.0696
 3788TIP3    H232856   3.535   5.433  13.636 -0.5139  0.2520 -0.9193
 3789TIP3   OH232857   0.426   2.075   0.429  0.1831 -0.3009  0.1684
 3789TIP3    H132858   0.376   2.115   0.500  0.6451  0.0957  0.2733
 3789TIP3    H232859   0.389   2.113   0.349  0.5251  0.2373  0.2605
 3790TIP3   OH232860   4.526   5.112   4.389  0.2748  0.4234  0.5188
 3790TIP3    H132861   4.462   5.041   4.392  1.6271 -0.8344  0.3529
 3790TIP3    H232862   4.500   5.165   4.313  0.2541 -0.8909 -0.4189
 3791TIP3   OH232863   1.540   5.739   2.436  0.2538 -0.0721 -0.4477
 3791TIP3    H132864   1.626   5.697   2.436  1.1501  1.7123 -1.3334
 3791TIP3    H232865   1.496   5.702   2.358  0.3397 -0.7035 -0.2046
 3792TIP3   OH232866   5.726   3.330  12.877  0.2023 -0.5535 -0.0076
 3792TIP3    H132867   5.812   3.289  12.870  1.9438  2.9022 -0.3120
 3792TIP3    H232868   5.695   3.336  12.786  1.2085  1.2077 -0.2638
 3793TIP3   OH232869   4.588   5.122   1.136  0.3599 -0.4318 -0.0841
 3793TIP3    H132870   4.641   5.099   1.060  0.3196  2.3811 -0.9908
 3793TIP3    H232871   4.579   5.217   1.132 -1.4150 -0.4531  2.2724
 3794TIP3   OH232872   6.559   4.195  10.906  0.6608  0.5107 -0.0294
 3794TIP3    H132873   6.506   4.153  10.839  0.0947  1.3996 -0.1456
 3794TIP3    H232874   6.586   4.278  10.866  0.2687  1.0740  0.8663
 3795TIP3   OH232875   1.267   6.452  13.697  0.6345  0.4179  0.3455
 3795TIP3    H132876   1.254   6.521  13.762 -1.7150  0.5085 -0.1945
 3795TIP3    H232877   1.260   6.496  13.613 -0.1268 -0.3483  0.0071
 3796TIP3   OH232878   6.227   6.365   3.953 -0.8777 -0.7313  0.3934
 3796TIP3    H132879   6.164   6.348   3.882 -0.6452 -0.5769  0.1498
 3796TIP3    H232880   6.213   6.293   4.015 -2.4043  0.1622  1.1225
 3797TIP3   OH232881   1.463   2.665   0.937 -0.3261 -0.2078  0.4820
 3797TIP3    H132882   1.457   2.682   1.031 -0.0757  2.3060  0.0703
 3797TIP3    H232883   1.395   2.720   0.898 -2.1444 -3.1392 -0.6251
 3798TIP3   OH232884   5.497   6.406   3.694  0.4141 -0.1594 -0.0104
 3798TIP3    H132885   5.533   6.329   3.739  2.4535  1.1344  0.6710
 3798TIP3    H232886   5.466   6.463   3.765  0.0768  0.1858 -0.4315
 3799TIP3   OH232887   2.069   4.981   6.504 -0.0040  0.5247 -0.1822
 3799TIP3    H132888   2.072   4.940   6.591  1.0841 -1.1952 -0.9904
 3799TIP3    H232889   2.137   5.048   6.507  0.4132  0.0956  0.1337
 3800TIP3   OH232890   2.134   1.598  14.393  0.0505 -0.4454  0.1911
 3800TIP3    H132891   2.095   1.599  14.481 -0.4899 -0.8721 -0.0384
 3800TIP3    H232892   2.064   1.630  14.336  0.6423  0.5361  0.0134
 3801TIP3   OH232893   4.225   4.583  16.022 -0.2247 -0.0192 -0.2766
 3801TIP3    H132894   4.206   4.507  15.968 -0.8531  0.3919 -0.6295
 3801TIP3    H232895   4.284   4.637  15.969  1.7609 -1.1608  0.7042
 3802TIP3   OH232896   0.931   0.661   2.232 -0.6083  0.3949  0.0188
 3802TIP3    H132897   0.901   0.671   2.141 -1.5876 -0.2555  0.2622
 3802TIP3    H232898   0.946   0.750   2.262 -3.7410  0.8727  0.3508
 3803TIP3   OH232899   2.884   5.934  11.297  0.6872  0.0129  0.3136
 3803TIP3    H132900   2.962   5.945  11.243  1.2812  1.8293  1.4892
 3803TIP3    H232901   2.818   5.898  11.237  1.9655 -0.0806 -1.0645
 3804TIP3   OH232902   6.439   1.952  11.151 -0.7451  0.2903 -0.5083
 3804TIP3    H132903   6.491   2.026  11.118  1.5281 -0.0668  2.0932
 3804TIP3    H232904   6.465   1.878  11.096  1.5832  0.1223  0.7368
 3805TIP3   OH232905   5.940   0.285   1.348 -0.4808 -0.1801  0.8704
 3805TIP3    H132906   5.984   0.206   1.318 -1.0463 -0.1812  0.0241
 3805TIP3    H232907   5.965   0.352   1.284 -1.3893 -0.0871  0.6048
 3806TIP3   OH232908   0.925   0.247  12.782  0.0128  0.4266 -0.3931
 3806TIP3    H132909   0.938   0.176  12.845 -0.1717  1.4758  0.8623
 3806TIP3    H232910   0.964   0.215  12.701 -0.6240 -1.3416 -0.0151
 3807TIP3   OH232911   6.417   1.654  12.243  1.0788  0.4269  0.0128
 3807TIP3    H132912   6.469   1.588  12.291 -2.1510 -2.2594  0.0059
 3807TIP3    H232913   6.430   1.632  12.151  1.9200  1.3558 -0.0974
 3808TIP3   OH232914   4.005   3.172   0.917 -0.3089 -0.5468 -0.2441
 3808TIP3    H132915   4.055   3.186   0.837  0.5384  0.5561  0.4573
 3808TIP3    H232916   3.989   3.078   0.921  1.5050 -0.8759 -0.5971
 3809TIP3   OH232917   4.553   1.101  16.210  0.0724  0.0055 -0.1210
 3809TIP3    H132918   4.639   1.107  16.169  0.7931  0.5072  1.4272
 3809TIP3    H232919   4.517   1.018  16.178  1.1822 -0.2703 -0.6752
 3810TIP3   OH232920   0.177   2.202   5.790  0.1555 -0.4445  0.2324
 3810TIP3    H132921   0.121   2.217   5.713 -0.3485  0.5871  0.7871
 3810TIP3    H232922   0.188   2.107   5.793 -0.2258 -0.5304 -0.8373
 3811TIP3   OH232923   0.022   1.213   4.091  0.4961 -0.0631  0.2738
 3811TIP3    H132924   0.004   1.305   4.069  2.2336  0.0541 -0.7342
 3811TIP3    H232925  -0.039   1.164   4.035  0.6157  0.4348 -0.3062
 3812TIP3   OH232926   0.701   3.982   1.434  0.5366  0.0252  0.0715
 3812TIP3    H132927   0.748   4.034   1.499  1.2072 -0.6883  0.1607
 3812TIP3    H232928   0.633   3.937   1.484 -0.3445  1.1718 -0.0816
 3813TIP3   OH232929   4.619   4.767  14.645 -0.1858 -0.0862  0.2821
 3813TIP3    H132930   4.701   4.752  14.692 -0.5273 -2.4914  0.1742
 3813TIP3    H232931   4.565   4.692  14.667 -1.8984  0.8368 -0.6714
 3814TIP3   OH232932   4.071   3.135  16.219  0.6204  0.6410  0.1529
 3814TIP3    H132933   4.079   3.191  16.142 -0.2591  0.5440 -0.0114
 3814TIP3    H232934   4.129   3.062  16.201 -1.2737 -0.5189 -1.4355
 3815TIP3   OH232935   0.433   1.394  11.966 -0.1012 -0.2686 -0.0112
 3815TIP3    H132936   0.451   1.487  11.974  0.3023 -0.2920 -0.6522
 3815TIP3    H232937   0.508   1.358  11.918 -0.2188 -0.9337  0.2874
 3816TIP3   OH232938   0.186   1.626   1.650 -0.0678  0.4567  0.3218
 3816TIP3    H132939   0.147   1.577   1.723  0.3175 -1.3022 -0.6335
 3816TIP3    H232940   0.110   1.662   1.603 -0.3528  0.8207  1.0468
 3817TIP3   OH232941   4.589   1.540   3.584 -0.2262  0.2216 -0.2548
 3817TIP3    H132942   4.663   1.572   3.533  0.5341  0.4096  0.9422
 3817TIP3    H232943   4.537   1.618   3.602  0.6470  0.5110  1.0810
 3818TIP3   OH232944   2.051   6.732  15.270  0.0432 -0.3263 -0.0379
 3818TIP3    H132945   2.101   6.728  15.188 -1.3967 -0.8802 -0.9221
 3818TIP3    H232946   2.002   6.650  15.271 -3.6112  1.7183 -1.0369
 3819TIP3   OH232947   1.737   2.510   4.446 -0.6889  0.2409  0.4740
 3819TIP3    H132948   1.775   2.597   4.433 -0.3873  0.2214  1.1981
 3819TIP3    H232949   1.768   2.459   4.371 -0.4896  0.6299  0.2881
 3820TIP3   OH232950   0.866   1.264   2.200  0.0155 -0.4414 -0.2840
 3820TIP3    H132951   0.938   1.251   2.139 -0.6586  3.3232 -2.0292
 3820TIP3    H232952   0.791   1.286   2.145 -0.9121  1.8192  1.7599
 3821TIP3   OH232953   0.911   0.512  13.700 -1.0446  0.2081  0.5664
 3821TIP3    H132954   0.939   0.442  13.640 -1.1091 -0.1074  0.9002
 3821TIP3    H232955   0.827   0.540  13.666  0.4687  2.4120 -1.5062
 3822TIP3   OH232956   2.021   0.331  17.227 -1.0654  0.3337  0.1173
 3822TIP3    H132957   2.010   0.273  17.152 -1.0760 -0.0485  0.4129
 3822TIP3    H232958   1.934   0.368  17.243 -1.4834 -1.0329  1.1107
 3823TIP3   OH232959   6.802   0.031  14.992  0.2652  0.2154 -0.4895
 3823TIP3    H132960   6.797   0.092  15.066 -2.6159 -3.4219  2.4993
 3823TIP3    H232961   6.842  -0.048  15.028 -0.8475 -1.5201 -2.8685
 3824TIP3   OH232962   6.579   4.803   0.984 -0.4432 -0.3291  0.2505
 3824TIP3    H132963   6.503   4.852   0.953 -0.8456 -0.5337  0.9181
 3824TIP3    H232964   6.553   4.768   1.069  0.2106 -0.8360  0.2497
 3825TIP3   OH232965   0.663   0.116   5.897  0.2487  0.4807  0.1595
 3825TIP3    H132966   0.602   0.146   5.830  0.3750 -0.0209 -0.1864
 3825TIP3    H232967   0.626   0.147   5.980 -0.9067 -0.4943  0.0238
 3826TIP3   OH232968   2.640   6.260  11.931 -0.4006 -0.6798 -0.1736
 3826TIP3    H132969   2.704   6.191  11.912  1.2244  0.5288  0.8014
 3826TIP3    H232970   2.662   6.290  12.019 -2.0589  0.0482  0.0093
 3827TIP3   OH232971   6.018   3.911  16.467  0.4245 -0.0810  0.2684
 3827TIP3    H132972   5.971   3.895  16.549  1.5876  1.4306  1.2691
 3827TIP3    H232973   6.106   3.877  16.484  0.0499 -1.8227 -1.1726
 3828TIP3   OH232974   3.150   5.704   0.413  0.2174 -0.4957 -0.5135
 3828TIP3    H132975   3.153   5.657   0.330 -0.8796  1.3885 -1.6572
 3828TIP3    H232976   3.182   5.641   0.478  1.0104 -2.0140 -2.3416
 3829TIP3   OH232977   3.548   3.225   4.511  0.4696 -0.6366  0.2069
 3829TIP3    H132978   3.590   3.142   4.533  0.4358 -0.3189  1.4930
 3829TIP3    H232979   3.464   3.200   4.472  1.0537 -1.2288 -0.7083
 3830TIP3   OH232980   1.069   0.560  13.011 -0.6801  0.3988 -0.1639
 3830TIP3    H132981   1.027   0.643  12.987 -2.9165 -0.6079  0.1609
 3830TIP3    H232982   1.018   0.528  13.086  1.2253 -0.4476  0.8098
 3831TIP3   OH232983   3.960   0.953   0.730  0.3655  0.6518  0.2947
 3831TIP3    H132984   4.014   1.009   0.786 -0.7015 -0.5056  2.5207
 3831TIP3    H232985   4.000   0.867   0.736 -2.3324 -0.5097  2.9378
 3832TIP3   OH232986   1.312   3.588  16.260  0.1225 -0.2484 -0.0621
 3832TIP3    H132987   1.369   3.662  16.239  0.8984 -0.8726 -0.1823
 3832TIP3    H232988   1.299   3.544  16.176 -0.8927  0.1380 -0.1102
 3833TIP3   OH232989   5.529   1.569  13.633  0.0978  0.1574  0.0226
 3833TIP3    H132990   5.493   1.650  13.596 -0.8817  0.8545  2.3960
 3833TIP3    H232991   5.469   1.501  13.604 -0.0550  0.5399 -0.5573
 3834TIP3   OH232992   5.626   3.166  11.663  0.2458  0.0485 -0.3090
 3834TIP3    H132993   5.587   3.179  11.577  0.4367  3.1681  0.0262
 3834TIP3    H232994   5.720   3.154  11.645  0.2650  0.5608 -0.5430
 3835TIP3   OH232995   2.599   3.645   2.964 -0.8352 -0.1563 -0.1958
 3835TIP3    H132996   2.658   3.571   2.951  0.0069  0.4677  0.0466
 3835TIP3    H232997   2.561   3.630   3.050  0.5882  0.5485  0.5692
 3836TIP3   OH232998   3.431   5.404  14.106  0.5896 -0.0954  0.0067
 3836TIP3    H132999   3.401   5.490  14.077 -0.3672 -0.8696 -1.3307
 3836TIP3    H233000   3.397   5.396  14.195  1.1688  1.1410  0.3545
 3837TIP3   OH233001   5.689   5.064   5.431 -0.3280 -0.0064  0.2012
 3837TIP3    H133002   5.706   4.992   5.492 -1.2698  0.0563  0.5420
 3837TIP3    H233003   5.771   5.073   5.382 -0.9079 -2.8163 -1.4065
 3838TIP3   OH233004   3.199   2.533  13.401 -0.0807 -0.3188  0.5413
 3838TIP3    H133005   3.286   2.493  13.397 -0.6107 -1.4150 -0.3173
 3838TIP3    H233006   3.191   2.579  13.317  0.3086  1.1434  1.2961
 3839TIP3   OH233007   0.858   4.420   5.086 -0.5696  0.2898  0.4587
 3839TIP3    H133008   0.933   4.474   5.061  0.2194 -1.0166 -0.0572
 3839TIP3    H233009   0.784   4.480   5.087  0.4234  1.5248  0.6202
 3840TIP3   OH233010   5.553   4.534   1.645  0.1588  0.1115  0.3107
 3840TIP3    H133011   5.604   4.475   1.701 -0.0673 -1.4014 -1.0396
 3840TIP3    H233012   5.502   4.475   1.589 -1.8350  1.5934  0.5249
 3841TIP3   OH233013   6.464   0.089  14.022 -0.1214  0.5945  0.4855
 3841TIP3    H133014   6.548   0.064  14.061 -0.4780 -0.4950  0.5783
 3841TIP3    H233015   6.470   0.060  13.931 -0.8111 -0.5375  0.7782
 3842TIP3   OH233016   5.193   3.790   4.090  0.1510 -0.0943 -0.7177
 3842TIP3    H133017   5.119   3.802   4.031 -1.7008  1.8597  1.8987
 3842TIP3    H233018   5.199   3.872   4.139  3.2270 -0.7075  0.0843
 3843TIP3   OH233019   1.159   5.806  16.385  0.3889  0.3911 -0.2774
 3843TIP3    H133020   1.102   5.742  16.342  1.2788  0.2441 -1.2809
 3843TIP3    H233021   1.241   5.801  16.336  0.0450  3.2661 -1.2659
 3844TIP3   OH233022   4.064   5.151  15.758 -0.3151 -0.3604 -0.3774
 3844TIP3    H133023   4.119   5.125  15.832 -0.2079  0.0027 -0.3294
 3844TIP3    H233024   4.043   5.069  15.714  1.1109 -0.4111 -0.9897
 3845TIP3   OH233025   0.694   1.613   1.593  0.2804 -0.6781  0.5914
 3845TIP3    H133026   0.611   1.638   1.634  0.4873 -0.5055  0.8967
 3845TIP3    H233027   0.760   1.667   1.635  0.2572  0.8798 -1.2676
 3846TIP3   OH233028   5.436   0.713   6.616 -0.2350 -0.1127 -0.1738
 3846TIP3    H133029   5.394   0.644   6.565 -0.7005  0.0185  0.0275
 3846TIP3    H233030   5.470   0.668   6.693 -1.9765  0.1389  0.7683
 3847TIP3   OH233031   0.920   0.981   6.076 -0.3073 -0.1273 -0.5918
 3847TIP3    H133032   0.920   1.032   5.994 -0.0107  0.4138 -0.2600
 3847TIP3    H233033   0.876   0.899   6.053 -0.1115 -0.0353 -1.3323
 3848TIP3   OH233034   5.598   0.282  13.653 -0.0064  0.8464 -0.5374
 3848TIP3    H133035   5.667   0.265  13.718 -1.0089 -0.6829  0.1717
 3848TIP3    H233036   5.631   0.244  13.572  0.2773  0.7127 -0.3590
 3849TIP3   OH233037   0.144   3.183   6.224 -0.7545  0.2797 -0.1540
 3849TIP3    H133038   0.083   3.254   6.245  0.5753  0.9954  1.3984
 3849TIP3    H233039   0.195   3.171   6.304 -0.8576 -2.3541 -0.4454
 3850TIP3   OH233040   3.612   2.592   5.309  0.3182  0.0117 -0.2470
 3850TIP3    H133041   3.547   2.660   5.327 -0.0886 -0.0310 -1.5137
 3850TIP3    H233042   3.594   2.565   5.219  2.2238  0.1258 -0.6766
 3851TIP3   OH233043   5.588   1.420  12.170  0.1697 -0.1949 -0.0884
 3851TIP3    H133044   5.642   1.498  12.159 -0.8847  0.3007 -2.2665
 3851TIP3    H233045   5.649   1.350  12.193  1.4767  0.7317 -0.7070
 3852TIP3   OH233046   6.506   2.019  12.021  0.1265 -0.0294  0.1843
 3852TIP3    H133047   6.527   2.034  11.929  1.8140 -1.3882  0.3133
 3852TIP3    H233048   6.488   2.106  12.057  1.7492  0.7878 -0.9080
 3853TIP3   OH233049   5.814   0.087  15.167  0.5808  0.0132  0.5577
 3853TIP3    H133050   5.777   0.086  15.079  0.5657  0.0170  0.5643
 3853TIP3    H233051   5.836   0.179  15.183  3.9290 -0.4648 -0.8380
 3854TIP3   OH233052   3.219   3.727   5.475 -0.5342  0.4264  0.2789
 3854TIP3    H133053   3.217   3.679   5.558  0.3359 -0.0097  0.0630
 3854TIP3    H233054   3.218   3.819   5.500  1.1461  0.3148  0.8595
 3855TIP3   OH233055   0.061   6.546  13.313  0.8419  0.0829  0.0611
 3855TIP3    H133056   0.008   6.502  13.379  0.3953  0.9241  0.2646
 3855TIP3    H233057   0.151   6.533  13.341  0.7324 -1.1164 -0.1376
 3856TIP3   OH233058   1.303   2.072  16.433  0.2042  0.4006 -0.6643
 3856TIP3    H133059   1.354   2.083  16.353 -0.8846  0.0456 -1.4245
 3856TIP3    H233060   1.219   2.115  16.414 -0.9689 -1.7659 -0.6091
 3857TIP3   OH233061   1.653   6.410   0.412  0.0151  0.3765  0.2141
 3857TIP3    H133062   1.666   6.449   0.326  0.3902 -0.9298 -0.3288
 3857TIP3    H233063   1.571   6.448   0.444 -0.0080  1.0321 -0.6168
 3858TIP3   OH233064   1.120   1.605  13.996 -0.2794  0.0690  0.4623
 3858TIP3    H133065   1.102   1.675  13.934  0.1908 -1.1944 -1.1368
 3858TIP3    H233066   1.152   1.532  13.942 -1.5782 -1.6779  1.9753
 3859TIP3   OH233067   3.951   0.828   5.274 -0.0862 -0.1135  0.8154
 3859TIP3    H133068   3.979   0.875   5.196  0.2054 -0.0672  0.9473
 3859TIP3    H233069   3.950   0.894   5.344 -0.5215 -0.1140  0.8144
 3860TIP3   OH233070   1.080   4.478  12.054 -0.5747  0.2556 -0.6323
 3860TIP3    H133071   1.165   4.435  12.066 -1.2869 -0.9804  0.1786
 3860TIP3    H233072   1.022   4.433  12.117 -1.8311  1.0411 -1.2175
 3861TIP3   OH233073   2.544   0.398   1.328 -0.2592  0.0502  0.8293
 3861TIP3    H133074   2.538   0.318   1.276  0.1608  0.6109 -0.0713
 3861TIP3    H233075   2.487   0.381   1.404  1.6742 -2.0369  1.8622
 3862TIP3   OH233076   0.624   2.834   4.605 -0.5244 -0.0924 -0.0760
 3862TIP3    H133077   0.719   2.841   4.599 -0.3701 -2.3584 -0.5556
 3862TIP3    H233078   0.609   2.781   4.683 -1.2948 -1.6360 -1.2451
 3863TIP3   OH233079   4.813   1.049  14.335 -0.8565  0.2199  0.3061
 3863TIP3    H133080   4.817   0.954  14.335 -2.2589  0.1523 -0.5187
 3863TIP3    H233081   4.720   1.069  14.323 -1.0601  1.6612  3.6205
 3864TIP3   OH233082   1.358   0.285  14.996 -0.0191 -0.2588  0.4071
 3864TIP3    H133083   1.433   0.227  14.978 -0.1324 -0.3552  0.2501
 3864TIP3    H233084   1.320   0.250  15.077 -0.2157 -0.5309  0.1967
 3865TIP3   OH233085   3.510   5.695  12.842 -0.2384  0.1276  0.0635
 3865TIP3    H133086   3.498   5.628  12.775  0.4418  2.3387 -2.3546
 3865TIP3    H233087   3.434   5.751  12.834 -0.7489 -0.2471  2.0028
 3866TIP3   OH233088   1.591   1.518   2.552  0.1637 -0.8775  0.5293
 3866TIP3    H133089   1.509   1.531   2.601 -0.6659  0.9710 -1.2498
 3866TIP3    H233090   1.566   1.462   2.479  0.6372 -0.8760  0.3665
 3867TIP3   OH233091   6.158   4.813   5.602 -0.2359 -0.1044 -0.0024
 3867TIP3    H133092   6.127   4.904   5.602 -0.0875 -0.0545  0.2124
 3867TIP3    H233093   6.112   4.772   5.675 -0.4135 -0.2407 -0.1887
 3868TIP3   OH233094   2.606   3.867   4.104 -0.3009  0.2004  0.7212
 3868TIP3    H133095   2.652   3.867   4.188  1.2004 -0.1747 -0.0826
 3868TIP3    H233096   2.645   3.940   4.055 -1.7752  0.9667  0.6595
 3869TIP3   OH233097   0.271   2.989   3.042 -0.0975 -0.0567  0.4099
 3869TIP3    H133098   0.281   3.075   3.001 -0.6316 -0.8474 -1.4590
 3869TIP3    H233099   0.185   2.991   3.082 -0.2007  0.1971  0.1726
 3870TIP3   OH233100   0.259   4.197  10.498 -0.3317 -0.4608  0.0797
 3870TIP3    H133101   0.294   4.256  10.431 -0.4437  0.9646  1.2736
 3870TIP3    H233102   0.323   4.125  10.501  1.1486  0.8449  0.3953
 3871TIP3   OH233103   5.907   6.370   3.279 -0.5665 -0.0732 -0.1821
 3871TIP3    H133104   5.874   6.432   3.215 -0.8433 -2.1516 -2.1229
 3871TIP3    H233105   5.990   6.339   3.243 -0.3192 -0.6394  0.8482
 3872TIP3   OH233106   1.967   3.358   0.423 -0.0258 -0.7711 -0.0764
 3872TIP3    H133107   1.879   3.339   0.393  0.2901  0.9389 -2.1552
 3872TIP3    H233108   1.959   3.441   0.470  0.6073 -0.2282 -0.9241
 3873TIP3   OH233109   3.075   3.146   4.713 -0.1932  0.7775 -0.6769
 3873TIP3    H133110   3.023   3.066   4.723 -2.4521  1.8255 -3.2863
 3873TIP3    H233111   3.089   3.153   4.619  0.4617  3.1339 -0.4291
 3874TIP3   OH233112   5.540   5.586   1.806 -0.3856 -0.2395  0.5094
 3874TIP3    H133113   5.618   5.542   1.840  0.7961  1.3372 -0.0954
 3874TIP3    H233114   5.547   5.577   1.711  0.2250  1.8124  0.3454
 3875TIP3   OH233115   1.184   3.888   6.161  0.8068 -0.2297 -0.2600
 3875TIP3    H133116   1.131   3.910   6.238  0.8953 -2.6513  0.5092
 3875TIP3    H233117   1.274   3.896   6.190  0.8464  0.0753 -0.4668
 3876TIP3   OH233118   3.390   2.744  12.747 -0.4551  0.2964  0.2818
 3876TIP3    H133119   3.354   2.833  12.751  0.4899  0.7611 -1.1587
 3876TIP3    H233120   3.472   2.749  12.797  1.1953  1.0641 -2.3860
 3877TIP3   OH233121   2.556   1.253  16.843  0.6908  0.5728 -0.1895
 3877TIP3    H133122   2.599   1.201  16.910  0.0485 -0.3679 -0.4986
 3877TIP3    H233123   2.566   1.201  16.763 -1.5357  0.0456 -0.1505
 3878TIP3   OH233124   3.053   5.185   1.985  0.2582 -0.1771  0.2086
 3878TIP3    H133125   3.104   5.106   2.002 -1.5483 -1.3256  0.4318
 3878TIP3    H233126   3.014   5.207   2.070  0.5325  0.8109  0.0916
 3879TIP3   OH233127   4.835   1.238   1.249 -0.8172  0.4182  0.0696
 3879TIP3    H133128   4.884   1.320   1.242  0.2009 -0.1586  0.3134
 3879TIP3    H233129   4.896   1.172   1.217 -1.0096 -0.4698  1.5445
 3880TIP3   OH233130   4.022   6.325  16.762  0.1039  0.0363 -0.2262
 3880TIP3    H133131   4.017   6.348  16.855 -0.4986  1.0221 -0.4987
 3880TIP3    H233132   3.972   6.393  16.717  2.7927  1.2598 -1.5353
 3881TIP3   OH233133   5.544   3.515  12.351 -0.0608 -0.0264  0.3049
 3881TIP3    H133134   5.590   3.451  12.405  2.5931  1.2433 -0.3481
 3881TIP3    H233135   5.530   3.590  12.409  0.7482  0.4558 -0.1107
 3882TIP3   OH233136   5.487   1.115   0.116 -0.3323 -0.0083 -0.4678
 3882TIP3    H133137   5.479   1.195   0.064  2.3023  0.8249  0.3380
 3882TIP3    H233138   5.459   1.045   0.056 -0.0370  1.2116 -2.0788
 3883TIP3   OH233139   0.587   3.887  11.166  0.5555 -0.0100 -0.3301
 3883TIP3    H133140   0.566   3.797  11.140  0.5773 -0.7805  2.2254
 3883TIP3    H233141   0.672   3.904  11.125 -0.0353 -0.6887 -1.8763
 3884TIP3   OH233142   4.883   4.113  15.093  0.7285  0.5915  0.4090
 3884TIP3    H133143   4.955   4.166  15.127  1.6142 -1.7992  2.3367
 3884TIP3    H233144   4.805   4.150  15.135  1.0650  1.7548  0.0418
 3885TIP3   OH233145   6.039   1.259  14.401  0.1016 -0.8005 -0.2896
 3885TIP3    H133146   5.951   1.246  14.435  0.3711 -1.5220  0.1554
 3885TIP3    H233147   6.041   1.350  14.371 -0.1486 -0.1361  1.6162
 3886TIP3   OH233148   1.922   5.340   6.060 -0.0362  0.2035 -0.0752
 3886TIP3    H133149   1.866   5.394   6.115 -0.9692 -1.2538  0.4241
 3886TIP3    H233150   1.894   5.358   5.970 -0.5797  0.2805  0.1146
 3887TIP3   OH233151   0.705   6.177   0.502 -0.5775  0.4043 -0.4881
 3887TIP3    H133152   0.770   6.226   0.453 -0.6554  0.9034 -0.0890
 3887TIP3    H233153   0.692   6.097   0.451  2.0176 -0.7565  0.6261
 3888TIP3   OH233154   5.228   1.188   1.712  0.7513 -0.1214  0.6407
 3888TIP3    H133155   5.182   1.159   1.792 -0.7022 -1.8472 -0.7742
 3888TIP3    H233156   5.281   1.112   1.687 -0.2568 -0.2813 -1.0724
 3889TIP3   OH233157   5.865   3.128  13.261 -0.3443  0.6587  0.5786
 3889TIP3    H133158   5.889   3.221  13.265  2.3075  0.0128  0.3769
 3889TIP3    H233159   5.810   3.114  13.338  1.4541  1.8182  2.1206
 3890TIP3   OH233160   3.138   5.507  14.222 -0.4143 -0.2887  0.2335
 3890TIP3    H133161   3.127   5.468  14.135  0.0726  0.1853 -0.0516
 3890TIP3    H233162   3.189   5.587  14.205  1.3313 -1.1670  1.1806
 3891TIP3   OH233163   3.868   1.764  13.319 -0.2094  0.3904  0.3528
 3891TIP3    H133164   3.820   1.846  13.314 -1.8114 -0.5640 -0.2162
 3891TIP3    H233165   3.846   1.727  13.405 -2.3535 -1.1387 -0.8102
 3892TIP3   OH233166   6.575   1.660   4.204 -0.0193  0.1716 -0.3387
 3892TIP3    H133167   6.566   1.688   4.295 -1.4792  2.2554 -1.1068
 3892TIP3    H233168   6.521   1.581   4.198 -0.9640  0.7519  0.3121
 3893TIP3   OH233169   2.232   4.310  10.839  0.2311  0.1100 -0.5273
 3893TIP3    H133170   2.171   4.382  10.825 -1.2441 -1.1291 -0.6441
 3893TIP3    H233171   2.287   4.309  10.761  0.9586  1.7604 -0.0485
 3894TIP3   OH233172   5.200   0.812   6.067  0.0513  0.0980 -0.3441
 3894TIP3    H133173   5.235   0.901   6.078  1.1400 -0.4376  0.6864
 3894TIP3    H233174   5.199   0.776   6.156  0.8562 -1.3649 -0.9066
 3895TIP3   OH233175   2.751   3.300   4.303 -0.0889  0.6637 -0.3195
 3895TIP3    H133176   2.794   3.217   4.285 -1.1178 -0.0084  0.3063
 3895TIP3    H233177   2.692   3.282   4.376 -1.7878  1.4726 -1.4636
 3896TIP3   OH233178   3.710   0.544  11.815  0.0128 -0.1092  0.1748
 3896TIP3    H133179   3.646   0.476  11.792  0.0485 -0.5069  1.2393
 3896TIP3    H233180   3.713   0.542  11.911  1.7603 -0.2212  0.1220
 3897TIP3   OH233181   0.924   2.815   5.624 -0.5109 -0.1720 -0.3427
 3897TIP3    H133182   0.862   2.874   5.581 -2.1467 -0.8925  0.9365
 3897TIP3    H233183   0.953   2.864   5.701 -0.3610 -0.2688 -0.3387
 3898TIP3   OH233184   4.624   2.804  11.695 -0.9169  0.0980 -0.1825
 3898TIP3    H133185   4.617   2.870  11.764  1.4143 -1.2565  1.4324
 3898TIP3    H233186   4.549   2.821  11.638 -1.7163  2.5961  1.5051
 3899TIP3   OH233187   2.120   3.929   5.682  0.1148 -0.1542  0.6859
 3899TIP3    H133188   2.213   3.934   5.704 -0.3923 -1.1352  3.2886
 3899TIP3    H233189   2.111   3.844   5.637  0.3366 -0.4517  1.2011
 3900TIP3   OH233190   2.173   6.481   4.584 -0.1401 -0.2650  0.0259
 3900TIP3    H133191   2.212   6.523   4.507  1.6097  0.0868  1.0907
 3900TIP3    H233192   2.245   6.431   4.623 -0.8087  0.2215  1.8990
 3901TIP3   OH233193   6.760   0.517  16.326 -0.0267 -0.8686  0.1152
 3901TIP3    H133194   6.758   0.582  16.256 -0.6390 -1.7673 -0.7166
 3901TIP3    H233195   6.851   0.516  16.356  0.0581  0.1112 -0.1110
 3902TIP3   OH233196   5.362   0.409   0.851  0.1970  0.2928  0.4442
 3902TIP3    H133197   5.372   0.344   0.781 -0.9992 -0.4996  0.9804
 3902TIP3    H233198   5.324   0.485   0.808  0.4680  0.1898  0.0275
 3903TIP3   OH233199   2.213   6.122   4.190 -0.6038 -0.3117 -0.0132
 3903TIP3    H133200   2.171   6.208   4.198  0.0212  0.0514 -0.5936
 3903TIP3    H233201   2.302   6.135   4.223 -0.5750 -0.7934  0.1079
 3904TIP3   OH233202   1.840   3.259  15.421 -0.5361 -0.3241 -0.3720
 3904TIP3    H133203   1.832   3.228  15.511 -0.2555 -2.3145 -1.0260
 3904TIP3    H233204   1.891   3.192  15.376 -0.2801  0.8770 -1.9151
 3905TIP3   OH233205   0.566   2.419  14.607 -0.3647 -0.0714 -1.4190
 3905TIP3    H133206   0.616   2.357  14.661 -0.6738 -0.1808 -1.2606
 3905TIP3    H233207   0.606   2.412  14.520 -0.0392 -0.0897 -1.2717
 3906TIP3   OH233208   4.482   3.912   4.162 -0.2316  0.2418 -0.3414
 3906TIP3    H133209   4.535   3.938   4.238  0.3877 -0.5562 -0.4946
 3906TIP3    H233210   4.466   3.819   4.175  0.5334 -0.0704 -1.5891
 3907TIP3   OH233211   4.801   2.451   3.095 -0.1020 -0.3254  0.2304
 3907TIP3    H133212   4.732   2.516   3.078  1.3517  1.1626 -0.0336
 3907TIP3    H233213   4.868   2.470   3.029  1.0483 -1.0674  1.1760
 3908TIP3   OH233214   3.186   1.332   6.304  0.2234  0.0837 -0.2142
 3908TIP3    H133215   3.176   1.304   6.394  0.1461  0.8293  0.0139
 3908TIP3    H233216   3.278   1.314   6.283 -0.0322 -1.0882 -0.3393
 3909TIP3   OH233217   1.217   4.460   5.878 -0.3901 -0.2990 -0.7619
 3909TIP3    H133218   1.163   4.477   5.801 -0.2457  4.2042 -0.0256
 3909TIP3    H233219   1.172   4.503   5.950  1.9969 -0.1103  0.6961
 3910TIP3   OH233220   1.808   6.644   6.638  0.6573  0.7087 -0.3906
 3910TIP3    H133221   1.817   6.729   6.595 -1.1313  0.5443 -1.1380
 3910TIP3    H233222   1.719   6.616   6.617  0.6661 -0.6016  1.2260
 3911TIP3   OH233223   2.029   2.370  13.661 -0.3070  0.0021  0.1581
 3911TIP3    H133224   2.080   2.379  13.741 -1.7861 -1.6700  1.3310
 3911TIP3    H233225   2.094   2.353  13.593  0.8791  0.3548  1.1808
 3912TIP3   OH233226   0.313   3.524   5.642  0.7129  0.0180  0.2936
 3912TIP3    H133227   0.289   3.483   5.559  1.5937  1.3715 -0.6296
 3912TIP3    H233228   0.339   3.450   5.698  0.6017 -0.8493 -0.7776
 3913TIP3   OH233229   1.806   0.408   6.794 -0.1841  0.4392  0.0435
 3913TIP3    H133230   1.801   0.487   6.741  0.0305  0.3199 -0.1546
 3913TIP3    H233231   1.718   0.371   6.791 -0.7152  1.5415  1.4736
 3914TIP3   OH233232   3.045   3.340   1.483 -0.6640 -0.4561  0.1609
 3914TIP3    H133233   3.021   3.253   1.517  1.7217 -1.1639  0.1101
 3914TIP3    H233234   3.115   3.323   1.420 -0.1840  1.5185  0.1225
 3915TIP3   OH233235   0.541   6.745  13.596  0.2162  0.3892 -0.3320
 3915TIP3    H133236   0.579   6.658  13.585 -1.6346 -0.5268  0.2632
 3915TIP3    H233237   0.584   6.799  13.530  0.7246 -1.1921 -1.3209
 3916TIP3   OH233238   6.166   2.872  13.994 -0.0217 -0.2056 -0.1417
 3916TIP3    H133239   6.146   2.901  13.905  2.6301 -1.5493 -1.2194
 3916TIP3    H233240   6.209   2.947  14.034  0.2562 -0.1585 -0.5224
 3917TIP3   OH233241   6.137   3.448   4.913 -0.0435  0.4564 -0.5983
 3917TIP3    H133242   6.043   3.459   4.931  0.2639 -0.3241  1.6623
 3917TIP3    H233243   6.170   3.537   4.906 -0.9612  0.7389 -1.4928
 3918TIP3   OH233244   2.620   5.839  14.402 -0.5703  0.3571  0.1566
 3918TIP3    H133245   2.628   5.832  14.497 -1.1744 -0.4914  0.1515
 3918TIP3    H233246   2.683   5.776  14.368 -1.3318 -0.3309  0.0131
 3919TIP3   OH233247   6.123   5.663  16.566  0.0112  0.3417 -0.1629
 3919TIP3    H133248   6.078   5.591  16.610 -2.5743  1.7513 -0.4043
 3919TIP3    H233249   6.150   5.721  16.638 -0.3782  0.5077 -0.1492
 3920TIP3   OH233250   5.311   3.120  11.748  0.0640  0.0677  0.0450
 3920TIP3    H133251   5.369   3.109  11.824 -1.0487  0.4266  0.9685
 3920TIP3    H233252   5.301   3.215  11.740 -1.8392 -0.0232  1.0420
 3921TIP3   OH233253   3.605   2.786  16.607  0.0600  0.1466  0.5088
 3921TIP3    H133254   3.669   2.811  16.674  1.5055 -0.7883 -0.4902
 3921TIP3    H233255   3.562   2.708  16.643 -0.0646  0.4013  0.9073
 3922TIP3   OH233256   4.004   0.033   3.908  1.0779  0.2815  0.1232
 3922TIP3    H133257   4.064   0.055   3.980  0.5918 -2.7377  1.5581
 3922TIP3    H233258   4.053   0.053   3.829  3.4126 -0.6746  1.2830
 3923TIP3   OH233259   0.061   6.193  13.179 -0.7013 -0.0472  0.5228
 3923TIP3    H133260   0.059   6.117  13.120 -0.9986 -0.4596  1.0531
 3923TIP3    H233261  -0.025   6.192  13.222  0.0297 -0.5950  2.0084
 3924TIP3   OH233262   2.562   6.039   3.779 -0.0708  0.9661 -0.5493
 3924TIP3    H133263   2.510   6.076   3.709  1.3992  2.0855 -1.0752
 3924TIP3    H233264   2.641   6.093   3.783  0.3033  0.3547  1.3440
 3925TIP3   OH233265   2.200   5.854  15.862  0.1753  0.4755 -0.0472
 3925TIP3    H133266   2.149   5.802  15.924  0.1829  0.8777  0.3029
 3925TIP3    H233267   2.179   5.945  15.885 -0.5530  0.6197 -1.2503
 3926TIP3   OH233268   2.430   5.701  15.013  0.2062  0.0456  0.1370
 3926TIP3    H133269   2.482   5.652  14.949  0.5551 -1.4804  1.5220
 3926TIP3    H233270   2.494   5.758  15.057 -0.0571  1.1895 -0.9424
 3927TIP3   OH233271   0.755   0.725   3.374 -0.3617 -0.2702 -0.2318
 3927TIP3    H133272   0.718   0.642   3.344 -1.9732  0.4398 -0.3025
 3927TIP3    H233273   0.815   0.752   3.305  1.4778 -2.1889  0.5650
 3928TIP3   OH233274   0.563   5.933  13.866  0.3433  0.1697  0.7515
 3928TIP3    H133275   0.551   5.992  13.792 -1.7962  0.7958  1.5660
 3928TIP3    H233276   0.577   5.990  13.941 -1.7069 -0.3224  1.5364
 3929TIP3   OH233277   2.257   2.824  14.682  0.3744  0.0139 -0.4775
 3929TIP3    H133278   2.216   2.850  14.599  1.4103 -2.4033 -1.7786
 3929TIP3    H233279   2.214   2.742  14.705 -0.8970  1.3608  2.1645
 3930TIP3   OH233280   0.335   2.431  12.843 -0.0100  0.1165 -0.2198
 3930TIP3    H133281   0.289   2.439  12.926  0.4280 -0.8986  0.1260
 3930TIP3    H233282   0.427   2.422  12.868  0.0568 -0.8180 -0.7879
 3931TIP3   OH233283   5.358   1.654   3.329  0.0388  0.0851  0.6064
 3931TIP3    H133284   5.407   1.710   3.268  0.3029 -2.1877 -1.3594
 3931TIP3    H233285   5.410   1.654   3.409  0.2859  2.2141  0.4882
 3932TIP3   OH233286   2.892   2.765   1.268  0.1574 -0.1230 -0.2119
 3932TIP3    H133287   2.951   2.712   1.214  0.4925 -0.8091  0.8132
 3932TIP3    H233288   2.942   2.843   1.288  0.8032 -0.7797  0.7972
 3933TIP3   OH233289   6.453   0.125  11.953 -0.4172 -0.4428  0.2512
 3933TIP3    H133290   6.469   0.091  11.865  0.3514  0.8206 -0.1038
 3933TIP3    H233291   6.444   0.046  12.007  0.7497 -1.2218 -0.6598
 3934TIP3   OH233292   2.261   4.685  12.265  0.5692  0.4573  0.0425
 3934TIP3    H133293   2.338   4.685  12.209 -0.7868  0.4507 -1.8465
 3934TIP3    H233294   2.187   4.678  12.205 -0.9747  1.6721  1.7420
 3935TIP3   OH233295   3.405   2.468   1.597  0.0930 -0.5017  0.1083
 3935TIP3    H133296   3.438   2.507   1.677  1.3807 -0.9720 -0.1842
 3935TIP3    H233297   3.347   2.535   1.559  1.7328  0.8573 -0.0375
 3936TIP3   OH233298   4.299   5.737  14.471 -0.2107 -0.5777  0.4694
 3936TIP3    H133299   4.345   5.781  14.542  0.1142  0.8152 -0.5988
 3936TIP3    H233300   4.252   5.807  14.425  0.8313 -1.2260 -1.6369
 3937TIP3   OH233301   4.593   1.604   2.105  0.1376 -0.2642 -0.5071
 3937TIP3    H133302   4.515   1.550   2.115  0.1034 -0.2477 -0.6854
 3937TIP3    H233303   4.648   1.581   2.180 -0.4499  0.4220  0.1442
 3938TIP3   OH233304   0.067   5.267   1.945  0.0184  0.3833 -0.5886
 3938TIP3    H133305  -0.002   5.250   2.010 -0.6396  0.9358 -1.1322
 3938TIP3    H233306   0.134   5.202   1.964 -1.2653 -1.0749 -0.9208
 3939TIP3   OH233307   3.114   0.771   0.372  0.0420 -0.2845 -0.8377
 3939TIP3    H133308   3.199   0.764   0.415 -0.4265 -1.5743 -0.1172
 3939TIP3    H233309   3.081   0.682   0.369 -0.9429  0.1083 -1.8271
 3940TIP3   OH233310   5.970   4.070   4.246  0.2996  0.1618  0.6178
 3940TIP3    H133311   6.032   4.101   4.312  0.1962  1.3376  0.1788
 3940TIP3    H233312   6.024   4.033   4.177  0.5840  2.2805 -0.3198
 3941TIP3   OH233313   2.208   6.485  13.008  0.4264 -0.2283  0.2265
 3941TIP3    H133314   2.167   6.571  13.009 -1.4248 -1.0876 -1.3532
 3941TIP3    H233315   2.225   6.466  13.101 -1.7310  0.6143  0.8200
 3942TIP3   OH233316   4.329   6.277   3.320  0.2594 -0.6999  0.6685
 3942TIP3    H133317   4.277   6.215   3.270 -0.9360  1.6150 -1.0673
 3942TIP3    H233318   4.408   6.290   3.268 -0.3385  0.6179  0.0654
 3943TIP3   OH233319   3.311   4.644   0.122  0.3474  0.3733 -0.1710
 3943TIP3    H133320   3.375   4.646   0.051  0.3308 -0.8835 -0.2219
 3943TIP3    H233321   3.251   4.574   0.099  0.2628  0.0432  1.0243
 3944TIP3   OH233322   0.065   5.976  12.998  0.3434  0.2154  0.8127
 3944TIP3    H133323   0.119   5.955  12.922  0.5676 -1.8954  1.5113
 3944TIP3    H233324  -0.025   5.981  12.964  0.4887 -0.3562  0.3480
 3945TIP3   OH233325   4.817   6.075  15.038 -0.9424  0.8624 -0.3864
 3945TIP3    H133326   4.753   6.019  14.994 -0.4017  0.5033 -0.7192
 3945TIP3    H233327   4.764   6.139  15.085 -1.5370  1.0238 -1.2641
 3946TIP3   OH233328   3.923   3.418   4.790 -0.1919  0.1317 -0.2857
 3946TIP3    H133329   3.978   3.342   4.809 -0.4540 -0.1448 -0.6147
 3946TIP3    H233330   3.840   3.400   4.834 -1.4171 -1.3287 -3.0257
 3947TIP3   OH233331   1.297   1.228  14.806 -0.0761  0.1065 -0.2293
 3947TIP3    H133332   1.388   1.255  14.797  0.1723 -0.0412  1.6650
 3947TIP3    H233333   1.301   1.136  14.832 -0.7415  0.2502  0.4135
 3948TIP3   OH233334   1.702   1.154   4.156 -0.0405  0.0915 -0.3176
 3948TIP3    H133335   1.667   1.067   4.176  1.6771 -0.7339 -0.8184
 3948TIP3    H233336   1.675   1.208   4.231 -0.4809 -1.0539  0.3642
 3949TIP3   OH233337   4.818   3.601   3.960  0.3583  0.1076 -0.5563
 3949TIP3    H133338   4.858   3.515   3.946  0.1509  0.2249 -1.9161
 3949TIP3    H233339   4.891   3.663   3.955  0.3917  0.0892 -0.3390
 3950TIP3   OH233340   6.592   4.960  16.521 -0.0542 -0.0854  0.3346
 3950TIP3    H133341   6.643   4.892  16.478  0.4321  0.1380  0.5524
 3950TIP3    H233342   6.657   5.016  16.563 -0.3199  1.4966 -1.2748
 3951TIP3   OH233343   0.478   1.274  13.715  0.3430 -0.0788  0.1296
 3951TIP3    H133344   0.495   1.239  13.803 -1.3362  1.3140  1.0317
 3951TIP3    H233345   0.436   1.202  13.668  1.7328 -1.0062  0.2771
 3952TIP3   OH233346   2.896   4.013  15.990  0.1148 -0.6114 -0.2809
 3952TIP3    H133347   2.938   3.975  16.067  1.6025 -0.3016 -0.9277
 3952TIP3    H233348   2.953   4.085  15.965 -1.1108  0.1808 -0.8433
 3953TIP3   OH233349   5.515   6.499  12.743 -0.2973  0.1349  0.1440
 3953TIP3    H133350   5.454   6.427  12.731 -0.7210  0.5960 -0.5377
 3953TIP3    H233351   5.588   6.480  12.684 -0.0225 -0.1440  0.5663
 3954TIP3   OH233352   1.793   1.296   5.303  0.1984 -0.6207  0.8216
 3954TIP3    H133353   1.762   1.300   5.213  1.2223  0.4009  0.4915
 3954TIP3    H233354   1.857   1.224   5.303  0.9328  0.0152  0.4739
 3955TIP3   OH233355   2.508   5.517  15.951  0.2633  0.3964 -0.3937
 3955TIP3    H133356   2.495   5.557  16.037 -1.2754  0.9816 -0.8729
 3955TIP3    H233357   2.558   5.437  15.969 -1.1778 -0.1780  1.2245
 3956TIP3   OH233358   6.538   4.568  15.328  0.3858 -0.6642 -0.4729
 3956TIP3    H133359   6.530   4.649  15.378  0.4468  2.4016 -5.1237
 3956TIP3    H233360   6.612   4.522  15.368  0.3330  1.5067  2.2814
 3957TIP3   OH233361   0.730   5.734  13.087 -0.2818 -0.4991  0.0281
 3957TIP3    H133362   0.637   5.750  13.099  0.0529  1.4309  0.2479
 3957TIP3    H233363   0.759   5.802  13.026  1.3033  0.0024  1.2842
 3958TIP3   OH233364   4.466   3.245  16.515 -0.2863 -0.0619 -0.5375
 3958TIP3    H133365   4.513   3.325  16.541 -0.8948  0.9739 -2.5160
 3958TIP3    H233366   4.507   3.219  16.433 -0.5118 -1.4379 -0.2171
 3959TIP3   OH233367   1.725   1.807   3.273  0.2402 -0.7080 -0.0450
 3959TIP3    H133368   1.756   1.757   3.349  2.3011 -1.3229 -1.2426
 3959TIP3    H233369   1.657   1.753   3.234 -1.2780 -0.1074  1.6900
 3960TIP3   OH233370   0.202   2.169  13.425 -0.3758 -0.1717 -0.7127
 3960TIP3    H133371   0.183   2.247  13.478 -1.3525 -0.5095 -0.5469
 3960TIP3    H233372   0.252   2.202  13.351  0.5578  0.3848  0.1577
 3961TIP3   OH233373   6.764   4.885   2.488 -0.5002 -0.5406 -0.6830
 3961TIP3    H133374   6.702   4.908   2.557  0.1286 -0.0554 -0.2807
 3961TIP3    H233375   6.790   4.795   2.509  0.3174 -0.1108  0.1904
 3962TIP3   OH233376   2.160   2.928   4.687 -0.0056  0.5600  0.1737
 3962TIP3    H133377   2.187   2.986   4.616  1.2273  1.2250  1.1663
 3962TIP3    H233378   2.166   2.840   4.650 -0.5934  0.9675 -0.9266
 3963TIP3   OH233379   5.034   4.567  14.798  0.1313 -0.2020 -0.9935
 3963TIP3    H133380   5.092   4.618  14.742  0.2963 -1.6192 -2.1551
 3963TIP3    H233381   4.952   4.616  14.799  0.4866  0.4095 -1.5782
 3964TIP3   OH233382   5.557   2.117  16.615 -0.3373 -0.0283 -0.0263
 3964TIP3    H133383   5.560   2.201  16.661 -0.4851  0.8091 -1.5262
 3964TIP3    H233384   5.523   2.138  16.528 -4.3188 -2.2588  0.8767
 3965TIP3   OH233385   2.464   1.680  14.428  0.2058 -0.2474 -0.6001
 3965TIP3    H133386   2.379   1.704  14.466 -0.2903  0.3153 -2.0291
 3965TIP3    H233387   2.526   1.742  14.466 -0.4318  0.8760 -1.3465
 3966TIP3   OH233388   3.976   2.336  16.982  0.9830 -0.3526 -0.7839
 3966TIP3    H133389   4.005   2.382  17.061  2.3581  0.2580 -1.6263
 3966TIP3    H233390   3.918   2.267  17.015  1.2560  0.1174  0.7359
 3967TIP3   OH233391   6.456   6.223   4.771  0.1834 -0.3716  0.4523
 3967TIP3    H133392   6.361   6.214   4.779  0.6558 -3.4655  4.2089
 3967TIP3    H233393   6.476   6.307   4.812 -0.9092  0.1122 -0.0006
 3968TIP3   OH233394   4.494   6.126   0.026  0.4683 -0.1586  0.2649
 3968TIP3    H133395   4.560   6.195   0.029 -0.5645  0.8235  1.2257
 3968TIP3    H233396   4.422   6.160   0.080 -0.4971 -1.5293 -0.1349
 3969TIP3   OH233397   6.688   4.471   0.788  0.5937 -0.2097  0.4158
 3969TIP3    H133398   6.665   4.446   0.699  0.4713 -0.0728  0.4091
 3969TIP3    H233399   6.638   4.411   0.843  1.8761 -1.3419  0.3772
 3970TIP3   OH233400   3.126   5.878   6.736  0.1503 -0.0902  0.8910
 3970TIP3    H133401   3.104   5.785   6.736 -1.5249  0.2950 -0.1379
 3970TIP3    H233402   3.216   5.881   6.705  0.1216 -1.3452  0.6610
 3971TIP3   OH233403   4.801   2.655   0.814 -0.4240  1.0914 -0.4396
 3971TIP3    H133404   4.809   2.594   0.887  1.3362  1.6427 -0.1619
 3971TIP3    H233405   4.755   2.605   0.746 -1.4952  0.3790  0.7987
 3972TIP3   OH233406   3.030   2.720  14.362  0.5549 -0.5249  0.0800
 3972TIP3    H133407   2.942   2.719  14.400  1.8474 -0.6189  3.2751
 3972TIP3    H233408   3.063   2.808  14.380  1.3425 -0.6788 -0.5702
 3973TIP3   OH233409   4.214   5.264  14.904 -0.3863  0.4126  0.4167
 3973TIP3    H133410   4.280   5.323  14.940 -1.2803  0.1459  2.5573
 3973TIP3    H233411   4.205   5.292  14.813  2.6890  0.4215  0.0613
 3974TIP3   OH233412   0.059   6.795   5.923  0.3871  0.2194 -0.2967
 3974TIP3    H133413   0.135   6.848   5.943 -0.0148  0.5159  0.4702
 3974TIP3    H233414  -0.014   6.857   5.920 -0.1404 -0.3281  0.9433
 3975TIP3   OH233415   5.132   2.422  16.378  0.1264  0.1409  0.2781
 3975TIP3    H133416   5.167   2.381  16.457 -0.4564 -0.1861  0.3719
 3975TIP3    H233417   5.107   2.348  16.322 -0.3696  0.3749  0.1946
 3976TIP3   OH233418   6.782   3.992   5.568 -0.2085 -0.0128 -0.8112
 3976TIP3    H133419   6.783   4.026   5.479  0.8664  0.9214 -0.4578
 3976TIP3    H233420   6.689   3.974   5.586 -0.4496 -0.0604 -2.0438
 3977TIP3   OH233421   5.050   3.941  14.500  0.0618  0.4833 -0.5640
 3977TIP3    H133422   5.039   3.934  14.405  1.3531  0.3291 -0.7135
 3977TIP3    H233423   5.089   3.857  14.525  0.4768  0.8396 -0.0159
 3978TIP3   OH233424   2.264   6.595  14.001 -0.1585  0.3572 -0.0427
 3978TIP3    H133425   2.302   6.623  13.918  2.3215  1.2068  1.3147
 3978TIP3    H233426   2.241   6.677  14.046 -2.1388 -0.1128 -0.1554
 3979TIP3   OH233427   4.038   2.620  14.710  0.3760  0.1953  0.1811
 3979TIP3    H133428   4.096   2.636  14.785  0.0204  0.8822  0.3134
 3979TIP3    H233429   3.981   2.697  14.707  0.0522 -0.0677 -0.4875
 3980TIP3   OH233430   6.632   4.402  14.636 -0.5498 -0.7164 -0.3589
 3980TIP3    H133431   6.713   4.426  14.681 -0.9027  0.3467 -0.2707
 3980TIP3    H233432   6.607   4.319  14.675  0.0146 -0.5970  0.2708
 3981TIP3   OH233433   4.833   2.431   4.691 -0.2856  0.0043  0.5942
 3981TIP3    H133434   4.787   2.470   4.766 -0.1630 -0.4407  0.9056
 3981TIP3    H233435   4.785   2.350   4.674 -0.4292  0.2015  0.0662
 3982TIP3   OH233436   5.917   0.378   2.119 -0.1963 -0.5265  0.2774
 3982TIP3    H133437   5.894   0.286   2.104 -0.5042 -0.4590  0.3376
 3982TIP3    H233438   6.007   0.386   2.086  0.3606 -1.2006  1.5882
 3983TIP3   OH233439   5.913   4.553  13.621 -0.3673  0.6527 -0.5339
 3983TIP3    H133440   5.866   4.614  13.565 -0.9577  0.2504 -0.4748
 3983TIP3    H233441   5.871   4.469  13.607  0.4827  0.2375 -0.6652
 3984TIP3   OH233442   3.012   0.688  13.872 -0.8874 -0.1810  0.1549
 3984TIP3    H133443   3.056   0.772  13.885  0.1619 -0.4212 -1.6050
 3984TIP3    H233444   2.941   0.688  13.935  1.4264  0.3611  2.8740
 3985TIP3   OH233445   2.395   0.777   0.118  0.0873 -0.0839  0.5275
 3985TIP3    H133446   2.426   0.824   0.041  0.3544  0.6769  1.0940
 3985TIP3    H233447   2.471   0.728   0.149  0.0817 -0.0951  0.5241
 3986TIP3   OH233448   3.898   0.773  15.210  0.0407 -0.2457  0.5728
 3986TIP3    H133449   3.900   0.745  15.301  1.6022  0.9808  0.9434
 3986TIP3    H233450   3.873   0.865  15.213  1.7259  0.2667 -0.0779
 3987TIP3   OH233451   2.355   5.318   4.759  0.4530 -0.3503 -0.1949
 3987TIP3    H133452   2.376   5.227   4.741  0.9909 -0.3954  0.6680
 3987TIP3    H233453   2.371   5.363   4.675 -0.6080 -1.1703 -0.8418
 3988TIP3   OH233454   1.979   2.208   4.877  0.1964  0.2610  0.0594
 3988TIP3    H133455   1.945   2.268   4.811  0.5696  0.2862 -0.1151
 3988TIP3    H233456   1.979   2.259   4.958  0.6256  0.5378 -0.1112
 3989TIP3   OH233457   1.858   4.853  12.554  0.2036  0.7876  0.4652
 3989TIP3    H133458   1.824   4.892  12.474 -1.1138  0.3692  0.8116
 3989TIP3    H233459   1.938   4.809  12.526  1.0183  2.6130 -0.1622
 3990TIP3   OH233460   1.494   4.807   2.861  0.3685  0.3891 -0.6831
 3990TIP3    H133461   1.477   4.889   2.907  2.4008  0.2350  0.4174
 3990TIP3    H233462   1.471   4.739   2.924 -1.7863  0.0794 -1.7695
 3991TIP3   OH233463   2.375   1.822  12.841 -0.0779  0.3597 -0.0788
 3991TIP3    H133464   2.376   1.820  12.745  2.0775 -1.0813 -0.0699
 3991TIP3    H233465   2.410   1.908  12.863  0.5967  0.2336 -0.6116
 3992TIP3   OH233466   3.651   1.260   4.119  0.5058 -0.1358 -0.2313
 3992TIP3    H133467   3.593   1.197   4.162 -1.6263  1.3022 -0.9719
 3992TIP3    H233468   3.688   1.312   4.190 -1.1557  0.6636  0.0496
 3993TIP3   OH233469   2.533   3.798  15.955 -0.5374  0.7821  0.3136
 3993TIP3    H133470   2.507   3.721  16.005  0.6012 -0.7287 -1.3576
 3993TIP3    H233471   2.555   3.863  16.022 -1.0173 -0.4987  1.7602
 3994TIP3   OH233472   5.075   0.886   5.195 -0.4743  0.7363  0.3875
 3994TIP3    H133473   5.063   0.971   5.237 -0.5345  1.0724 -0.2987
 3994TIP3    H233474   5.167   0.864   5.210  0.3208  2.2763 -1.8789
 3995TIP3   OH233475   4.561   1.654   1.658 -0.3436 -0.1858  0.8179
 3995TIP3    H133476   4.549   1.561   1.677  0.1969 -0.7812 -1.6004
 3995TIP3    H233477   4.546   1.661   1.564  0.4912  2.0353  0.8329
 3996TIP3   OH233478   1.584   1.257  12.073 -0.2061  0.2940  0.0011
 3996TIP3    H133479   1.572   1.244  12.167  1.4915  1.9628  0.4669
 3996TIP3    H233480   1.547   1.178  12.033 -1.4089 -0.2049  2.0286
 3997TIP3   OH233481   6.702   2.452  11.742 -0.3971  0.0136  0.1951
 3997TIP3    H133482   6.791   2.417  11.752 -0.3266  0.2360  0.3437
 3997TIP3    H233483   6.703   2.493  11.655  0.0742  1.2610  0.7662
 3998TIP3   OH233484   2.179   5.891  14.369  0.0885 -0.0511  0.4171
 3998TIP3    H133485   2.107   5.876  14.308  0.6748  0.3984 -0.3999
 3998TIP3    H233486   2.142   5.874  14.456 -0.6662 -1.0182 -0.0895
 3999TIP3   OH233487   0.135   0.946   4.000 -0.0236 -0.0622 -0.0889
 3999TIP3    H133488   0.120   0.989   4.084  0.0169  1.2548 -0.7326
 3999TIP3    H233489   0.138   0.853   4.020  0.8132  0.2971  1.4885
 4000TIP3   OH233490   1.876   3.216   2.528 -0.0806 -0.5886 -0.0912
 4000TIP3    H133491   1.856   3.213   2.622  0.8499  1.7276  0.2208
 4000TIP3    H233492   1.809   3.273   2.491  0.1890 -0.6323 -0.6472
 4001TIP3   OH233493   1.450   0.899   3.127 -0.2493 -0.0831 -0.3461
 4001TIP3    H133494   1.499   0.974   3.093  3.0861 -1.3736  1.3768
 4001TIP3    H233495   1.427   0.923   3.216 -0.3057 -0.5774 -0.2253
 4002TIP3   OH233496   1.197   5.880  16.003 -0.1424  0.8313  0.3075
 4002TIP3    H133497   1.141   5.819  16.051  0.0899  1.9029  1.9722
 4002TIP3    H233498   1.136   5.935  15.953 -0.3026 -1.5699 -2.2546
 4003TIP3   OH233499   0.095   3.236   4.201  0.1864  0.0507  0.0929
 4003TIP3    H133500   0.139   3.283   4.272 -0.4286  0.4875  0.1940
 4003TIP3    H233501   0.039   3.302   4.161 -1.4336 -0.8334  0.8585
 4004TIP3   OH233502   6.227   6.361  12.051  0.3704  0.2628 -0.5175
 4004TIP3    H133503   6.186   6.367  11.965 -0.2331  0.7335 -0.2007
 4004TIP3    H233504   6.154   6.361  12.113  0.7785 -0.6550 -0.0267
 4005TIP3   OH233505   5.986   4.391   6.030 -0.3569  0.0668  0.1009
 4005TIP3    H133506   5.922   4.320   6.022  1.2322 -1.5163  1.1389
 4005TIP3    H233507   5.979   4.439   5.948 -2.5859 -0.3277  0.0366
 4006TIP3   OH233508   1.900   2.140  11.888 -0.0410 -0.0431  0.2219
 4006TIP3    H133509   1.847   2.066  11.858 -1.4012  0.6913  0.8015
 4006TIP3    H233510   1.840   2.195  11.937  1.2942  0.7219  1.0489
 4007TIP3   OH233511   0.848   3.049  15.912  0.2886 -0.4027  0.6670
 4007TIP3    H133512   0.814   3.061  16.001  0.6571 -0.3911  0.8109
 4007TIP3    H233513   0.942   3.034  15.925  0.8551  2.3618  0.1083
 4008TIP3   OH233514   4.681   4.549  11.327 -0.2594 -0.8224  0.3395
 4008TIP3    H133515   4.619   4.510  11.266  1.4028 -0.9799 -1.3075
 4008TIP3    H233516   4.639   4.542  11.413 -2.9725  0.0930 -0.8619
 4009TIP3   OH233517   2.492   5.693  16.192  0.2053  0.0557 -0.0462
 4009TIP3    H133518   2.455   5.719  16.276 -1.5593  1.2934 -1.1693
 4009TIP3    H233519   2.572   5.745  16.184  0.8944 -0.7947  1.3060
 4010TIP3   OH233520   1.341   5.896   3.374  0.4126  0.3564 -0.1861
 4010TIP3    H133521   1.313   5.839   3.445  0.2193 -2.1974 -2.2586
 4010TIP3    H233522   1.372   5.975   3.419  1.8737 -1.8062  2.8423
 4011TIP3   OH233523   0.688   6.011   2.160  0.3568  0.2030  0.1160
 4011TIP3    H133524   0.746   6.087   2.152 -0.2533  0.6552 -0.0353
 4011TIP3    H233525   0.646   6.003   2.075  1.3980 -1.1151 -0.2926
 4012TIP3   OH233526   6.395   1.649   2.622 -0.3149  0.1762  0.6323
 4012TIP3    H133527   6.451   1.713   2.666 -0.2666 -0.2686  1.2271
 4012TIP3    H233528   6.373   1.689   2.538  1.6410 -0.0346  0.0106
 4013TIP3   OH233529   0.189   1.583  12.120  0.3811 -0.2391 -0.5136
 4013TIP3    H133530   0.232   1.629  12.048  1.0990 -1.3357 -0.8006
 4013TIP3    H233531   0.161   1.499  12.083 -1.6407  0.2863 -0.2027
 4014TIP3   OH233532   4.725   1.070  17.118  0.0724 -0.2409 -0.0502
 4014TIP3    H133533   4.777   1.151  17.127  0.1351 -0.4570  1.6282
 4014TIP3    H233534   4.648   1.097  17.069  0.5028  0.6647 -0.2460
 4015TIP3   OH233535   4.785   2.601  15.746 -0.2555 -0.1324  0.4278
 4015TIP3    H133536   4.865   2.640  15.711  0.6689 -0.3372  2.2008
 4015TIP3    H233537   4.726   2.675  15.759 -0.5453 -0.0413 -1.3696
 4016TIP3   OH233538   1.697   1.938  12.217 -0.9839 -0.1794  0.0840
 4016TIP3    H133539   1.651   1.863  12.255  1.5610 -0.2402  3.2140
 4016TIP3    H233540   1.696   2.004  12.286  0.6854  1.0508 -1.0273
 4017TIP3   OH233541   2.696   3.705  14.752 -0.2651  0.0260 -0.3029
 4017TIP3    H133542   2.633   3.691  14.682 -0.1436  2.0345 -0.8333
 4017TIP3    H233543   2.776   3.661  14.721 -0.6796 -0.4394 -0.7138
 4018TIP3   OH233544   5.288   5.379  13.990  0.2603 -0.1208  0.0043
 4018TIP3    H133545   5.237   5.374  13.909  1.1570 -1.9266 -0.4708
 4018TIP3    H233546   5.368   5.425  13.965 -0.1568  0.7191  0.2253
 4019TIP3   OH233547   4.438   2.838   4.230 -0.4586 -0.1180  1.0508
 4019TIP3    H133548   4.406   2.764   4.281  0.8861 -0.6479  1.1178
 4019TIP3    H233549   4.533   2.831   4.232 -0.3449  0.7715 -0.1751
 4020TIP3   OH233550   1.330   0.620   3.236  0.3611 -0.3813 -0.6509
 4020TIP3    H133551   1.395   0.654   3.298 -0.4331  2.1904 -1.1583
 4020TIP3    H233552   1.248   0.662   3.263 -0.5774 -1.5673 -1.6238
 4021TIP3   OH233553   6.165   0.448  16.369  0.2516 -0.6385  0.3122
 4021TIP3    H133554   6.245   0.426  16.418  0.7672  0.5493  0.0292
 4021TIP3    H233555   6.191   0.521  16.313 -0.3029 -2.0328 -1.8170
 4022TIP3   OH233556   3.968   3.305   3.843 -0.3957 -0.2596 -0.0373
 4022TIP3    H133557   3.952   3.311   3.749 -0.2184  3.3241  0.0700
 4022TIP3    H233558   4.064   3.301   3.851 -0.4575 -2.1889 -0.0265
 4023TIP3   OH233559   6.561   2.121  15.023  0.1699  0.2950  0.5322
 4023TIP3    H133560   6.597   2.206  15.048  0.1769  0.3105  0.4680
 4023TIP3    H233561   6.634   2.060  15.031 -0.4720 -0.2048  3.2341
 4024TIP3   OH233562   4.850   2.585   0.370 -0.1023 -0.4889 -0.1058
 4024TIP3    H133563   4.808   2.596   0.456 -2.7652  1.0714 -1.5540
 4024TIP3    H233564   4.810   2.506   0.334  0.9221 -1.0693  0.0095
 4025TIP3   OH233565   4.307   6.206   6.513  1.1214 -0.3214 -0.0326
 4025TIP3    H133566   4.285   6.166   6.597  3.4133 -1.0714  0.2508
 4025TIP3    H233567   4.247   6.280   6.504  1.2146  0.0861  2.4979
 4026TIP3   OH233568   2.435   4.928  14.939  0.7828 -0.2265  0.0820
 4026TIP3    H133569   2.389   4.975  15.008 -1.3524 -1.7757 -0.2252
 4026TIP3    H233570   2.399   4.963  14.857  1.0181 -0.5825 -0.1777
 4027TIP3   OH233571   0.172   6.457  13.618 -0.4572  0.4327  0.0870
 4027TIP3    H133572   0.082   6.425  13.620  0.0598 -0.9735  1.1231
 4027TIP3    H233573   0.165   6.548  13.647 -1.3907 -0.0289  1.3398
 4028TIP3   OH233574   4.072   6.414   5.986  0.2216 -0.3288 -0.1115
 4028TIP3    H133575   4.090   6.321   5.977  3.3972  0.3956 -1.6912
 4028TIP3    H233576   4.049   6.443   5.898 -0.7545  0.4064  0.3691
 4029TIP3   OH233577   2.076   5.741  11.753  0.3265 -0.2197 -0.0968
 4029TIP3    H133578   2.047   5.725  11.663 -1.4497  0.0066  0.4187
 4029TIP3    H233579   2.048   5.664  11.801  2.7373 -1.0987 -0.0288
 4030TIP3   OH233580   4.219   1.751  14.339  0.0934 -0.1138  0.5812
 4030TIP3    H133581   4.294   1.699  14.311  0.4357  0.7133 -0.0612
 4030TIP3    H233582   4.224   1.831  14.286  0.0799  0.9685  2.1767
 4031TIP3   OH233583   2.304   0.399   3.272 -0.1061 -0.2735 -0.0371
 4031TIP3    H133584   2.235   0.343   3.307 -0.8054  0.3844 -0.3539
 4031TIP3    H233585   2.382   0.345   3.274 -0.9669 -1.5929 -1.2643
 4032TIP3   OH233586   5.216   0.619   0.526 -0.5864  0.1569 -0.6286
 4032TIP3    H133587   5.205   0.636   0.620 -0.7995  0.5084 -0.7175
 4032TIP3    H233588   5.214   0.706   0.486 -0.5608  0.0004 -0.9678
 4033TIP3   OH233589   0.515   0.895  11.473  0.4248  0.1301 -0.2859
 4033TIP3    H133590   0.537   0.945  11.552 -2.1186  0.7939  0.0485
 4033TIP3    H233591   0.599   0.867  11.439  1.7186  1.7810  1.4056
 4034TIP3   OH233592   3.920   1.255   2.974  0.2515  0.0336 -0.1195
 4034TIP3    H133593   3.894   1.195   2.904 -1.0280  1.1883 -0.6539
 4034TIP3    H233594   4.003   1.293   2.943 -1.7622  2.7420 -2.4372
 4035TIP3   OH233595   6.820   6.155   0.031  0.1100 -0.3872 -0.1623
 4035TIP3    H133596   6.860   6.225  -0.021  1.3643 -0.2429  0.9806
 4035TIP3    H233597   6.837   6.075  -0.019  0.6139 -0.1558 -0.3714
 4036TIP3   OH233598   1.582   0.790  16.171  0.2574  0.2621 -0.2189
 4036TIP3    H133599   1.668   0.750  16.162 -0.2704 -0.5845 -1.5699
 4036TIP3    H233600   1.536   0.734  16.233 -0.3839 -1.1044 -1.8911
 4037TIP3   OH233601   1.293   2.583   2.604 -0.2134  0.1489 -0.2675
 4037TIP3    H133602   1.335   2.547   2.527  2.2353 -0.5058  1.3340
 4037TIP3    H233603   1.284   2.676   2.585  0.6308  0.0409 -1.2229
 4038TIP3   OH233604   3.892   5.087   5.662 -0.1946 -0.4742  0.0594
 4038TIP3    H133605   3.877   5.041   5.744  0.5310 -1.5288 -0.3867
 4038TIP3    H233606   3.931   5.171   5.688  1.1581 -1.2981  0.7350
 4039TIP3   OH233607   1.068   0.994  11.886  0.3318 -0.2264 -0.4254
 4039TIP3    H133608   1.088   0.912  11.840  0.5034 -0.5385  0.1909
 4039TIP3    H233609   1.132   0.997  11.957 -0.0954  0.1184 -0.0529
 4040TIP3   OH233610   1.932   3.642   0.522  0.3286  0.0654  0.4469
 4040TIP3    H133611   1.982   3.714   0.559  0.4484  0.5851 -0.7050
 4040TIP3    H233612   1.873   3.683   0.459  0.1629 -0.8040  0.0169
 4041TIP3   OH233613   4.828   1.531   6.201 -0.1193  0.2398  0.5193
 4041TIP3    H133614   4.762   1.599   6.208  0.5340  0.9324  0.1317
 4041TIP3    H233615   4.804   1.465   6.266 -0.1935  1.3282  1.5876
 4042TIP3   OH233616   6.230   0.489  15.772 -0.2640  0.2136  0.3081
 4042TIP3    H133617   6.309   0.518  15.818  0.3610 -2.1124  0.7805
 4042TIP3    H233618   6.166   0.474  15.841 -0.7832  1.0661  0.0152
 4043TIP3   OH233619   4.008   2.790   2.271  0.4304  0.4788  0.6891
 4043TIP3    H133620   3.959   2.723   2.319 -0.7679  0.3826 -0.6161
 4043TIP3    H233621   3.976   2.873   2.305 -1.5252  0.4366 -0.9597
 4044TIP3   OH233622   1.311   0.307   4.633 -0.4033  0.2780  0.0008
 4044TIP3    H133623   1.364   0.310   4.554  0.4798 -1.6785  0.4635
 4044TIP3    H233624   1.221   0.314   4.603 -0.1060 -0.9485 -1.2455
 4045TIP3   OH233625   4.429   3.588   3.245  0.4564  0.5704 -0.5805
 4045TIP3    H133626   4.460   3.648   3.313  0.8665  1.2807 -1.3827
 4045TIP3    H233627   4.459   3.627   3.163  0.7547 -0.7438 -1.1193
 4046TIP3   OH233628   3.007   4.041   6.096  0.1040  0.3594 -0.3748
 4046TIP3    H133629   3.032   4.121   6.143 -1.3250  0.5743  0.0669
 4046TIP3    H233630   2.928   4.066   6.047 -0.8232 -0.9741  0.3909
 4047TIP3   OH233631   1.715   5.491  15.847 -0.7074 -0.4641 -0.0591
 4047TIP3    H133632   1.723   5.585  15.864 -0.2077 -0.6264  0.6246
 4047TIP3    H233633   1.703   5.484  15.752  1.2394  0.1699 -0.3731
 4048TIP3   OH233634   1.786   6.094   6.913 -0.3291  0.0899  0.3374
 4048TIP3    H133635   1.794   6.188   6.895 -2.2436  0.1846 -0.0915
 4048TIP3    H233636   1.824   6.051   6.837  0.7407  0.5085  0.6294
 4049TIP3   OH233637   5.731   4.875  15.721 -0.5508 -0.1099  0.1375
 4049TIP3    H133638   5.705   4.804  15.780 -1.4433 -0.9198 -1.1890
 4049TIP3    H233639   5.654   4.889  15.666  0.4297  0.2896 -1.1546
 4050TIP3   OH233640   5.559   0.289  14.029 -0.4015  0.6071 -0.1173
 4050TIP3    H133641   5.501   0.265  14.101 -0.1897 -0.6506 -0.3588
 4050TIP3    H233642   5.600   0.207  14.002 -0.7370  0.9903 -1.9026
 4051TIP3   OH233643   5.986   5.514  12.380  0.5444 -0.0174 -0.4149
 4051TIP3    H133644   5.900   5.525  12.419  0.7252 -2.3117  0.7015
 4051TIP3    H233645   6.047   5.546  12.447  0.6777 -0.7273 -0.1945
 4052TIP3   OH233646   3.731   2.583  14.728 -0.4294 -0.0877 -0.2279
 4052TIP3    H133647   3.768   2.631  14.653  1.9328 -1.1529  0.1933
 4052TIP3    H233648   3.639   2.569  14.705 -0.1050  0.9491 -2.2460
 4053TIP3   OH233649   5.785   4.418   3.310  0.3421  0.0080  0.2329
 4053TIP3    H133650   5.797   4.469   3.229 -1.1373 -1.2679 -0.8215
 4053TIP3    H233651   5.825   4.333   3.291 -2.2974 -1.2033 -0.1355
 4054TIP3   OH233652   5.494   2.685  15.034  0.4811  0.0587 -0.2231
 4054TIP3    H133653   5.488   2.663  14.941 -0.0619 -2.3678  0.3356
 4054TIP3    H233654   5.405   2.674  15.067  0.9855 -0.7462  0.9101
 4055TIP3   OH233655   2.387   4.575  10.883  0.1098  0.0832 -0.3704
 4055TIP3    H133656   2.418   4.634  10.815  0.4140  0.9427  0.5162
 4055TIP3    H233657   2.296   4.557  10.860 -0.4058  1.9939  0.1139
 4056TIP3   OH233658   5.368   4.521  17.035  0.1690  0.0509  0.1508
 4056TIP3    H133659   5.399   4.451  16.977 -0.5346  0.3316 -0.5676
 4056TIP3    H233660   5.288   4.487  17.073 -0.4702  0.6701 -0.6168
 4057TIP3   OH233661   4.798   1.288  14.854 -0.3910  0.5666  0.2412
 4057TIP3    H133662   4.811   1.252  14.767 -0.3507 -0.1707  0.5454
 4057TIP3    H233663   4.768   1.378  14.839 -1.8555 -0.0389 -0.5548
 4058TIP3   OH233664   6.777   0.911  12.759  0.2751 -0.1870 -0.4276
 4058TIP3    H133665   6.720   0.967  12.707 -1.7801 -1.0804  0.8159
 4058TIP3    H233666   6.812   0.848  12.696 -3.1319 -2.0193 -0.6120
 4059TIP3   OH233667   1.462   1.760  11.599 -0.0128 -0.4072  0.1314
 4059TIP3    H133668   1.528   1.738  11.533 -2.2496 -1.3326 -1.8514
 4059TIP3    H233669   1.436   1.850  11.578 -1.3085 -0.9786 -0.8041
 4060TIP3   OH233670   4.937   3.506   5.178 -0.2095  0.5446 -0.2100
 4060TIP3    H133671   4.948   3.414   5.151 -1.1030  0.7330 -1.2350
 4060TIP3    H233672   4.948   3.504   5.273  0.3646 -0.5337 -0.2886
 4061TIP3   OH233673   1.802   1.528   2.748 -0.1015  0.7114 -0.3319
 4061TIP3    H133674   1.787   1.466   2.820 -0.3830  1.9436  0.6938
 4061TIP3    H233675   1.732   1.510   2.686  0.2902 -0.5372 -0.4367
 4062TIP3   OH233676   2.984   5.166   4.761  0.1062  0.1764  0.2134
 4062TIP3    H133677   3.055   5.103   4.747  0.3729  0.8775 -1.6916
 4062TIP3    H233678   3.021   5.250   4.737 -0.5823  0.9505  1.7536
 4063TIP3   OH233679   5.701   3.122   2.956  0.0798  0.0560  0.3477
 4063TIP3    H133680   5.737   3.050   3.007  0.4971  0.0756  0.0811
 4063TIP3    H233681   5.624   3.085   2.913  0.8506 -0.4913 -0.5570
 4064TIP3   OH233682   1.389   3.605  16.521  0.5290 -0.3805  0.0877
 4064TIP3    H133683   1.358   3.688  16.557  1.2089  0.7273 -1.7895
 4064TIP3    H233684   1.360   3.606  16.430  0.4603 -2.2593  0.0633
 4065TIP3   OH233685   1.742   3.978   3.137  0.0336  0.1125  0.0337
 4065TIP3    H133686   1.647   3.969   3.138 -0.1040  1.4583  0.1984
 4065TIP3    H233687   1.772   3.911   3.076 -1.0543 -0.0015 -0.3828
 4066TIP3   OH233688   0.641   3.106  13.858 -0.7316 -0.0873  0.3709
 4066TIP3    H133689   0.729   3.088  13.823 -2.0007 -1.8583 -2.0242
 4066TIP3    H233690   0.615   3.187  13.815 -1.5705 -1.3279 -1.5514
 4067TIP3   OH233691   0.455   0.859   2.920 -0.2795  0.1789 -0.2351
 4067TIP3    H133692   0.479   0.840   3.011 -1.5357  2.2878  0.5806
 4067TIP3    H233693   0.462   0.954   2.913 -0.0541  0.0168 -2.3986
 4068TIP3   OH233694   2.953   2.351  15.066 -0.1665 -0.0143  0.2920
 4068TIP3    H133695   2.922   2.298  14.992 -0.2939  1.9549 -1.1217
 4068TIP3    H233696   2.922   2.440  15.046 -0.2379  0.5509  2.7549
 4069TIP3   OH233697   1.645   2.753  12.550  0.1940  0.4410 -0.1429
 4069TIP3    H133698   1.740   2.742  12.548  0.1982  0.6463 -1.0320
 4069TIP3    H233699   1.623   2.746  12.643  0.7561 -2.1623 -0.1579
 4070TIP3   OH233700   0.994   3.715   2.515  0.2391  0.7123 -0.2196
 4070TIP3    H133701   1.028   3.754   2.595  0.3406  0.3183 -0.0679
 4070TIP3    H233702   0.926   3.654   2.544  1.5459 -0.8284 -0.2734
 4071TIP3   OH233703   5.712   4.902  12.509  0.2864 -0.0312  0.3337
 4071TIP3    H133704   5.803   4.904  12.540  0.1239 -0.7041  0.8487
 4071TIP3    H233705   5.681   4.992  12.520  1.3218  0.5272 -1.1419
 4072TIP3   OH233706   1.930   6.191  14.006 -0.3591 -0.4040  0.2892
 4072TIP3    H133707   1.861   6.134  13.972 -1.7707  0.9344  0.8601
 4072TIP3    H233708   1.899   6.280  13.988  1.0388  0.2250  0.8999
 4073TIP3   OH233709   5.720   1.771  16.296 -0.4326 -0.4846  0.2272
 4073TIP3    H133710   5.726   1.776  16.392 -1.2068 -0.1248  0.2534
 4073TIP3    H233711   5.809   1.789  16.266 -0.6901  1.7811  0.7799
 4074TIP3   OH233712   6.727   1.700   1.768  0.1097 -0.3587 -1.0616
 4074TIP3    H133713   6.738   1.761   1.695 -0.1081  0.3437 -0.5148
 4074TIP3    H233714   6.780   1.737   1.838  1.1198 -1.5621 -1.1725
 4075TIP3   OH233715   2.594   2.971  14.430  0.1112  0.1175 -0.0966
 4075TIP3    H133716   2.617   2.957  14.522 -0.4864 -0.8655 -0.0896
 4075TIP3    H233717   2.567   3.063  14.425 -2.6204 -0.5593  1.3175
 4076TIP3   OH233718   3.680   2.487   4.923 -0.4632 -0.2837 -0.6131
 4076TIP3    H133719   3.701   2.491   5.017 -1.5025 -2.9834 -0.2191
 4076TIP3    H233720   3.763   2.506   4.880 -0.2400  2.2599  0.8142
 4077TIP3   OH233721   6.574   6.142   4.535 -0.4162 -0.0911 -0.2196
 4077TIP3    H133722   6.663   6.106   4.545 -0.2630  0.0516 -1.0516
 4077TIP3    H233723   6.555   6.182   4.620  0.0400 -0.7440  0.1965
 4078TIP3   OH233724   2.557   2.877  14.903  0.0063  0.5386  0.1659
 4078TIP3    H133725   2.532   2.848  14.815  0.9108  1.1614 -0.3048
 4078TIP3    H233726   2.620   2.812  14.933  0.3383  0.7812  0.0049
 4079TIP3   OH233727   3.444   2.851   4.084 -0.1834 -0.1571 -0.4347
 4079TIP3    H133728   3.384   2.874   4.155 -1.1669  1.5342 -1.7560
 4079TIP3    H233729   3.529   2.837   4.126 -1.1359 -0.9329  1.2613
 4080TIP3   OH233730   0.876   5.072   1.616  0.4457 -0.3554 -0.2163
 4080TIP3    H133731   0.967   5.070   1.587  0.5675 -1.1165  0.1945
 4080TIP3    H233732   0.879   5.112   1.703  0.1987  1.0208 -0.8259
 4081TIP3   OH233733   5.728   2.071   0.479  0.7297 -0.1655  0.3429
 4081TIP3    H133734   5.759   2.161   0.469 -1.0042  0.5524  1.0328
 4081TIP3    H233735   5.702   2.044   0.391  2.1890 -0.3607 -0.0333
 4082TIP3   OH233736   1.120   5.491   4.062  0.0375 -0.5259  0.4084
 4082TIP3    H133737   1.204   5.481   4.018 -0.0038  1.1198 -0.0998
 4082TIP3    H233738   1.075   5.408   4.049  1.5727 -1.4055  0.6635
 4083TIP3   OH233739   6.226   5.141  11.908  0.0634 -0.5352  0.2131
 4083TIP3    H133740   6.245   5.051  11.883 -0.1026  0.2852 -3.1013
 4083TIP3    H233741   6.244   5.192  11.829 -1.4706  2.1192  1.5127
 4084TIP3   OH233742   0.783   4.882   4.154 -0.3317 -0.2208 -0.0941
 4084TIP3    H133743   0.729   4.809   4.123 -0.4444  0.5813 -1.8551
 4084TIP3    H233744   0.870   4.844   4.167 -0.0619 -0.4394 -2.2501
 4085TIP3   OH233745   0.099   4.941   5.189  0.6503  0.3223  0.1519
 4085TIP3    H133746   0.094   4.856   5.233 -2.1734  0.1298 -0.4317
 4085TIP3    H233747   0.133   4.922   5.102  1.5513  0.0267  0.5631
 4086TIP3   OH233748   1.907   5.681   1.691  0.3380  0.4244 -0.1376
 4086TIP3    H133749   1.955   5.644   1.616  0.5861 -0.6313  0.5446
 4086TIP3    H233750   1.971   5.684   1.762 -0.4098 -0.3016  0.5721
 4087TIP3   OH233751   2.411   6.580  14.935  0.2129  0.6667  0.0323
 4087TIP3    H133752   2.444   6.655  14.886 -0.4771  0.0444 -1.4014
 4087TIP3    H233753   2.485   6.519  14.938 -0.6658 -0.6128 -2.9436
 4088TIP3   OH233754   0.872   4.788  13.158  0.2261  0.1816 -0.4087
 4088TIP3    H133755   0.911   4.792  13.246  1.5763  3.0630 -1.0815
 4088TIP3    H233756   0.932   4.732  13.108 -0.0506 -0.7130  0.2320
 4089TIP3   OH233757   5.806   2.145  13.305  0.3496  0.5853 -0.0007
 4089TIP3    H133758   5.745   2.179  13.240 -1.6744 -2.3388  0.3014
 4089TIP3    H233759   5.883   2.118  13.255 -0.4178  0.1150 -0.9275
 4090TIP3   OH233760   2.925   6.568   1.941  0.3615 -0.1600  0.3708
 4090TIP3    H133761   2.859   6.637   1.943  2.1647  1.5704  2.3124
 4090TIP3    H233762   2.977   6.582   2.020  2.8896 -1.6230 -0.9694
 4091TIP3   OH233763   1.455   3.904  12.773 -0.5897  0.6608 -0.0397
 4091TIP3    H133764   1.539   3.907  12.728  0.1090  0.0458  1.2179
 4091TIP3    H233765   1.397   3.859  12.711  0.5198 -0.7544 -0.0695
 4092TIP3   OH233766   5.333   5.403   0.169 -0.0950 -0.2498 -0.1847
 4092TIP3    H133767   5.273   5.412   0.095  1.1082  0.4541 -1.1018
 4092TIP3    H233768   5.413   5.366   0.130  0.8887  1.0522  0.5849
 4093TIP3   OH233769   2.672   4.936   0.907 -0.7473 -0.0433  0.3844
 4093TIP3    H133770   2.691   5.022   0.868  0.2166  0.6201  2.2182
 4093TIP3    H233771   2.692   4.948   1.000  0.7035 -2.6343  0.4616
 4094TIP3   OH233772   5.026   3.362  15.215 -0.1927  0.0956  0.0632
 4094TIP3    H133773   5.104   3.335  15.166 -0.1372  0.2396  0.0732
 4094TIP3    H233774   4.978   3.418  15.155 -1.4884 -1.8943 -0.8196
 4095TIP3   OH233775   1.597   0.129  15.372 -0.2471 -0.0518 -0.6956
 4095TIP3    H133776   1.620   0.129  15.279  0.5262 -0.5361 -0.5142
 4095TIP3    H233777   1.595   0.036  15.396  0.0874  0.0914 -0.0981
 4096TIP3   OH233778   4.538   0.695  17.044 -0.2571  0.7489 -0.2895
 4096TIP3    H133779   4.584   0.643  16.978  0.5611 -2.2875  2.5008
 4096TIP3    H233780   4.454   0.651  17.055 -0.4143  1.2631  0.6085
 4097TIP3   OH233781   1.710   0.846  12.330 -0.2747  0.3617  0.2207
 4097TIP3    H133782   1.720   0.901  12.252  0.4705 -0.2150 -0.0939
 4097TIP3    H233783   1.774   0.776  12.318  0.1066  0.4770  1.5379
 4098TIP3   OH233784   6.578   2.516  13.828  0.3901  0.7245  0.1096
 4098TIP3    H133785   6.503   2.468  13.862  0.2523  0.2120 -0.8934
 4098TIP3    H233786   6.567   2.514  13.733  1.4001  1.0886 -0.0256
 4099TIP3   OH233787   0.773   4.817  16.792 -0.2168 -0.3857  0.5679
 4099TIP3    H133788   0.711   4.821  16.865 -0.8625 -3.2011  0.2300
 4099TIP3    H233789   0.859   4.825  16.834 -0.6559 -0.3535  1.4773
 4100TIP3   OH233790   2.165   0.979   0.419 -0.2231 -0.2651 -0.2667
 4100TIP3    H133791   2.193   1.043   0.485 -0.7883  0.0713 -0.3546
 4100TIP3    H233792   2.082   1.013   0.387  0.5524  0.1291 -1.9070
 4101TIP3   OH233793   0.590   2.005  12.533 -0.2435 -0.1795 -0.0607
 4101TIP3    H133794   0.583   1.913  12.507 -1.2436 -0.4311  1.0511
 4101TIP3    H233795   0.570   2.055  12.453 -0.5677 -0.9316 -0.4521
 4102TIP3   OH233796   3.764   1.609   1.137 -0.2724 -0.1616  0.1763
 4102TIP3    H133797   3.808   1.691   1.159  0.3669 -0.5571  0.3783
 4102TIP3    H233798   3.671   1.631   1.136 -0.1557  0.3837  1.0192
 4103TIP3   OH233799   5.723   3.755  17.059 -0.2527  0.6067 -0.2211
 4103TIP3    H133800   5.655   3.723  17.000 -0.1872  0.4256 -0.1985
 4103TIP3    H233801   5.688   3.738  17.147 -0.6077  1.4126 -0.1983
 4104TIP3   OH233802   4.349   0.652   0.677 -0.0009 -0.0481  0.0726
 4104TIP3    H133803   4.441   0.657   0.700 -0.1469  1.9113  0.3037
 4104TIP3    H233804   4.345   0.688   0.588 -0.4251 -0.9332 -0.2705
 4105TIP3   OH233805   2.251   1.505  13.514  0.1159 -0.3549  0.0609
 4105TIP3    H133806   2.285   1.432  13.565 -0.2336  0.7742  1.9655
 4105TIP3    H233807   2.312   1.577  13.532 -0.4487  0.2690 -0.5088
 4106TIP3   OH233808   6.739   0.246  12.958  0.2079  0.4933 -0.0034
 4106TIP3    H133809   6.808   0.181  12.946  1.1496  1.5359 -0.3434
 4106TIP3    H233810   6.724   0.282  12.871  1.5064  2.5120  0.5555
 4107TIP3   OH233811   4.992   6.073   3.496  0.2822 -0.2731  0.0984
 4107TIP3    H133812   4.947   6.127   3.432  0.7752  0.6460  0.5138
 4107TIP3    H233813   4.964   6.107   3.581 -0.5584 -1.6393  0.3906
 4108TIP3   OH233814   3.616   6.318  13.084 -0.1798  0.2133  0.7190
 4108TIP3    H133815   3.523   6.318  13.106 -0.6816 -0.6062 -1.3228
 4108TIP3    H233816   3.624   6.376  13.009  0.0675 -3.7061 -2.4581
 4109TIP3   OH233817   4.564   6.212  12.159 -0.4807 -0.2734 -0.9930
 4109TIP3    H133818   4.593   6.303  12.155  0.7758 -0.6259 -0.2191
 4109TIP3    H233819   4.487   6.209  12.103 -0.3458  1.1999 -1.2761
 4110TIP3   OH233820   0.081   0.701   3.380  0.4024  0.1828  0.1317
 4110TIP3    H133821   0.022   0.655   3.440  2.4074 -3.0835 -0.3160
 4110TIP3    H233822   0.080   0.648   3.300  3.5567  0.3045 -0.0522
 4111TIP3   OH233823   2.891   0.771   5.085  0.9819  0.1865  0.2491
 4111TIP3    H133824   2.819   0.730   5.037  0.5899  0.7716  0.3383
 4111TIP3    H233825   2.876   0.865   5.076  0.4926  0.3182  2.0864
 4112TIP3   OH233826   5.822   2.064   0.060  0.9289 -0.2704 -0.0383
 4112TIP3    H133827   5.764   2.026   0.126  0.5835 -0.0811 -0.2303
 4112TIP3    H233828   5.907   2.026   0.078  1.1151  0.7853  1.3313
 4113TIP3   OH233829   4.684   1.481  13.951  0.0247 -0.4968  0.2274
 4113TIP3    H133830   4.744   1.517  13.885  0.4738 -1.8843 -0.1526
 4113TIP3    H233831   4.695   1.537  14.027  0.8547  0.0360 -0.2749
 4114TIP3   OH233832   1.578   0.090   2.204 -0.2770  0.0940 -0.1226
 4114TIP3    H133833   1.578   0.120   2.113 -0.8553 -3.2223 -1.2946
 4114TIP3    H233834   1.668   0.102   2.233  0.1909  0.1178 -1.5182
 4115TIP3   OH233835   3.959   4.325  16.582 -0.0246  0.2651 -0.1741
 4115TIP3    H133836   3.959   4.281  16.497 -0.9742 -0.3274  0.1279
 4115TIP3    H233837   4.050   4.318  16.612  0.6123  1.5410 -1.6656
 4116TIP3   OH233838   4.804   6.221  16.892  0.0502  0.1207 -0.4144
 4116TIP3    H133839   4.874   6.163  16.922 -1.0142 -0.4711  0.9437
 4116TIP3    H233840   4.773   6.182  16.810  0.1271 -0.5619 -0.1162
 4117TIP3   OH233841   1.733   4.364  14.845 -0.1273 -0.6377  0.0951
 4117TIP3    H133842   1.679   4.294  14.882 -0.5744  0.1308  0.9339
 4117TIP3    H233843   1.672   4.436  14.829  0.4656 -0.1355  0.0501
 4118TIP3   OH233844   2.594   1.270  12.728  0.1538 -0.1139  0.2103
 4118TIP3    H133845   2.688   1.285  12.744  0.2384 -2.2601  1.9955
 4118TIP3    H233846   2.573   1.327  12.654  3.1509 -0.4293 -0.9873
 4119TIP3   OH233847   1.350   4.134   1.223 -0.2197  0.2348  0.0705
 4119TIP3    H133848   1.351   4.158   1.131 -1.9971  0.8429  0.1995
 4119TIP3    H233849   1.263   4.096   1.237 -0.8521  2.2945  2.0269
 4120TIP3   OH233850   2.589   6.465  12.603 -0.2950 -0.6615  0.0949
 4120TIP3    H133851   2.644   6.389  12.584 -0.4084 -1.3757  2.4979
 4120TIP3    H233852   2.639   6.515  12.667  0.0836  1.6711 -1.9552
 4121TIP3   OH233853   5.911   3.683  14.576 -1.1536 -0.1116 -0.0324
 4121TIP3    H133854   5.925   3.589  14.589 -1.9228 -0.6092 -2.4574
 4121TIP3    H233855   5.917   3.721  14.664  2.7017 -1.9021  0.5823
 4122TIP3   OH233856   5.809   3.878  15.036  0.6638  0.0580 -0.6053
 4122TIP3    H133857   5.835   3.963  14.999  2.6681  1.2935  3.2957
 4122TIP3    H233858   5.716   3.888  15.056  0.4993  0.7391 -1.6556
 4123TIP3   OH233859   6.616   3.754  13.956 -0.0161  0.0617 -0.2702
 4123TIP3    H133860   6.569   3.736  14.037  0.8170 -1.8705 -0.2013
 4123TIP3    H233861   6.585   3.687  13.895 -1.1396  1.8961 -1.7909
 4124TIP3   OH233862   6.254   1.868   4.443  0.8119 -0.9736  0.2618
 4124TIP3    H133863   6.196   1.869   4.519  1.8103  0.6216  1.0171
 4124TIP3    H233864   6.197   1.845   4.370 -0.8710  1.0951  0.8960
 4125TIP3   OH233865   4.916   5.415   2.591 -0.0076  0.0680 -0.6855
 4125TIP3    H133866   4.962   5.439   2.671  0.2497 -0.1319 -0.7728
 4125TIP3    H233867   4.916   5.494   2.538  1.3326 -0.2847 -1.2125
 4126TIP3   OH233868   0.104   6.669  15.156  0.2265  0.2644  0.1005
 4126TIP3    H133869   0.047   6.653  15.231  0.3560  1.1754  0.4035
 4126TIP3    H233870   0.172   6.728  15.189  0.3951  0.5214 -0.6823
 4127TIP3   OH233871   1.884   6.089   2.215 -0.1073  0.3594 -0.4023
 4127TIP3    H133872   1.847   6.176   2.230  0.1894  0.4861 -0.3955
 4127TIP3    H233873   1.928   6.096   2.131  1.4407  0.7339  0.4245
 4128TIP3   OH233874   5.730   1.629   2.820 -0.0721 -0.1975  0.1516
 4128TIP3    H133875   5.705   1.588   2.737 -1.5954  2.2331 -0.6387
 4128TIP3    H233876   5.809   1.678   2.800 -1.0236  1.2472 -0.1711
 4129TIP3   OH233877   3.434   3.638   0.780  0.1826 -0.0715  0.6964
 4129TIP3    H133878   3.433   3.590   0.862  1.0077  0.0003  0.7524
 4129TIP3    H233879   3.493   3.588   0.724  1.1477  0.9478  0.8016
 4130TIP3   OH233880   6.041   5.605  11.144 -0.9018 -0.0296  0.3738
 4130TIP3    H133881   6.125   5.646  11.164 -2.2822  2.6686  0.9574
 4130TIP3    H233882   6.043   5.593  11.049 -0.7851  2.3480  0.0236
 4131TIP3   OH233883   5.140   5.263  15.485 -0.5749 -0.4183  0.0025
 4131TIP3    H133884   5.128   5.354  15.513 -0.4312 -0.8285  1.4231
 4131TIP3    H233885   5.064   5.216  15.520 -0.3571 -0.9563 -0.2348
 4132TIP3   OH233886   6.114   3.244  11.858 -0.2561  0.0914 -0.1348
 4132TIP3    H133887   6.148   3.330  11.834 -1.5944  0.7677  0.3556
 4132TIP3    H233888   6.051   3.261  11.928 -0.6850 -1.2656 -0.1677
 4133TIP3   OH233889   5.477   1.922  14.523 -0.3161  0.3281  0.0017
 4133TIP3    H133890   5.403   1.861  14.531 -0.6419  0.5701 -1.0907
 4133TIP3    H233891   5.481   1.943  14.430 -0.3405  2.1596  0.3930
 4134TIP3   OH233892   0.306   6.068  11.689  0.2177  0.3945  0.0387
 4134TIP3    H133893   0.244   5.997  11.701  1.3404 -0.1237  3.3666
 4134TIP3    H233894   0.255   6.148  11.704 -0.0840  0.0639  0.7884
 4135TIP3   OH233895   3.597   1.063   6.186 -0.7039 -0.0785  0.1007
 4135TIP3    H133896   3.617   0.976   6.220  2.0604  0.9084  1.1467
 4135TIP3    H233897   3.649   1.122   6.240 -2.9013  2.2779 -0.2773
 4136TIP3   OH233898   4.575   6.577   2.832  0.0402 -0.1678 -0.0880
 4136TIP3    H133899   4.606   6.554   2.919 -1.1527 -0.9019  0.1595
 4136TIP3    H233900   4.654   6.581   2.778  0.7387 -0.0835  0.9420
 4137TIP3   OH233901   4.049   1.742   4.823  0.2678  0.0216  0.2706
 4137TIP3    H133902   4.003   1.723   4.741  1.8101 -1.9778 -0.1762
 4137TIP3    H233903   3.989   1.799   4.871 -2.0190 -1.2953 -0.9107
 4138TIP3   OH233904   4.830   1.859   0.099 -0.4245  0.0980  0.0361
 4138TIP3    H133905   4.759   1.924   0.101 -0.1368  0.4556 -0.9581
 4138TIP3    H233906   4.820   1.811   0.181 -1.2276  0.7769  0.3546
 4139TIP3   OH233907   0.960   2.263  13.534  0.5422  0.4618  0.0164
 4139TIP3    H133908   0.925   2.285  13.448  3.3342 -0.3386 -1.4060
 4139TIP3    H233909   0.988   2.347  13.571 -1.8271  0.9737  0.7470
 4140TIP3   OH233910   0.852   1.805   3.097 -0.2394 -1.0080  0.0149
 4140TIP3    H133911   0.805   1.755   3.164 -2.0499 -0.6581 -0.9788
 4140TIP3    H233912   0.864   1.744   3.025 -0.0520 -0.8050 -0.1269
 4141TIP3   OH233913   1.500   5.346  16.357 -0.6113 -0.2054 -0.0475
 4141TIP3    H133914   1.438   5.368  16.286 -1.6542 -3.5270 -0.2622
 4141TIP3    H233915   1.447   5.348  16.436 -0.4965 -0.9678  0.0479
 4142TIP3   OH233916   1.876   3.478   5.680 -0.2759 -0.0860 -0.2293
 4142TIP3    H133917   1.914   3.483   5.592  0.7485 -0.5392  0.1776
 4142TIP3    H233918   1.824   3.397   5.679  0.5822 -0.6454 -0.0951
 4143TIP3   OH233919   6.770   0.979   1.088  0.0327  0.1774  0.0673
 4143TIP3    H133920   6.782   1.049   1.152 -0.6096  0.2586  0.1086
 4143TIP3    H233921   6.687   1.001   1.045  0.1769 -0.1865 -0.3917
 4144TIP3   OH233922   1.072   2.778   3.296  0.3600 -0.3907 -0.5161
 4144TIP3    H133923   1.047   2.848   3.356 -0.1445 -2.1087  1.3527
 4144TIP3    H233924   1.166   2.791   3.282  1.2170 -1.8152  3.2839
 4145TIP3   OH233925   3.765   0.196  12.828 -0.3018 -0.5340 -0.1955
 4145TIP3    H133926   3.853   0.231  12.815  0.1153 -0.9916  1.2743
 4145TIP3    H233927   3.743   0.156  12.744  1.2149 -1.1009 -0.3531
 4146TIP3   OH233928   6.054   0.083   0.621 -0.3619 -0.2654  0.0398
 4146TIP3    H133929   6.095   0.015   0.567  0.0579 -1.1966  1.4754
 4146TIP3    H233930   5.968   0.047   0.644 -0.3393 -0.0999  0.3860
 4147TIP3   OH233931   3.860   1.732   4.345  0.0749  0.3380 -0.3143
 4147TIP3    H133932   3.891   1.734   4.436 -1.4039  2.2627  0.1968
 4147TIP3    H233933   3.803   1.809   4.338 -0.4352 -0.2164 -2.6669
 4148TIP3   OH233934   6.498   5.987   1.148 -0.1736  0.1097  0.3396
 4148TIP3    H133935   6.547   6.017   1.072 -0.5895  0.2701  0.1349
 4148TIP3    H233936   6.453   5.908   1.118  0.7548 -0.6071  0.8160
 4149TIP3   OH233937   3.326   3.346  13.082  0.0971  0.2461 -0.0326
 4149TIP3    H133938   3.290   3.263  13.113  1.3368 -0.0683  0.5836
 4149TIP3    H233939   3.393   3.370  13.146  0.8445  0.9279 -1.0420
 4150TIP3   OH233940   3.121   0.339   5.102 -0.0626 -0.8536  0.1310
 4150TIP3    H133941   3.050   0.357   5.163 -0.3127 -0.8911 -0.1506
 4150TIP3    H233942   3.197   0.324   5.158 -0.3385 -1.0914  0.4422
 4151TIP3   OH233943   5.277   4.814   1.520  0.6193 -0.6637 -0.1088
 4151TIP3    H133944   5.322   4.856   1.593  0.6122 -1.2285  0.2227
 4151TIP3    H233945   5.265   4.884   1.456  0.0963 -0.0329  0.6718
 4152TIP3   OH233946   1.060   6.744   3.800 -0.4492  0.6424 -0.0009
 4152TIP3    H133947   1.107   6.682   3.744  0.4602 -0.2710  1.7498
 4152TIP3    H233948   1.086   6.830   3.765  0.3249  0.0927 -0.8199
 4153TIP3   OH233949   3.163   2.507  16.051  0.3492  0.2838  0.3408
 4153TIP3    H133950   3.079   2.519  16.096  0.9231  3.2644  0.6761
 4153TIP3    H233951   3.139   2.487  15.961 -0.7485 -2.4840  1.1713
 4154TIP3   OH233952   4.297   1.015  10.940  0.0627  0.0426  0.1869
 4154TIP3    H133953   4.370   1.067  10.975  0.6769 -1.1751  0.7487
 4154TIP3    H233954   4.337   0.957  10.876 -0.6572  0.4010 -0.5937
 4155TIP3   OH233955   1.432   3.313   2.850  0.1832  0.0080 -0.4853
 4155TIP3    H133956   1.517   3.353   2.831  0.2895 -0.4087 -0.8901
 4155TIP3    H233957   1.370   3.367   2.801  0.2093  0.3261 -0.1723
 4156TIP3   OH233958   1.753   4.240  16.232  0.0472  0.0359 -0.9593
 4156TIP3    H133959   1.779   4.281  16.314  4.2373  0.7423 -2.5277
 4156TIP3    H233960   1.710   4.309  16.182  0.3177  0.4481 -0.6203
 4157TIP3   OH233961   4.057   3.553   1.157 -0.7566  0.1917  0.0151
 4157TIP3    H133962   4.128   3.548   1.094  0.0559  0.9470  0.8467
 4157TIP3    H233963   3.997   3.618   1.121 -0.3345  0.5633 -0.0227
 4158TIP3   OH233964   0.857   5.176  16.631  0.6501  0.1387 -0.3380
 4158TIP3    H133965   0.868   5.267  16.659 -1.5594 -0.1748  1.7200
 4158TIP3    H233966   0.917   5.126  16.686 -0.5909  0.0124  0.9460
 4159TIP3   OH233967   0.673   2.456  13.898 -0.0080 -0.0636  0.2336
 4159TIP3    H133968   0.695   2.448  13.806 -2.1404  1.8545 -0.4919
 4159TIP3    H233969   0.674   2.550  13.915  1.3505 -0.4406  2.4290
 4160TIP3   OH233970   3.545   2.798  16.151 -0.7096  0.6766 -0.8723
 4160TIP3    H133971   3.577   2.727  16.207 -0.1479  2.0035  0.5345
 4160TIP3    H233972   3.450   2.793  16.159 -0.6658  0.2594 -0.5623
 4161TIP3   OH233973   0.114   1.195   3.409  0.5119  0.0192  0.1932
 4161TIP3    H133974   0.076   1.282   3.416  0.9662  0.1838  0.5534
 4161TIP3    H233975   0.049   1.137   3.449 -0.4860 -0.0038 -1.3935
 4162TIP3   OH233976   0.702   6.627  16.208  0.5423 -0.1389  0.2163
 4162TIP3    H133977   0.696   6.678  16.288 -0.0305 -4.3971  3.0289
 4162TIP3    H233978   0.752   6.549  16.232  0.4758 -1.4776 -3.5886
 4163TIP3   OH233979   6.085   5.386  16.923  0.2354  0.0924  0.0136
 4163TIP3    H133980   6.073   5.294  16.944 -1.6127  0.1168 -0.8706
 4163TIP3    H233981   6.128   5.423  17.000 -2.0986 -0.8017  1.7943
 4164TIP3   OH233982   0.614   6.188  13.731  0.3927  0.6782  0.6676
 4164TIP3    H133983   0.574   6.155  13.650 -1.3457 -0.6983  2.0452
 4164TIP3    H233984   0.554   6.256  13.761  0.4662  0.4433  1.3557
 4165TIP3   OH233985   6.008   3.905   0.984  0.0807  0.5699  0.1189
 4165TIP3    H133986   5.949   3.833   0.960  0.4042  0.1789  0.4816
 4165TIP3    H233987   6.012   3.960   0.906 -0.5714  0.4674  0.0095
 4166TIP3   OH233988   5.192   5.507   2.146  0.5638  0.0028 -0.0851
 4166TIP3    H133989   5.156   5.444   2.208  0.4942  0.4136  0.2971
 4166TIP3    H233990   5.259   5.554   2.195  1.3918 -0.5354 -0.7042
 4167TIP3   OH233991   2.584   0.872  12.140 -0.5881  0.1729  0.1755
 4167TIP3    H133992   2.671   0.912  12.135 -0.8662  1.2954  3.0112
 4167TIP3    H233993   2.535   0.913  12.069  0.9833  0.1001 -0.9719
 4168TIP3   OH233994   1.826   1.182   5.581 -0.1248  0.4024 -0.2772
 4168TIP3    H133995   1.890   1.110   5.578 -1.0186 -0.3909 -0.4197
 4168TIP3    H233996   1.879   1.261   5.571  0.7263 -0.3091 -1.5608
 4169TIP3   OH233997   1.310   2.837  15.566  0.3216 -0.0078 -0.5421
 4169TIP3    H133998   1.327   2.751  15.602  0.2217  0.5624  0.8932
 4169TIP3    H233999   1.238   2.872  15.619  1.2672  1.4864 -0.2042
 4170TIP3   OH234000   6.818   6.250   6.421  1.1703 -0.7771 -0.3235
 4170TIP3    H134001   6.762   6.178   6.452 -0.5245  0.2788 -0.8411
 4170TIP3    H234002   6.886   6.257   6.488 -0.8443 -0.3736  1.7940
 4171TIP3   OH234003   0.830   4.606  16.339  0.3657 -0.3455 -0.1650
 4171TIP3    H134004   0.782   4.527  16.364  0.9243 -0.5727  0.1885
 4171TIP3    H234005   0.773   4.649  16.275  0.5466 -1.5951 -1.1885
 4172TIP3   OH234006   1.240   6.717  15.581 -0.2824 -0.6086 -0.0334
 4172TIP3    H134007   1.145   6.720  15.595 -0.2831 -2.3928  0.4709
 4172TIP3    H234008   1.275   6.680  15.662  0.8610  0.0760 -0.2020
 4173TIP3   OH234009   3.218   5.314  11.115  0.5641 -0.5846  0.1002
 4173TIP3    H134010   3.263   5.252  11.172  0.7294 -0.4762  0.0865
 4173TIP3    H234011   3.187   5.261  11.041  0.2171 -0.7555  0.3640
 4174TIP3   OH234012   0.604   2.267  12.631  0.7937 -0.5670 -0.4730
 4174TIP3    H134013   0.638   2.181  12.607 -0.3980 -1.5000  1.1674
 4174TIP3    H234014   0.586   2.309  12.546  0.4317 -2.3045 -1.2857
 4175TIP3   OH234015   1.323   6.527   5.796 -0.3221  0.4264  0.2428
 4175TIP3    H134016   1.287   6.540   5.708 -0.2382 -0.9678  0.0016
 4175TIP3    H234017   1.417   6.538   5.786 -0.1358 -1.4829 -0.1806
 4176TIP3   OH234018   2.277   3.399  16.513  0.1818  0.2268 -0.8290
 4176TIP3    H134019   2.311   3.314  16.485  0.1118  0.1872 -0.7928
 4176TIP3    H234020   2.337   3.427  16.583 -0.1318 -0.0650 -0.4384
 4177TIP3   OH234021   5.372   4.169   4.862  0.0382 -0.0399 -0.4363
 4177TIP3    H134022   5.338   4.153   4.774 -0.1804 -0.5609 -0.2571
 4177TIP3    H234023   5.428   4.246   4.852  0.5759 -0.5192 -1.1728
 4178TIP3   OH234024   2.563   3.694   2.470 -0.3522  0.0459 -1.0213
 4178TIP3    H134025   2.602   3.638   2.537 -0.5170  0.3620 -0.6594
 4178TIP3    H234026   2.495   3.742   2.516 -0.7332 -0.0308 -1.5089
 4179TIP3   OH234027   4.669   4.205  11.293  0.2076 -0.1221  0.2481
 4179TIP3    H134028   4.748   4.172  11.251 -0.6011 -0.6466 -0.8713
 4179TIP3    H234029   4.679   4.181  11.385  2.2816  1.5975  0.5090
 4180TIP3   OH234030   4.111   2.700  12.548  0.9413 -0.4389 -0.2442
 4180TIP3    H134031   4.156   2.616  12.536  1.5868 -0.0490 -0.5485
 4180TIP3    H234032   4.081   2.724  12.460  1.1716 -0.1183 -0.2369
 4181TIP3   OH234033   1.435   4.890  16.805 -0.2828 -0.1125 -0.8456
 4181TIP3    H134034   1.453   4.972  16.759 -0.7681  0.0642 -0.7219
 4181TIP3    H234035   1.439   4.914  16.898  0.7277 -0.4748 -0.7898
 4182TIP3   OH234036   3.653   2.849   1.623 -0.2963 -0.9033 -0.5438
 4182TIP3    H134037   3.647   2.793   1.700  1.2748  1.9933  1.7810
 4182TIP3    H234038   3.641   2.938   1.656  0.5216  0.4360 -3.6124
 4183TIP3   OH234039   6.247   2.478  13.703  0.1262  0.2936 -0.4730
 4183TIP3    H134040   6.177   2.512  13.759 -1.1931 -1.5877 -0.9403
 4183TIP3    H234041   6.250   2.539  13.629 -1.9730 -0.3226 -1.1257
 4184TIP3   OH234042   0.293   5.812  15.765  0.2223  0.6531  0.0335
 4184TIP3    H134043   0.380   5.779  15.744  0.4631  0.3209  1.5132
 4184TIP3    H234044   0.234   5.738  15.747  0.6142 -0.1703  2.0984
 4185TIP3   OH234045   6.078   6.376  11.806  0.2728  0.2747  1.0655
 4185TIP3    H134046   6.129   6.316  11.752 -0.8703  0.1398  0.1299
 4185TIP3    H234047   6.059   6.451  11.749 -1.9782 -0.4155  0.8782
 4186TIP3   OH234048   3.457   2.015   4.879 -0.2011  0.5043 -0.0779
 4186TIP3    H134049   3.504   2.099   4.883  0.0252  0.3631  0.2562
 4186TIP3    H234050   3.486   1.968   4.957 -0.2122  0.0505 -0.3491
 4187TIP3   OH234051   1.407   5.071  11.402 -0.4859 -0.0410  0.0366
 4187TIP3    H134052   1.341   5.019  11.355 -0.1298 -0.0755 -0.4213
 4187TIP3    H234053   1.377   5.161  11.392 -0.8654 -0.1133  0.4609
 4188TIP3   OH234054   4.970   0.523   0.312 -0.2273  0.5412  0.0399
 4188TIP3    H134055   4.928   0.496   0.230  0.2030 -0.6350  0.2018
 4188TIP3    H234056   5.010   0.443   0.346 -0.3419  1.0416  1.3646
 4189TIP3   OH234057   0.679   1.472  16.485 -0.1182 -0.1851 -0.2918
 4189TIP3    H134058   0.666   1.417  16.563 -0.2139  0.4676  0.1610
 4189TIP3    H234059   0.594   1.514  16.471  0.0603  0.1399 -0.4003
 4190TIP3   OH234060   2.659   0.386  16.269 -1.0199 -0.3286  0.3190
 4190TIP3    H134061   2.630   0.389  16.178 -0.1812 -2.8220 -0.0784
 4190TIP3    H234062   2.669   0.477  16.295 -1.4712  0.4061 -2.0238
 4191TIP3   OH234063   5.483   2.816   3.074 -0.8780  0.1643  0.0021
 4191TIP3    H134064   5.455   2.742   3.019 -1.1323 -0.1036  0.4946
 4191TIP3    H234065   5.467   2.893   3.019 -1.3076 -0.0877 -0.2362
 4192TIP3   OH234066   1.464   5.498   0.586 -0.5405  0.5627 -0.0755
 4192TIP3    H134067   1.524   5.556   0.539  0.3018 -1.0464 -1.0016
 4192TIP3    H234068   1.447   5.544   0.669 -0.0501  2.2173 -0.8746
 4193TIP3   OH234069   2.200   4.176   2.055 -0.5247 -0.4216 -0.1448
 4193TIP3    H134070   2.279   4.184   2.108 -1.7706 -0.3578  1.7426
 4193TIP3    H234071   2.141   4.120   2.106 -1.0263 -1.9923 -2.3648
 4194TIP3   OH234072   1.438   6.639   4.095  0.4957  0.0259 -0.0991
 4194TIP3    H134073   1.346   6.655   4.117  0.4050  0.3433 -0.6866
 4194TIP3    H234074   1.436   6.568   4.031  0.7049 -0.3727  0.3319
 4195TIP3   OH234075   5.730   2.084   2.107  0.4404 -0.2700  0.0865
 4195TIP3    H134076   5.657   2.089   2.045  0.7139  0.3823 -0.1829
 4195TIP3    H234077   5.805   2.061   2.052  0.5140 -0.5541  0.3063
 4196TIP3   OH234078   0.754   6.527  13.166  0.6799 -0.3085 -0.1285
 4196TIP3    H134079   0.687   6.513  13.099 -0.9831  0.3791  1.3487
 4196TIP3    H234080   0.733   6.465  13.236  1.2837  0.2696  0.5808
 4197TIP3   OH234081   6.077   1.004   1.537 -0.1340 -0.5938  0.6476
 4197TIP3    H134082   5.997   1.046   1.569 -0.5323 -0.7324 -0.1399
 4197TIP3    H234083   6.045   0.937   1.475  0.6703  0.4479 -0.9104
 4198TIP3   OH234084   2.589   6.008  16.269 -0.1100 -0.1385 -0.2234
 4198TIP3    H134085   2.515   5.963  16.310 -1.4174  0.0412 -2.2867
 4198TIP3    H234086   2.653   5.938  16.252  0.9692 -0.0306  3.0975
 4199TIP3   OH234087   1.199   3.588   5.672  0.3208  0.0590  0.5365
 4199TIP3    H134088   1.192   3.607   5.766 -1.4797  0.3055  0.3609
 4199TIP3    H234089   1.165   3.666   5.629  0.5184 -0.3239 -0.3222
 4200TIP3   OH234090   1.046   2.865  11.495  0.3634  0.0169 -0.0308
 4200TIP3    H134091   1.019   2.952  11.466 -0.7775 -0.0138  0.9363
 4200TIP3    H234092   0.976   2.807  11.467  0.8885 -0.5293 -0.2348
 4201TIP3   OH234093   4.663   1.039   1.449 -0.3698  0.4541  0.6062
 4201TIP3    H134094   4.756   1.043   1.426 -0.4419  0.2898  0.2878
 4201TIP3    H234095   4.622   0.992   1.377 -0.9109  1.6852  0.1027
 4202TIP3   OH234096   5.539   1.403  10.991  0.9266 -0.8483  0.0129
 4202TIP3    H134097   5.481   1.398  10.915  0.6323  3.1973 -0.1519
 4202TIP3    H234098   5.611   1.344  10.971 -0.4759 -1.8790 -2.1807
 4203TIP3   OH234099   0.895   0.832   4.654  0.2607  0.1889  0.5146
 4203TIP3    H134100   0.805   0.861   4.671 -0.5004 -1.0581 -1.2724
 4203TIP3    H234101   0.896   0.741   4.684  0.5882 -0.1634 -0.5612
 4204TIP3   OH234102   4.191   3.334  11.857 -0.5712 -0.5328 -0.1010
 4204TIP3    H134103   4.108   3.315  11.813 -0.4098 -0.8054 -0.2925
 4204TIP3    H234104   4.204   3.428  11.845 -1.1299 -0.3908  0.4128
 4205TIP3   OH234105   6.681   2.236   4.343  0.1277  0.3704 -0.3137
 4205TIP3    H134106   6.652   2.152   4.378  1.8892  0.1587  0.6963
 4205TIP3    H234107   6.700   2.218   4.251 -0.9973  0.0607 -0.5023
 4206TIP3   OH234108   2.138   0.130   5.804 -0.1416 -0.1420  0.4395
 4206TIP3    H134109   2.230   0.154   5.815 -0.1301 -0.2514  0.5916
 4206TIP3    H234110   2.125   0.058   5.866 -0.0246 -0.9163 -0.4137
 4207TIP3   OH234111   2.627   5.976  16.571 -0.3288  0.3250 -0.2303
 4207TIP3    H134112   2.612   5.968  16.665  0.8040  0.8390 -0.0056
 4207TIP3    H234113   2.539   5.985  16.534 -0.8476 -0.8760  0.6701
 4208TIP3   OH234114   4.897   3.943   5.206  0.5683  0.1608 -0.2420
 4208TIP3    H134115   4.940   4.027   5.221 -0.3839  0.4195  1.0858
 4208TIP3    H234116   4.968   3.879   5.207  0.8698  0.4487  3.0280
 4209TIP3   OH234117   5.410   4.280   3.656  0.4349 -0.3568 -0.3047
 4209TIP3    H134118   5.494   4.276   3.701 -0.2780 -2.5968  0.9108
 4209TIP3    H234119   5.345   4.287   3.727 -0.5186 -0.6014 -1.1384
 4210TIP3   OH234120   0.367   3.989  14.602  0.7840  0.1738  0.1637
 4210TIP3    H134121   0.302   4.052  14.570  0.1908 -0.2074  0.5982
 4210TIP3    H234122   0.442   4.043  14.627  0.8054  0.5806 -0.7467
 4211TIP3   OH234123   2.990   2.329   4.193 -0.4025 -0.4166 -0.0981
 4211TIP3    H134124   2.952   2.287   4.116  1.1729 -0.0053 -1.1396
 4211TIP3    H234125   3.017   2.416   4.162  0.4031 -0.3186  0.8537
 4212TIP3   OH234126   3.921   3.599  13.714 -0.7310 -1.6324  0.3939
 4212TIP3    H134127   3.867   3.619  13.638  0.6991  0.9517 -0.0343
 4212TIP3    H234128   3.873   3.636  13.788  0.6188  1.2054 -0.0595
 4213TIP3   OH234129   2.329   3.553  16.985 -0.5051  0.0300 -0.2475
 4213TIP3    H134130   2.250   3.606  16.989 -0.3921  0.2264 -0.6030
 4213TIP3    H234131   2.401   3.615  16.995 -0.2368  0.4297 -3.7470
 4214TIP3   OH234132   0.168   2.097  14.896  0.3665  0.4381 -1.0915
 4214TIP3    H134133   0.186   2.080  14.988  1.6865 -0.9983 -1.5870
 4214TIP3    H234134   0.217   2.176  14.876 -1.6295  1.9864 -0.0555
 4215TIP3   OH234135   3.988   0.265  10.664 -0.0287 -0.3704  0.0581
 4215TIP3    H134136   3.895   0.254  10.644 -0.0670 -2.1260  1.0574
 4215TIP3    H234137   3.993   0.351  10.707 -1.1885 -0.2742  0.0340
 4216TIP3   OH234138   3.437   5.937   2.132 -0.3809  0.2332 -0.0032
 4216TIP3    H134139   3.355   5.978   2.163 -1.0912 -1.6930  0.7138
 4216TIP3    H234140   3.412   5.893   2.051 -0.1068 -0.5501  0.3380
 4217TIP3   OH234141   0.377   1.419   6.131 -0.2936  0.0671  0.0651
 4217TIP3    H134142   0.294   1.465   6.138 -0.7918 -0.6023 -1.2208
 4217TIP3    H234143   0.413   1.420   6.219 -1.8776 -0.0214  0.7267
 4218TIP3   OH234144   3.875   0.168   1.007 -0.0182 -0.3969  0.1733
 4218TIP3    H134145   3.961   0.162   1.049  0.0552  1.2264  0.2742
 4218TIP3    H234146   3.893   0.204   0.920 -0.5171 -0.6835 -0.0497
 4219TIP3   OH234147   6.796   3.224   5.823 -0.2745  1.2403  0.3863
 4219TIP3    H134148   6.793   3.280   5.901 -1.5364  0.0946  1.1875
 4219TIP3    H234149   6.818   3.138   5.857  0.2587  0.9585 -0.6661
 4220TIP3   OH234150   5.727   6.306  11.521  0.0499 -0.0023 -0.5608
 4220TIP3    H134151   5.821   6.286  11.516  0.7829  2.4790  1.8936
 4220TIP3    H234152   5.688   6.227  11.559  1.5382 -0.1544  0.7312
 4221TIP3   OH234153   5.691   3.362   5.111  0.0610  0.0695  0.7288
 4221TIP3    H134154   5.743   3.304   5.166 -0.3190 -0.1851  0.8223
 4221TIP3    H234155   5.743   3.442   5.104  1.2116 -0.7626 -0.4891
 4222TIP3   OH234156   1.796   0.655  15.875 -0.4347 -0.2238  0.0315
 4222TIP3    H134157   1.819   0.664  15.967  0.0471  3.1821 -0.3579
 4222TIP3    H234158   1.728   0.588  15.874  1.7309 -2.5901  2.4496
 4223TIP3   OH234159   4.722   4.584   5.805  0.3855  0.6214 -0.6508
 4223TIP3    H134160   4.798   4.526   5.796 -0.4236 -0.8073  1.2168
 4223TIP3    H234161   4.747   4.664   5.759  2.2827 -0.5124 -1.6682
 4224TIP3   OH234162   5.182   3.804   4.513  0.7592 -0.3511  0.5369
 4224TIP3    H134163   5.251   3.774   4.572  0.1816 -0.5140  1.1297
 4224TIP3    H234164   5.101   3.779   4.556  0.3312 -0.3204 -0.2494
 4225TIP3   OH234165   6.544   6.607   6.210  0.4276  0.1292  0.0119
 4225TIP3    H134166   6.553   6.606   6.115  0.7421 -0.9352  0.0451
 4225TIP3    H234167   6.468   6.552   6.228  0.8413 -0.3160  0.4188
 4226TIP3   OH234168   2.134   3.263  13.373  0.7525 -0.2432 -0.2358
 4226TIP3    H134169   2.072   3.336  13.383  2.5172  0.9515  2.6910
 4226TIP3    H234170   2.212   3.304  13.335  0.5329 -1.3201 -1.8838
 4227TIP3   OH234171   2.560   6.124   5.402 -0.6371 -0.0744  0.1903
 4227TIP3    H134172   2.602   6.053   5.354  0.3383  0.9147 -0.4373
 4227TIP3    H234173   2.626   6.154   5.464 -0.0590  2.1014 -1.4288
 4228TIP3   OH234174   2.627   6.417   3.436  0.6471  0.3543 -0.3089
 4228TIP3    H134175   2.721   6.407   3.453  0.5053 -1.3462 -0.4155
 4228TIP3    H234176   2.590   6.331   3.457 -1.2155  1.5991  1.7712
 4229TIP3   OH234177   3.705   0.133  13.543 -0.0243 -0.7433 -0.3700
 4229TIP3    H134178   3.685   0.091  13.459  0.0682  0.4328 -1.0025
 4229TIP3    H234179   3.727   0.061  13.602  3.8651 -1.3958 -2.4135
 4230TIP3   OH234180   0.817   4.638  15.498  0.7671 -0.4253 -0.2905
 4230TIP3    H134181   0.779   4.679  15.576 -0.9736 -1.9105 -0.3375
 4230TIP3    H234182   0.823   4.710  15.434 -1.8615 -0.1281 -0.2300
 4231TIP3   OH234183   2.093   2.359  16.164  0.1012  0.2424 -0.3820
 4231TIP3    H134184   2.028   2.421  16.132 -0.2262  0.2477  0.2839
 4231TIP3    H234185   2.045   2.276  16.171  0.5010 -0.0638 -1.1441
 4232TIP3   OH234186   5.882   6.018   3.942  0.5150 -0.0816 -0.5336
 4232TIP3    H134187   5.926   5.970   3.871  0.9107 -1.3371  0.5465
 4232TIP3    H234188   5.902   5.968   4.021 -1.3444  0.3553  0.2346
 4233TIP3   OH234189   5.158   6.552  12.125 -0.0569 -0.4798 -0.2054
 4233TIP3    H134190   5.190   6.576  12.038 -1.4824 -0.3515 -0.7185
 4233TIP3    H234191   5.209   6.474  12.148  2.5066  1.2483  0.1996
 4234TIP3   OH234192   5.066   5.094   4.306  0.5805 -0.2513  0.2405
 4234TIP3    H134193   5.142   5.152   4.304  0.8730 -0.5657  1.6148
 4234TIP3    H234194   5.003   5.134   4.246  0.4047  2.0056  1.8583
 4235TIP3   OH234195   1.862   6.413  11.483 -0.2946 -0.5030 -0.2478
 4235TIP3    H134196   1.884   6.437  11.573  0.3680 -0.4378 -0.4239
 4235TIP3    H234197   1.907   6.329  11.470 -0.7751 -0.7413 -0.3641
 4236TIP3   OH234198   3.568   0.039   3.344  0.7170 -0.6509 -0.0295
 4236TIP3    H134199   3.602  -0.051   3.347 -0.9726 -1.3442 -1.2544
 4236TIP3    H234200   3.558   0.063   3.436 -0.5145 -2.3883  0.3241
 4237TIP3   OH234201   0.443   3.743  16.028  0.1145 -0.4405  0.3474
 4237TIP3    H134202   0.449   3.658  16.072  0.6214 -1.4562 -1.6226
 4237TIP3    H234203   0.351   3.767  16.034 -0.2531 -1.7288 -0.2005
 4238TIP3   OH234204   1.366   2.375   2.935 -0.5209 -0.3926 -0.2812
 4238TIP3    H134205   1.429   2.304   2.952  0.9278  0.8679 -0.2866
 4238TIP3    H234206   1.301   2.336   2.876  0.8022 -1.4430 -1.0801
 4239TIP3   OH234207   4.441   4.770  15.042  0.5214  0.1089  0.2609
 4239TIP3    H134208   4.419   4.840  15.103 -0.1578  0.8547 -0.8237
 4239TIP3    H234209   4.390   4.695  15.072 -1.1256  0.9474 -0.3893
 4240TIP3   OH234210   2.083   6.477   4.850  0.2613 -0.1816  0.6715
 4240TIP3    H134211   1.993   6.511   4.846  0.3391 -0.0245  0.2049
 4240TIP3    H234212   2.105   6.458   4.759  1.1682  0.9926  0.6449
 4241TIP3   OH234213   2.108   4.469   2.827  0.1899  0.2079  0.4219
 4241TIP3    H134214   2.033   4.528   2.831  0.3193  0.4341 -0.3921
 4241TIP3    H234215   2.089   4.412   2.752  0.3351 -0.4062  0.8560
 4242TIP3   OH234216   2.882   5.323  11.149 -0.4971 -0.4344 -0.3439
 4242TIP3    H134217   2.819   5.294  11.083  1.2748 -0.9412 -1.8680
 4242TIP3    H234218   2.901   5.244  11.199  0.1499 -0.6803 -0.9556
 4243TIP3   OH234219   0.630   4.104   6.995 -0.3166  0.1070  0.0517
 4243TIP3    H134220   0.580   4.185   6.999 -1.6362 -0.7362  1.2236
 4243TIP3    H234221   0.627   4.078   6.903  0.6696  1.7128 -0.4453
 4244TIP3   OH234222   6.390   1.971  14.263  0.0325  0.4784 -0.0262
 4244TIP3    H134223   6.394   1.927  14.348  2.0660  1.0692  0.1948
 4244TIP3    H234224   6.313   2.028  14.270  0.6068  1.0836  1.7190
 4245TIP3   OH234225   3.075   1.606   4.621  0.6015 -0.2139 -0.1763
 4245TIP3    H134226   3.020   1.536   4.583  0.0843  0.8020 -1.3351
 4245TIP3    H234227   3.146   1.618   4.558  0.6675  0.3349  0.0005
 4246TIP3   OH234228   2.367   5.731  14.549  0.6215  0.9180  0.1520
 4246TIP3    H134229   2.290   5.729  14.493  1.0425 -0.4061 -0.3879
 4246TIP3    H234230   2.441   5.734  14.488  1.1531 -2.0621  0.5611
 4247TIP3   OH234231   0.531   2.989   0.911 -0.5604  0.8122 -0.3457
 4247TIP3    H134232   0.535   3.084   0.923  1.5792  0.8815 -1.3753
 4247TIP3    H234233   0.598   2.954   0.970 -1.1728 -0.0528 -0.1480
 4248TIP3   OH234234   5.950   1.274   2.095  0.2583  0.1960  0.3008
 4248TIP3    H134235   5.992   1.248   2.177 -0.1634 -0.6488  0.2535
 4248TIP3    H234236   6.018   1.323   2.048  0.6750  0.2088  0.9134
 4249TIP3   OH234237   0.241   6.524  12.696  0.3611  0.5912 -0.1017
 4249TIP3    H134238   0.149   6.549  12.692  0.4755  1.0911  0.3040
 4249TIP3    H234239   0.278   6.555  12.614  0.3115  0.9676  0.0204
 4250TIP3   OH234240   3.942   5.224   0.001  0.0298  0.1878  0.4007
 4250TIP3    H134241   4.033   5.211  -0.025 -0.2223 -0.7267 -0.0561
 4250TIP3    H234242   3.891   5.194  -0.075 -0.6399  0.9173  0.5640
 4251TIP3   OH234243   5.003   1.870  13.820  0.2211  0.2245  0.1644
 4251TIP3    H134244   5.094   1.842  13.810  0.1689  0.5011 -1.0829
 4251TIP3    H234245   4.999   1.956  13.778 -0.3796  0.6785  1.1263
 4252TIP3   OH234246   1.294   0.071  16.054 -0.7423 -0.1255 -0.0112
 4252TIP3    H134247   1.272  -0.008  16.004 -1.1963 -0.2729  0.4185
 4252TIP3    H234248   1.280   0.047  16.145 -1.2365  0.5583  0.1035
 4253TIP3   OH234249   4.179   0.595  13.047  0.1842 -0.0530  0.1044
 4253TIP3    H134250   4.256   0.608  12.990 -1.4116 -0.2699 -2.1766
 4253TIP3    H234251   4.193   0.657  13.119  1.6629  1.1626 -1.1655
 4254TIP3   OH234252   5.794   0.161   4.405  0.5145 -0.6825  0.3090
 4254TIP3    H134253   5.760   0.176   4.317  0.1900  0.8914  0.7046
 4254TIP3    H234254   5.746   0.084   4.437 -0.6296 -0.1938 -0.2198
 4255TIP3   OH234255   3.083   4.729  13.252  0.3466  0.2746  0.7104
 4255TIP3    H134256   3.012   4.666  13.244 -0.8185  1.4653  1.5821
 4255TIP3    H234257   3.150   4.696  13.192 -1.3208 -0.3202 -0.8800
 4256TIP3   OH234258   5.329   0.575  12.334 -0.2825 -0.0175 -0.0449
 4256TIP3    H134259   5.404   0.534  12.377 -0.8738  1.0214  2.0714
 4256TIP3    H234260   5.299   0.510  12.271  1.4104 -1.0880  0.2133
 4257TIP3   OH234261   4.977   2.099  11.965 -0.2650  0.0729  0.6394
 4257TIP3    H134262   5.043   2.079  12.031 -0.2179 -0.5446  0.4069
 4257TIP3    H234263   4.959   2.015  11.922  0.7159  0.7133 -1.0702
 4258TIP3   OH234264   4.313   2.635   2.103 -0.6035  0.2965 -0.2777
 4258TIP3    H134265   4.350   2.564   2.156 -1.1582  0.5623  0.4668
 4258TIP3    H234266   4.376   2.645   2.031  0.2048 -0.0126  0.3676
 4259TIP3   OH234267   1.851   3.823  16.937 -0.1774 -0.1171  0.4688
 4259TIP3    H134268   1.758   3.834  16.921  0.0963 -1.0958 -2.1471
 4259TIP3    H234269   1.893   3.888  16.879  0.7913 -0.9518  0.2131
 4260TIP3   OH234270   2.427   4.232   0.636  0.4314 -0.4828 -0.1212
 4260TIP3    H134271   2.514   4.209   0.669 -0.0322 -0.4277  1.1884
 4260TIP3    H234272   2.433   4.222   0.541  2.4507  1.5542 -0.2206
 4261TIP3   OH234273   2.018   6.820   6.277 -0.7359  0.6644 -0.2358
 4261TIP3    H134274   1.964   6.836   6.355 -0.9387 -0.9685 -0.0138
 4261TIP3    H234275   2.108   6.836   6.306 -0.7692 -0.3600  0.4705
 4262TIP3   OH234276   2.673   3.414  14.927  0.4512  0.3976  0.1850
 4262TIP3    H134277   2.717   3.482  14.979 -1.6756  1.5545  0.5294
 4262TIP3    H234278   2.712   3.421  14.840  1.9584  0.4248  0.8506
 4263TIP3   OH234279   4.116   1.600   3.489 -0.2900  0.4898  0.2140
 4263TIP3    H134280   4.193   1.644   3.453  1.0062 -1.1761  0.8996
 4263TIP3    H234281   4.082   1.660   3.555  0.2721  1.3376 -0.2663
 4264TIP3   OH234282   0.643   2.003   4.112 -0.0509 -0.0113  0.2651
 4264TIP3    H134283   0.691   2.073   4.068  0.0395 -0.7631 -0.8391
 4264TIP3    H234284   0.554   2.038   4.121 -0.0805  0.1330 -0.5565
 4265TIP3   OH234285   0.774   3.670  16.988 -0.5867 -0.3478  0.3854
 4265TIP3    H134286   0.679   3.675  16.981 -0.4747  2.4106  0.4851
 4265TIP3    H234287   0.806   3.687  16.900 -0.1799 -2.0513  0.1829
 4266TIP3   OH234288   0.536   2.949   1.796  0.0243 -0.0781  0.1051
 4266TIP3    H134289   0.513   3.041   1.808  0.9456  0.2087 -0.2392
 4266TIP3    H234290   0.562   2.942   1.704 -3.3486 -1.4403 -0.8213
 4267TIP3   OH234291   3.445   3.290  12.641 -0.5095 -0.3927 -0.3617
 4267TIP3    H134292   3.448   3.371  12.693  1.2125 -1.2853  0.9828
 4267TIP3    H234293   3.478   3.222  12.700  0.2007 -1.6785 -2.1921
 4268TIP3   OH234294   5.067   4.883   0.016 -0.2714  0.2751  0.3598
 4268TIP3    H134295   5.090   4.791   0.004 -0.4561  0.4433 -1.2840
 4268TIP3    H234296   4.986   4.881   0.067 -1.2861 -0.5311 -1.2576
 4269TIP3   OH234297   6.808   1.847   2.257  0.1009  0.6098  0.1925
 4269TIP3    H134298   6.819   1.857   2.163  0.8154  1.2941  0.3497
 4269TIP3    H234299   6.713   1.848   2.270 -0.0722 -1.4843 -0.7245
 4270TIP3   OH234300   2.089   6.257  17.051 -0.0822  0.3556 -0.2459
 4270TIP3    H134301   2.101   6.198  17.125 -1.3591 -0.8486 -0.9859
 4270TIP3    H234302   2.014   6.311  17.075  1.6551  2.3400  0.8326
 4271TIP3   OH234303   0.235   2.351  11.112  0.2935  0.1814  0.1214
 4271TIP3    H134304   0.289   2.340  11.189  0.7082 -1.8589 -0.4564
 4271TIP3    H234305   0.205   2.263  11.089 -2.0944  1.0807 -0.4139
 4272TIP3   OH234306   6.285   5.810  16.965  0.6689  0.1865  0.2217
 4272TIP3    H134307   6.290   5.738  17.029 -0.2615 -0.0062  0.0863
 4272TIP3    H234308   6.244   5.882  17.014  1.8711  0.7402  0.4471
 4273TIP3   OH234309   1.413   2.012   3.230  0.1131 -0.0051  0.1685
 4273TIP3    H134310   1.376   1.936   3.274 -1.0507  0.3260 -0.2223
 4273TIP3    H234311   1.456   2.062   3.300  0.3312 -0.6926  0.5251
 4274TIP3   OH234312   2.333   0.681   3.259 -0.0886  0.9866  0.5558
 4274TIP3    H134313   2.258   0.707   3.205  0.2155  0.3693 -0.1741
 4274TIP3    H234314   2.329   0.586   3.261  1.0555  0.9146 -0.0593
 4275TIP3   OH234315   1.870   0.027  11.903 -0.0112  0.2108 -0.3632
 4275TIP3    H134316   1.943   0.014  11.964 -1.5036  2.2547  1.9882
 4275TIP3    H234317   1.807  -0.041  11.926  0.1569 -0.0979 -0.8097
 4276TIP3   OH234318   0.531   6.695   3.693  0.7433  0.5871 -0.3935
 4276TIP3    H134319   0.608   6.638   3.695 -0.0708 -0.5182  0.0099
 4276TIP3    H234320   0.477   6.665   3.766  0.3625  1.9795 -0.0846
 4277TIP3   OH234321   4.161   4.494   2.926 -0.8188 -0.0247  0.4196
 4277TIP3    H134322   4.256   4.493   2.930 -0.8257  0.1105  0.6090
 4277TIP3    H234323   4.141   4.503   2.833 -0.6376  1.1876  0.4929
 4278TIP3   OH234324   0.898   3.098   4.660  0.1285  0.1078 -0.3320
 4278TIP3    H134325   0.871   3.011   4.631 -0.5218  0.7441 -1.6876
 4278TIP3    H234326   0.965   3.124   4.597  1.0768  0.1588  0.6967
 4279TIP3   OH234327   6.791   0.600   0.801 -0.1323 -0.8063 -0.4708
 4279TIP3    H134328   6.809   0.531   0.865 -1.2821 -2.0248 -1.3999
 4279TIP3    H234329   6.768   0.552   0.721  0.2405  0.6776 -1.4905
 4280TIP3   OH234330   0.233   1.328  15.088  0.6612 -0.3457 -0.2809
 4280TIP3    H134331   0.310   1.272  15.083  1.3846  0.6351 -0.1797
 4280TIP3    H234332   0.172   1.279  15.143  1.3669 -0.9372 -0.0116
 4281TIP3   OH234333   5.590   4.790   2.453  0.1739 -0.4509  0.0024
 4281TIP3    H134334   5.617   4.699   2.463 -0.8817 -0.7669 -0.0057
 4281TIP3    H234335   5.668   4.834   2.419  1.5170 -0.8258  2.4766
 4282TIP3   OH234336   0.520   1.409   5.446  0.5347  0.1345  0.1381
 4282TIP3    H134337   0.572   1.456   5.511  0.4778  1.6086 -0.8575
 4282TIP3    H234338   0.468   1.477   5.404  0.9041 -0.7421 -1.7585
 4283TIP3   OH234339   3.641   0.193  11.860  0.2761 -0.3050  0.6005
 4283TIP3    H134340   3.621   0.206  11.953 -0.7220 -1.1468  0.5182
 4283TIP3    H234341   3.598   0.265  11.815  2.8633  1.5737  0.9831
 4284TIP3   OH234342   4.528   1.500   4.346  0.2812 -0.4597  0.0567
 4284TIP3    H134343   4.616   1.496   4.382  0.6851 -0.8624 -0.9817
 4284TIP3    H234344   4.473   1.521   4.422  1.2977  0.1079  0.6494
 4285TIP3   OH234345   5.658   4.926   0.913 -0.1593  0.2865 -0.0014
 4285TIP3    H134346   5.674   5.020   0.917 -2.8784  0.9156 -2.2941
 4285TIP3    H234347   5.605   4.908   0.991  0.6799  0.5925  0.6386
 4286TIP3   OH234348   2.139   1.318  13.244 -0.8845 -0.4064 -0.2142
 4286TIP3    H134349   2.224   1.347  13.212 -0.6743  0.5370  1.2065
 4286TIP3    H234350   2.090   1.398  13.261 -0.9601 -0.8750  1.9228
 4287TIP3   OH234351   6.132   6.279  15.555 -0.4166 -0.2383 -0.2529
 4287TIP3    H134352   6.195   6.295  15.626 -1.6503  0.2228  0.7582
 4287TIP3    H234353   6.132   6.359  15.504 -0.7694  0.0541  0.2075
 4288TIP3   OH234354   4.744   2.124   3.508  0.1692  0.5271  0.4285
 4288TIP3    H134355   4.835   2.122   3.480 -0.3547 -0.5502 -1.2799
 4288TIP3    H234356   4.705   2.196   3.457  0.2060  1.4427  1.6663
 4289TIP3   OH234357   4.551   0.324   5.245  0.3570  0.3355 -0.3503
 4289TIP3    H134358   4.468   0.354   5.282 -0.1806  0.8935 -1.9736
 4289TIP3    H234359   4.614   0.337   5.316 -0.3364  2.9067 -0.1398
 4290TIP3   OH234360   1.981   6.171  11.570 -0.2470 -0.3819  0.0798
 4290TIP3    H134361   2.076   6.174  11.554 -0.4714 -0.3857 -1.3230
 4290TIP3    H234362   1.973   6.131  11.656  1.0152 -1.0061 -0.0728
 4291TIP3   OH234363   5.634   4.033   4.115  0.0110 -0.4327 -0.6348
 4291TIP3    H134364   5.629   4.015   4.209  0.3538 -0.5989 -0.6497
 4291TIP3    H234365   5.717   4.079   4.104 -0.4903  0.4701 -0.7132
 4292TIP3   OH234366   4.551   0.285  12.172  0.3525 -0.2810  0.4288
 4292TIP3    H134367   4.548   0.320  12.261 -3.0286  1.2113 -0.1979
 4292TIP3    H234368   4.568   0.191  12.183  0.3075 -0.0478  2.6141
 4293TIP3   OH234369   0.073   0.480  11.655  0.1602 -0.6785  0.3623
 4293TIP3    H134370   0.049   0.393  11.687 -0.2697 -0.5854  0.2978
 4293TIP3    H234371   0.092   0.467  11.562 -0.2287 -0.6424  0.2779
 4294TIP3   OH234372   3.513   0.186  11.441 -0.1193 -0.0248 -1.1581
 4294TIP3    H134373   3.585   0.125  11.452  0.3723  1.0161  2.0052
 4294TIP3    H234374   3.454   0.168  11.515 -0.2823  2.8230 -0.4961
 4295TIP3   OH234375   5.786   1.287  12.654 -0.5049  0.3098  0.3498
 4295TIP3    H134376   5.690   1.280  12.655 -0.4718 -0.4636 -0.8898
 4295TIP3    H234377   5.806   1.332  12.572  0.3698 -2.7007 -1.1540
 4296TIP3   OH234378   2.455   5.665   4.236  0.4802 -0.3458  0.2343
 4296TIP3    H134379   2.503   5.689   4.316  0.0307 -0.5990  0.5822
 4296TIP3    H234380   2.466   5.740   4.178 -1.5815  1.0693  1.5972
 4297TIP3   OH234381   0.927   1.592   0.309 -0.4942 -0.0476 -0.1871
 4297TIP3    H134382   0.935   1.684   0.285 -0.1940  0.6084  2.3658
 4297TIP3    H234383   0.847   1.588   0.361  0.0150 -1.0622  0.5304
 4298TIP3   OH234384   0.844   1.473   3.693  0.4632 -0.5425 -0.0995
 4298TIP3    H134385   0.799   1.399   3.732  1.5763 -1.1933 -0.0194
 4298TIP3    H234386   0.787   1.548   3.709  0.5315 -0.9302  2.0931
 4299TIP3   OH234387   5.523   4.689  10.496 -0.6001  0.0383 -0.4604
 4299TIP3    H134388   5.471   4.639  10.432 -2.1350  0.5687  0.3325
 4299TIP3    H234389   5.602   4.714  10.448 -1.7589  0.5075 -2.2034
 4300TIP3   OH234390   6.052   1.336  11.525  0.1062 -0.2092 -0.7516
 4300TIP3    H134391   6.059   1.302  11.436 -0.1808 -0.3597 -0.7154
 4300TIP3    H234392   5.959   1.352  11.538  0.1467 -0.1999 -0.4725
 4301TIP3   OH234393   0.818   1.046  11.244  0.2541  0.4188  0.2358
 4301TIP3    H134394   0.775   0.962  11.264 -1.0511  0.6791 -1.3244
 4301TIP3    H234395   0.886   1.054  11.310 -1.7746 -0.2630  2.5047
 4302TIP3   OH234396   0.818   4.470  13.633 -0.0910  0.2747 -0.4409
 4302TIP3    H134397   0.848   4.397  13.579  0.3180  1.2008 -1.4848
 4302TIP3    H234398   0.842   4.445  13.722  1.2775 -0.2714 -0.9375
 4303TIP3   OH234399   6.659   6.282  16.412 -0.2648 -0.2800  0.6227
 4303TIP3    H134400   6.592   6.218  16.389 -0.0912 -1.3159  2.8597
 4303TIP3    H234401   6.636   6.310  16.500  1.7785 -0.0672  1.1149
 4304TIP3   OH234402   4.713   5.699  13.324 -0.5324 -0.3485 -0.7205
 4304TIP3    H134403   4.799   5.662  13.304 -1.2126 -1.3616 -1.8119
 4304TIP3    H234404   4.675   5.637  13.386  0.0701  0.8404  0.8852
 4305TIP3   OH234405   0.397   0.904   0.438 -0.7648 -0.8783 -0.1855
 4305TIP3    H134406   0.352   0.919   0.521 -0.6853 -4.4334  0.5950
 4305TIP3    H234407   0.361   0.821   0.405  3.9232 -3.0726 -0.2964
 4306TIP3   OH234408   1.205   5.504  12.117 -0.5527 -0.3590  0.0006
 4306TIP3    H134409   1.221   5.505  12.023 -0.6746 -1.6666 -0.0507
 4306TIP3    H234410   1.283   5.543  12.156 -1.0783  1.4406 -0.7037
 4307TIP3   OH234411   4.736   1.748  12.387  0.2336  0.2487  0.3938
 4307TIP3    H134412   4.824   1.722  12.358 -1.0195 -3.5642 -0.3202
 4307TIP3    H234413   4.698   1.792  12.311  0.2327 -1.4636 -0.6228
 4308TIP3   OH234414   4.414   1.277  12.310  0.0473  0.0460 -0.0009
 4308TIP3    H134415   4.422   1.371  12.301 -0.5397  0.2178  1.0795
 4308TIP3    H234416   4.461   1.240  12.235 -1.6862  1.2326 -1.7061
 4309TIP3   OH234417   5.700   5.506   1.573  0.4379 -0.1779 -0.6738
 4309TIP3    H134418   5.778   5.486   1.624  0.1011  0.6386  0.1752
 4309TIP3    H234419   5.734   5.532   1.487  1.2138  1.8202  0.2037
 4310TIP3   OH234420   1.457   6.553   1.931 -0.2961  0.1500 -0.0284
 4310TIP3    H134421   1.474   6.608   2.008  1.2502  0.2726 -0.4256
 4310TIP3    H234422   1.541   6.511   1.914 -1.3482 -1.9978 -0.0227
 4311TIP3   OH234423   1.757   5.554   5.474  0.0583 -0.5672  0.3728
 4311TIP3    H134424   1.735   5.647   5.469  1.2488 -0.1873  1.6764
 4311TIP3    H234425   1.672   5.509   5.473 -0.5086  0.5025 -0.5848
 4312TIP3   OH234426   0.739   5.560   4.474  0.3976  0.3408  0.0248
 4312TIP3    H134427   0.815   5.602   4.513  0.3456  1.0413 -0.6249
 4312TIP3    H234428   0.758   5.466   4.480  0.5145  0.4418  1.4602
 4313TIP3   OH234429   3.530   1.889   5.120  0.3088 -0.0161  0.1978
 4313TIP3    H134430   3.446   1.904   5.162  0.3770  1.3080 -0.1215
 4313TIP3    H234431   3.594   1.932   5.176  0.7368 -0.7175  0.2573
 4314TIP3   OH234432   6.712   2.997  14.025  0.0279 -0.8259  0.0423
 4314TIP3    H134433   6.798   3.012  13.986 -1.1495  1.4303 -1.8216
 4314TIP3    H234434   6.671   2.933  13.968 -0.3243 -0.3018 -0.2899
 4315TIP3   OH234435   1.355   2.494  13.163  0.1331  0.0148 -0.0204
 4315TIP3    H134436   1.386   2.559  13.099  0.0251  0.3240  0.2385
 4315TIP3    H234437   1.407   2.510  13.241 -0.3854  0.2590  0.2776
 4316TIP3   OH234438   5.056   3.915   3.258 -0.1440  0.4642 -0.3527
 4316TIP3    H134439   5.047   3.952   3.345  0.0354  1.5497 -0.7832
 4316TIP3    H234440   5.101   3.831   3.271 -1.5530 -0.1334  0.7489
 4317TIP3   OH234441   6.441   4.012   4.512 -0.5258  0.6301  0.2009
 4317TIP3    H134442   6.498   3.995   4.437 -2.9722  1.2478 -1.8771
 4317TIP3    H234443   6.488   4.077   4.564  1.1348  0.3193 -0.8672
 4318TIP3   OH234444   1.539   2.109   3.979  0.4295  0.1387 -0.0316
 4318TIP3    H134445   1.574   2.040   4.036  1.5358 -0.4840 -1.4386
 4318TIP3    H234446   1.447   2.118   4.005  0.5682 -1.1056  0.8992
 4319TIP3   OH234447   6.802   4.434   1.730  0.3046  0.2303  0.4454
 4319TIP3    H134448   6.790   4.482   1.812  0.2511  0.0563  0.5400
 4319TIP3    H234449   6.713   4.414   1.701  0.3221 -4.1255  2.9426
 4320TIP3   OH234450   3.490   5.342   0.581 -0.3311  0.3443 -0.5886
 4320TIP3    H134451   3.555   5.288   0.626 -1.2071 -0.0367  0.2310
 4320TIP3    H234452   3.541   5.393   0.518  0.5344 -1.2365 -1.1888
 4321TIP3   OH234453   1.826   4.971  14.102 -0.0633  0.0310  0.3202
 4321TIP3    H134454   1.862   4.902  14.157  1.4124  0.0295 -0.6213
 4321TIP3    H234455   1.830   5.050  14.155 -0.2475 -0.2997  0.8245
 4322TIP3   OH234456   4.322   1.550  13.584  0.2950  0.9146  0.2497
 4322TIP3    H134457   4.256   1.514  13.643  0.6892 -1.0741 -0.4730
 4322TIP3    H234458   4.405   1.538  13.630  0.7580 -1.9191 -1.2333
 4323TIP3   OH234459   1.584   4.295  10.733  1.0968 -0.0919 -0.4940
 4323TIP3    H134460   1.554   4.257  10.651 -0.7697 -0.5549  0.3686
 4323TIP3    H234461   1.628   4.222  10.778  0.6648 -0.2866 -0.3822
 4324TIP3   OH234462   1.067   4.698  15.915  0.0505 -0.0476  0.0395
 4324TIP3    H134463   1.051   4.790  15.939 -2.8182  0.0758 -2.0368
 4324TIP3    H234464   1.143   4.701  15.857 -0.3808  1.1141 -0.4842
 4325TIP3   OH234465   1.204   3.117  17.242 -0.3869  0.2949 -0.1599
 4325TIP3    H134466   1.275   3.062  17.273 -0.1934  0.7944  0.2779
 4325TIP3    H234467   1.195   3.094  17.149 -0.6684 -0.8593  0.1481
 4326TIP3   OH234468   2.519   3.162  14.043 -0.6697  0.5623  0.6769
 4326TIP3    H134469   2.511   3.256  14.062 -1.1602  0.2642  2.0305
 4326TIP3    H234470   2.597   3.135  14.092  0.5063  0.5924 -1.1137
 4327TIP3   OH234471   1.739   2.925  15.030 -1.0769  0.4101 -0.0369
 4327TIP3    H134472   1.821   2.938  15.078 -1.7712 -1.4611  1.7229
 4327TIP3    H234473   1.754   2.968  14.946  1.1102  1.5263  0.8730
 4328TIP3   OH234474   2.879   3.319  12.310  0.9186 -0.2928  0.2116
 4328TIP3    H134475   2.862   3.370  12.231  0.9857 -0.8395 -0.1570
 4328TIP3    H234476   2.792   3.292  12.340  0.9125 -0.2917  0.1949
 4329TIP3   OH234477   2.678   5.897   3.429  0.1962 -0.1369 -0.1602
 4329TIP3    H134478   2.586   5.916   3.412 -0.0700 -0.8876  0.4468
 4329TIP3    H234479   2.710   5.859   3.347  0.6118  2.4520 -1.2178
 4330TIP3   OH234480   4.950   6.603   4.319 -0.1234 -0.1176 -0.1184
 4330TIP3    H134481   4.998   6.553   4.252 -0.1275  0.8103 -0.8305
 4330TIP3    H234482   4.987   6.691   4.313  0.6271 -0.2843  1.8492
 4331TIP3   OH234483   0.485   0.759  15.531  0.0102 -0.1161  0.0273
 4331TIP3    H134484   0.581   0.764  15.532  0.0372 -0.5522 -0.5822
 4331TIP3    H234485   0.458   0.826  15.594  0.6687  1.1511 -1.0038
 4332TIP3   OH234486   5.919   5.840   0.536  0.3334 -0.0200 -0.3303
 4332TIP3    H134487   5.971   5.787   0.476 -0.4001 -0.3742 -0.6576
 4332TIP3    H234488   5.829   5.833   0.503  0.3495  2.0902 -0.8740
 4333TIP3   OH234489   3.507   4.993  14.310  0.3539 -0.0929  0.0422
 4333TIP3    H134490   3.475   4.937  14.380  0.1364  0.0228  0.0347
 4333TIP3    H234491   3.436   4.993  14.246 -0.3704  1.6255  0.8394
 4334TIP3   OH234492   4.315   4.002   3.487  0.2456  0.6046 -0.3698
 4334TIP3    H134493   4.388   4.062   3.470 -0.1692  0.8265 -1.3605
 4334TIP3    H234494   4.274   3.989   3.402  0.5860 -1.4451 -0.2538
 4335TIP3   OH234495   1.767   1.226  13.660  0.1514 -0.0242 -0.7013
 4335TIP3    H134496   1.722   1.152  13.700 -0.7327 -0.1553 -1.8798
 4335TIP3    H234497   1.860   1.208  13.673 -0.0760 -0.9520 -0.3079
 4336TIP3   OH234498   0.749   3.311  16.350 -0.1446 -0.0272  0.3387
 4336TIP3    H134499   0.783   3.360  16.276 -1.8412 -1.5730 -1.5310
 4336TIP3    H234500   0.744   3.220  16.319 -0.4373 -0.7771  2.4908
 4337TIP3   OH234501   2.168   6.613   0.980 -0.3539  0.1280 -0.1097
 4337TIP3    H134502   2.094   6.559   0.954 -0.9346  0.1556  1.4089
 4337TIP3    H234503   2.178   6.596   1.074  1.3889  0.3358 -0.2378
 4338TIP3   OH234504   6.817   3.024   0.459  0.0372  0.0790  0.6455
 4338TIP3    H134505   6.791   2.935   0.480 -1.3783  0.2237 -0.4060
 4338TIP3    H234506   6.857   3.018   0.372 -0.7524  0.5607  0.2347
 4339TIP3   OH234507   2.006   4.368  15.952 -0.0994 -0.2992 -0.4360
 4339TIP3    H134508   1.978   4.427  15.882  0.0460 -0.7993 -0.9148
 4339TIP3    H234509   1.938   4.376  16.019 -1.9310 -2.2590 -1.9969
 4340TIP3   OH234510   5.200   1.834  16.025  0.0959  0.3195  0.4239
 4340TIP3    H134511   5.115   1.877  16.033 -0.0010  0.3399 -0.6651
 4340TIP3    H234512   5.220   1.804  16.113 -0.6308  1.0971  0.8595
 4341TIP3   OH234513   2.290   5.977  17.101 -0.3671  0.3161 -0.3637
 4341TIP3    H134514   2.263   5.904  17.157 -3.7931 -0.0276 -2.2797
 4341TIP3    H234515   2.215   6.037  17.102  0.2527  1.2055 -2.9940
 4342TIP3   OH234516   5.802   1.083   1.605 -0.1099 -0.2239 -0.3747
 4342TIP3    H134517   5.745   1.023   1.652  0.8067 -1.1046 -0.3766
 4342TIP3    H234518   5.759   1.096   1.520 -1.0878  0.3345  0.1997
 4343TIP3   OH234519   5.721   3.571   5.350 -0.2520  0.5457 -0.3185
 4343TIP3    H134520   5.753   3.497   5.403  0.3199  0.6373 -0.5292
 4343TIP3    H234521   5.776   3.569   5.272 -1.6112 -0.0747 -1.2798
 4344TIP3   OH234522   6.300   0.141   3.184 -0.6637 -0.8570  0.5155
 4344TIP3    H134523   6.272   0.207   3.121 -1.8455 -1.2600  0.6142
 4344TIP3    H234524   6.305   0.188   3.267 -0.9807 -0.7659  0.4838
 4345TIP3   OH234525   0.174   0.438  16.460  0.8509  0.1013 -0.1343
 4345TIP3    H134526   0.254   0.470  16.419  0.5118 -0.1141 -0.9885
 4345TIP3    H234527   0.180   0.343  16.453 -0.4770  0.1373 -2.1949
 4346TIP3   OH234528   2.047   5.223   5.185  0.1714  0.5678  0.3465
 4346TIP3    H134529   1.995   5.283   5.238  0.9214 -0.2894  2.0780
 4346TIP3    H234530   1.988   5.150   5.165 -0.9267  2.0951 -2.2575
 4347TIP3   OH234531   1.737   4.723  15.057 -0.4264  0.7485  0.1254
 4347TIP3    H134532   1.790   4.731  14.977 -1.9114  0.5189 -0.8996
 4347TIP3    H234533   1.786   4.772  15.123  0.1766  2.0203 -1.2445
 4348TIP3   OH234534   2.467   2.091  16.965  0.5036 -0.6846 -0.4024
 4348TIP3    H134535   2.502   2.176  16.993 -2.4262  0.1316  0.9713
 4348TIP3    H234536   2.523   2.027  17.008  1.7425  0.5397 -0.1335
 4349TIP3   OH234537   3.926   3.864  12.853 -0.3271  0.5437 -0.4076
 4349TIP3    H134538   3.982   3.820  12.916 -0.7789  0.9041  0.2548
 4349TIP3    H234539   3.900   3.795  12.792  2.2611  0.7347 -1.7740
 4350TIP3   OH234540   1.802   3.002   0.823  0.2152  0.0985  0.0666
 4350TIP3    H134541   1.856   3.078   0.846  0.7319 -0.1480 -0.3277
 4350TIP3    H234542   1.851   2.927   0.857  0.3393 -0.1612 -0.6804
 4351TIP3   OH234543   5.285   0.236   1.053  0.4987 -0.3859  0.4931
 4351TIP3    H134544   5.352   0.172   1.029  1.1910 -0.1011  1.6411
 4351TIP3    H234545   5.311   0.316   1.007  0.3435 -0.5708  0.0808
 4352TIP3   OH234546   2.913   3.171   0.539 -0.0174  0.3234  0.4014
 4352TIP3    H134547   2.997   3.126   0.530  0.5413  1.5893 -0.8478
 4352TIP3    H234548   2.849   3.100   0.551  1.3711 -0.5830  2.7135
 4353TIP3   OH234549   3.678   4.268   4.684  0.4265 -0.5202 -0.0961
 4353TIP3    H134550   3.688   4.172   4.688 -1.2300 -0.6260  2.1835
 4353TIP3    H234551   3.615   4.282   4.613 -1.2078 -1.3163  1.1460
 4354TIP3   OH234552   4.737   4.886   5.741  0.1738 -0.4926  0.5899
 4354TIP3    H134553   4.649   4.900   5.776 -0.3244  1.2193 -1.2762
 4354TIP3    H234554   4.793   4.946   5.791 -0.1260  0.1336  0.1814
 4355TIP3   OH234555   0.878   2.909   1.235  0.6581 -0.2506 -0.2837
 4355TIP3    H134556   0.922   2.839   1.283 -1.7491 -1.3339  0.4468
 4355TIP3    H234557   0.935   2.985   1.245  2.6182 -1.7399  0.1129
 4356TIP3   OH234558   3.518   6.129  12.067  0.4973  0.0375  0.3799
 4356TIP3    H134559   3.576   6.068  12.021  0.2218 -0.9745  1.3562
 4356TIP3    H234560   3.544   6.122  12.159  0.4094  1.3485  0.5133
 4357TIP3   OH234561   5.427   4.736   3.764  0.3811  0.1023 -0.3280
 4357TIP3    H134562   5.468   4.823   3.764  1.2757 -0.2563  2.6358
 4357TIP3    H234563   5.340   4.752   3.801  0.4175 -0.1877 -0.1157
 4358TIP3   OH234564   3.754   3.911   4.349  0.0250  0.2846 -0.1468
 4358TIP3    H134565   3.839   3.952   4.333  0.7068 -1.2606 -0.6341
 4358TIP3    H234566   3.775   3.827   4.390 -1.2261 -0.4294 -0.9173
 4359TIP3   OH234567   4.781   2.143   2.766 -0.2347 -0.4936 -0.1746
 4359TIP3    H134568   4.815   2.071   2.819  0.2055  1.8541  2.8361
 4359TIP3    H234569   4.686   2.136   2.775 -0.2829 -1.8213 -1.4880
 4360TIP3   OH234570   2.813   5.160  14.740  0.0777 -0.4863  0.1832
 4360TIP3    H134571   2.779   5.245  14.770 -0.0594 -0.9818  1.4839
 4360TIP3    H234572   2.900   5.181  14.706 -0.0135  0.2118  0.3548
 4361TIP3   OH234573   0.566   6.676  12.171  0.2780  0.8511 -0.3111
 4361TIP3    H134574   0.615   6.671  12.253 -0.6915 -0.5274  0.1947
 4361TIP3    H234575   0.480   6.710  12.197  0.8111  2.9467 -1.1484
 4362TIP3   OH234576   0.600   3.058   1.305  0.2866 -0.0431 -0.3166
 4362TIP3    H134577   0.689   3.034   1.276 -0.1132 -3.2911  0.8822
 4362TIP3    H234578   0.569   2.980   1.351 -2.2719  1.9761  1.4791
 4363TIP3   OH234579   4.444   4.893  13.879 -0.0063 -0.0315 -0.7547
 4363TIP3    H134580   4.475   4.845  13.802  1.5994 -1.9847  1.0560
 4363TIP3    H234581   4.447   4.829  13.950 -0.6435  1.9706  1.1390
 4364TIP3   OH234582   1.691   6.597   2.369  0.0754 -0.1127 -0.0000
 4364TIP3    H134583   1.754   6.629   2.304 -0.7226  1.2244 -0.1319
 4364TIP3    H234584   1.704   6.653   2.445 -1.1799  0.4031 -0.1479
 4365TIP3   OH234585   0.376   6.041   2.100  0.0490  0.3115  0.0127
 4365TIP3    H134586   0.378   6.071   2.009  1.6522  0.0030 -0.0807
 4365TIP3    H234587   0.438   6.099   2.145  1.1567 -1.1263  0.3774
 4366TIP3   OH234588   0.480   3.182  13.369 -0.3938 -0.3963 -0.2013
 4366TIP3    H134589   0.520   3.113  13.317  2.4494 -0.3568  1.8222
 4366TIP3    H234590   0.439   3.136  13.442  0.9122 -0.0389  0.7789
 4367TIP3   OH234591   6.307   3.878  15.221 -0.2293 -0.3544  0.2326
 4367TIP3    H134592   6.217   3.909  15.231  0.5208  1.8011  0.4544
 4367TIP3    H234593   6.319   3.815  15.292 -0.7649  1.2265  1.7565
 4368TIP3   OH234594   0.036   1.043   1.510 -0.4516  0.2832  0.2650
 4368TIP3    H134595   0.109   1.003   1.463  0.1104  1.0159  0.5016
 4368TIP3    H234596  -0.042   0.998   1.478 -0.0442  0.5944 -1.1703
 4369TIP3   OH234597   5.829   5.350   0.325  0.0784  0.6345  0.0773
 4369TIP3    H134598   5.788   5.330   0.240  1.2888  1.4443 -0.7195
 4369TIP3    H234599   5.787   5.290   0.386  0.1070 -0.8906 -1.3522
 4370TIP3   OH234600   3.229   4.515   1.404  0.3718 -0.0927  0.3166
 4370TIP3    H134601   3.223   4.474   1.490 -1.6827 -1.3967 -0.3996
 4370TIP3    H234602   3.254   4.606   1.422 -1.2057 -0.0342  2.3734
 4371TIP3   OH234603   1.103   5.798   0.878  0.0102  0.5506  0.4664
 4371TIP3    H134604   1.014   5.798   0.913 -0.0829 -2.7594  0.3683
 4371TIP3    H234605   1.150   5.863   0.931 -1.9631  0.9444  1.7786
 4372TIP3   OH234606   0.485   5.722   2.621 -0.1581 -0.2436  0.4582
 4372TIP3    H134607   0.392   5.745   2.614 -0.1362 -0.5311 -0.8875
 4372TIP3    H234608   0.488   5.655   2.689 -1.1118 -1.1883 -0.4073
 4373TIP3   OH234609   2.540   1.757   0.704  0.1695  0.2312 -0.1647
 4373TIP3    H134610   2.456   1.797   0.726  0.3442  1.6339 -1.9354
 4373TIP3    H234611   2.569   1.803   0.625  1.2626 -2.1560 -1.2137
 4374TIP3   OH234612   3.066   3.947   5.657  0.7367 -0.4040  0.2212
 4374TIP3    H134613   3.096   3.969   5.745  0.3056  0.5278  0.1423
 4374TIP3    H234614   3.117   4.003   5.599  0.3671 -0.3590 -0.0609
 4375TIP3   OH234615   0.428   3.196  16.118  0.0379  0.3673  0.1419
 4375TIP3    H134616   0.349   3.210  16.171  0.2931  0.6778  0.4405
 4375TIP3    H234617   0.491   3.158  16.179 -0.8985 -2.8957 -0.8397
 4376TIP3   OH234618   6.012   6.310   0.145  0.4799 -0.2480  0.2743
 4376TIP3    H134619   5.938   6.262   0.182  2.2466 -2.5593  0.9245
 4376TIP3    H234620   5.974   6.364   0.076 -1.8351 -1.2195  0.7671
 4377TIP3   OH234621   1.640   0.431  12.415 -0.0482 -0.1279  0.1591
 4377TIP3    H134622   1.549   0.405  12.432  0.0247  0.0662  0.8754
 4377TIP3    H234623   1.635   0.484  12.336 -0.3494 -1.3624 -0.6645
 4378TIP3   OH234624   0.311   3.425   6.182  0.0685  0.2602 -0.3829
 4378TIP3    H134625   0.215   3.434   6.179  0.1758  1.2781 -1.1788
 4378TIP3    H234626   0.332   3.421   6.275 -0.4499  3.6989 -0.0681
 4379TIP3   OH234627   0.989   1.038   6.325 -0.4355  0.1387 -0.0239
 4379TIP3    H134628   1.080   1.011   6.333  0.0936  2.2153  1.5461
 4379TIP3    H234629   0.969   1.029   6.232  1.4200 -0.1691 -0.4085
 4380TIP3   OH234630   4.987   1.402   4.258 -0.7139  0.6155 -0.3203
 4380TIP3    H134631   4.911   1.457   4.275 -0.5453  0.9587 -0.6699
 4380TIP3    H234632   5.026   1.439   4.179 -2.1412 -1.6643 -2.1535
 4381TIP3   OH234633   0.566   1.548  13.816 -0.2751  0.3526 -0.1855
 4381TIP3    H134634   0.593   1.523  13.905  1.3234  1.9514 -0.1831
 4381TIP3    H234635   0.521   1.470  13.782 -1.5002 -0.0550  2.2450
 4382TIP3   OH234636   6.436   3.336  13.048  0.2718  0.3463 -0.2060
 4382TIP3    H134637   6.384   3.288  12.984 -0.6642 -0.5993  1.2308
 4382TIP3    H234638   6.387   3.416  13.063  0.1645  0.2842 -0.2185
 4383TIP3   OH234639   4.208   1.657  14.927 -0.4572  0.2160  0.1247
 4383TIP3    H134640   4.184   1.567  14.950 -0.8419 -0.0181 -1.1942
 4383TIP3    H234641   4.125   1.701  14.913 -0.2183  0.4085 -0.6717
 4384TIP3   OH234642   0.493   5.960  12.950  1.3711 -0.1543  0.3440
 4384TIP3    H134643   0.485   5.947  12.856 -0.1865 -0.5805  0.5126
 4384TIP3    H234644   0.469   5.875  12.988  2.0730 -0.0169  1.1280
 4385TIP3   OH234645   0.826   2.346  14.144 -0.2279 -0.1080 -0.3297
 4385TIP3    H134646   0.741   2.381  14.115 -0.4649 -1.0674 -0.8074
 4385TIP3    H234647   0.890   2.410  14.113 -0.7093  0.2118 -0.6739
 4386TIP3   OH234648   3.748   2.022   3.905  0.4602 -0.0383 -0.3929
 4386TIP3    H134649   3.787   1.935   3.908 -0.6830 -0.5865 -0.9482
 4386TIP3    H234650   3.818   2.081   3.934  1.5718 -1.0224 -1.0326
 4387TIP3   OH234651   3.799   4.568   4.412  0.1911  0.4498 -0.3161
 4387TIP3    H134652   3.826   4.512   4.485  1.3561 -0.3404 -1.3150
 4387TIP3    H234653   3.843   4.651   4.427 -0.4567  0.6601  0.4553
 4388TIP3   OH234654   6.638   1.458   1.674  0.0988 -0.3296 -0.1463
 4388TIP3    H134655   6.721   1.420   1.647  1.0105  2.0487 -0.7917
 4388TIP3    H234656   6.661   1.533   1.728 -1.6610 -0.7444  1.2485
 4389TIP3   OH234657   4.969   6.721  14.507  0.2491  0.1613  0.4347
 4389TIP3    H134658   5.033   6.786  14.537  1.6132 -1.3141  0.7838
 4389TIP3    H234659   5.020   6.641  14.494 -1.6096 -1.2016  1.2331
 4390TIP3   OH234660   3.604   5.168   0.778 -0.0147 -0.1461 -0.3153
 4390TIP3    H134661   3.698   5.159   0.764  0.0928 -0.6748  0.7206
 4390TIP3    H234662   3.574   5.079   0.800 -0.7998 -0.0310 -0.8770
 4391TIP3   OH234663   0.500   4.429   0.639  0.2399  0.1906 -0.0173
 4391TIP3    H134664   0.494   4.450   0.732 -2.1907  0.9890 -0.3171
 4391TIP3    H234665   0.426   4.370   0.623  1.6205 -1.2803 -1.1049
 4392TIP3   OH234666   6.091   3.874  12.054  0.8644 -0.0781 -0.0533
 4392TIP3    H134667   6.026   3.914  12.112 -0.9841 -1.2632 -1.2720
 4392TIP3    H234668   6.067   3.904  11.967  0.6528 -2.2740 -0.7555
 4393TIP3   OH234669   3.482   6.201  15.661 -0.3947 -0.0118  0.2635
 4393TIP3    H134670   3.396   6.163  15.646 -0.9047  1.2569 -0.1556
 4393TIP3    H234671   3.508   6.237  15.576  0.4432 -0.1803  0.4439
 4394TIP3   OH234672   6.463   1.416  16.456  0.0957 -0.5434 -0.2761
 4394TIP3    H134673   6.517   1.338  16.442 -0.3425 -0.8735 -0.1736
 4394TIP3    H234674   6.472   1.467  16.376  0.5739 -0.5910 -0.2510
 4395TIP3   OH234675   0.454   6.301   5.721 -0.0948 -0.2942  0.3807
 4395TIP3    H134676   0.406   6.301   5.804  1.4088  0.2520  1.2645
 4395TIP3    H234677   0.545   6.316   5.745  0.2489  0.7956 -1.4415
 4396TIP3   OH234678   3.968   1.312   5.612 -0.1800 -0.5293 -0.7835
 4396TIP3    H134679   4.043   1.362   5.581 -0.2995  0.6844  0.8068
 4396TIP3    H234680   3.892   1.358   5.577 -0.2740  0.1597  0.3020
 4397TIP3   OH234681   6.747   2.590  15.101 -0.6011 -0.6309 -0.6392
 4397TIP3    H134682   6.706   2.549  15.177  0.5674  0.3288  0.5200
 4397TIP3    H234683   6.797   2.520  15.060 -2.4033 -1.5187 -1.3843
 4398TIP3   OH234684   4.615   0.259   5.716  0.7067 -0.4213 -0.1488
 4398TIP3    H134685   4.564   0.339   5.729  0.3609 -0.4061 -1.5454
 4398TIP3    H234686   4.626   0.223   5.804 -0.2139  0.4996  0.3487
 4399TIP3   OH234687   4.859   5.226  14.534  0.2590  0.0175  0.1083
 4399TIP3    H134688   4.809   5.244  14.455 -1.3531 -0.1964  1.0679
 4399TIP3    H234689   4.938   5.279  14.524 -0.4932  0.9447 -1.0794
 4400TIP3   OH234690   1.785   3.654  15.406  0.0130 -0.3369 -0.5736
 4400TIP3    H134691   1.810   3.744  15.428 -1.0194 -0.2886  0.4806
 4400TIP3    H234692   1.689   3.657  15.403 -0.0674 -1.5774  0.3092
 4401TIP3   OH234693   3.804   4.196   0.059 -0.0476 -0.1750 -0.1852
 4401TIP3    H134694   3.802   4.113   0.107 -2.4237  0.5297  1.0022
 4401TIP3    H234695   3.823   4.170  -0.032  1.8652 -1.7415  0.6168
 4402TIP3   OH234696   0.508   1.148   3.942 -0.0441  0.3935  0.0656
 4402TIP3    H134697   0.543   1.073   3.894  2.4836  1.6023 -0.0363
 4402TIP3    H234698   0.426   1.168   3.898  1.2766  0.2760 -2.5778
 4403TIP3   OH234699   3.904   6.051  16.121  0.1707  0.4265 -0.1706
 4403TIP3    H134700   3.869   6.002  16.047  1.8059  1.0458 -1.4118
 4403TIP3    H234701   3.864   6.138  16.113 -0.3595  0.2188  0.2180
 4404TIP3   OH234702   1.919   1.879  14.222  0.6146 -0.0925 -0.0416
 4404TIP3    H134703   1.965   1.959  14.248  1.0891 -0.8738  1.5397
 4404TIP3    H234704   1.851   1.867  14.287 -0.0915 -0.4530 -0.8283
 4405TIP3   OH234705   6.741   4.087  15.960 -0.1804  1.0030  0.5949
 4405TIP3    H134706   6.664   4.045  15.923 -0.0401  1.1782  0.0996
 4405TIP3    H234707   6.711   4.122  16.044  0.3896 -2.4614  2.3288
 4406TIP3   OH234708   1.962   2.947   3.482 -0.4915 -0.6987 -0.0092
 4406TIP3    H134709   1.950   2.975   3.573 -1.5999  0.6638 -0.5556
 4406TIP3    H234710   1.934   2.855   3.482 -0.4811 -0.7109  1.0257
 4407TIP3   OH234711   2.023   1.936   1.991 -0.1006  0.2583 -0.6663
 4407TIP3    H134712   1.976   1.959   2.071  0.5736 -1.2546  0.1879
 4407TIP3    H234713   1.959   1.886   1.939  0.8906 -2.9681  1.0847
 4408TIP3   OH234714   4.391   1.135   3.125 -0.1460 -0.2206 -0.2951
 4408TIP3    H134715   4.394   1.158   3.032  0.8970  0.7948 -0.0320
 4408TIP3    H234716   4.481   1.108   3.146  0.0692  1.2267  0.7967
 4409TIP3   OH234717   3.000   1.967   5.670  0.0474 -0.2114 -0.1777
 4409TIP3    H134718   2.937   2.020   5.719  1.2145  0.5214  0.5357
 4409TIP3    H234719   2.972   1.876   5.687  0.0928  0.0512  1.3769
 4410TIP3   OH234720   0.708   6.303  12.332 -0.2760 -0.1322 -0.1232
 4410TIP3    H134721   0.615   6.292  12.312 -0.1950 -0.5244 -0.3030
 4410TIP3    H234722   0.724   6.396  12.321 -0.6728 -0.0494  0.0083
 4411TIP3   OH234723   1.878   6.270   0.980  0.0494  0.3990  0.0443
 4411TIP3    H134724   1.869   6.364   0.993  0.3244  0.1986  1.7242
 4411TIP3    H234725   1.968   6.250   1.008  0.5929 -0.0993 -1.9464
 4412TIP3   OH234726   2.453   5.454  14.812  0.0542 -0.5545  0.0421
 4412TIP3    H134727   2.416   5.368  14.794  0.1701 -0.3508 -1.2427
 4412TIP3    H234728   2.379   5.515  14.805 -0.2276 -0.6447  1.9478
 4413TIP3   OH234729   2.783   0.607  12.433  0.2601 -0.8617  0.3790
 4413TIP3    H134730   2.712   0.645  12.483  0.4854  1.1217 -0.7494
 4413TIP3    H234731   2.756   0.616  12.341  2.2479  0.6038 -0.1150
 4414TIP3   OH234732   3.417   3.201  11.491  0.5286 -0.2420  0.3422
 4414TIP3    H134733   3.384   3.191  11.402 -0.8083 -0.1379  0.8110
 4414TIP3    H234734   3.510   3.222  11.480  0.1282  0.9040 -1.0690
 4415TIP3   OH234735   5.630   1.894   0.679  0.4202  0.2970 -0.1081
 4415TIP3    H134736   5.536   1.910   0.669  0.3624  0.0824  0.0736
 4415TIP3    H234737   5.672   1.953   0.616  0.2054  1.0670  0.4703
 4416TIP3   OH234738   1.157   0.230   5.858 -0.2988 -0.2623  0.1242
 4416TIP3    H134739   1.152   0.135   5.851 -0.4257 -0.2222 -0.3390
 4416TIP3    H234740   1.187   0.259   5.772 -0.5494  0.1400  0.1725
 4417TIP3   OH234741   1.065   5.709   3.753  0.5022 -0.0462 -0.4304
 4417TIP3    H134742   0.995   5.755   3.799  1.2371  0.6492  0.0019
 4417TIP3    H234743   1.093   5.769   3.684  0.5594 -0.3865 -0.7059
 4418TIP3   OH234744   0.514   1.320   2.737  0.1186 -0.4529  0.4637
 4418TIP3    H134745   0.445   1.301   2.674  1.2283 -0.5349 -0.7268
 4418TIP3    H234746   0.594   1.285   2.698  1.0350  0.6501  1.2973
 4419TIP3   OH234747   6.191   0.705   5.173 -0.0158 -0.3896  0.2951
 4419TIP3    H134748   6.206   0.799   5.171  4.0375 -0.9345  1.3453
 4419TIP3    H234749   6.156   0.684   5.086  0.4150  1.8820 -0.4507
 4420TIP3   OH234750   0.040   4.782   5.933  0.3798  0.1515  0.0826
 4420TIP3    H134751  -0.055   4.772   5.936  0.2595  1.0594 -0.3749
 4420TIP3    H234752   0.066   4.739   5.852  0.4958 -1.0774  0.7646
 4421TIP3   OH234753   0.360   2.018  14.549  0.1724 -0.3578 -0.4471
 4421TIP3    H134754   0.438   2.023  14.604 -0.2507 -0.9044  0.2029
 4421TIP3    H234755   0.386   1.964  14.475  0.2376 -1.0697  0.0833
 4422TIP3   OH234756   0.869   0.383  17.190 -0.5357  0.4007 -0.3344
 4422TIP3    H134757   0.938   0.320  17.172  1.3177  1.6609  2.1577
 4422TIP3    H234758   0.899   0.464  17.149  0.3642  1.4049  2.1782
 4423TIP3   OH234759   0.155   5.843  11.725  0.3633 -0.2338 -0.1617
 4423TIP3    H134760   0.195   5.757  11.737 -3.5382 -2.0066  0.8779
 4423TIP3    H234761   0.084   5.828  11.663 -1.9219  1.6987  1.8980
 4424TIP3   OH234762   2.183   0.522  11.663  0.0383 -0.4876 -0.4299
 4424TIP3    H134763   2.089   0.527  11.676 -0.0801 -1.0344 -1.0465
 4424TIP3    H234764   2.200   0.431  11.638  0.8228 -0.5818  0.4175
 4425TIP3   OH234765   0.507   3.300  15.844  0.2184  0.2970  0.1005
 4425TIP3    H134766   0.472   3.211  15.835 -0.0207  0.4624 -0.6724
 4425TIP3    H234767   0.518   3.311  15.938  0.2978 -0.5686  0.2029
 4426TIP3   OH234768   3.090   2.557  16.498 -0.2871 -0.3785  0.1707
 4426TIP3    H134769   3.011   2.559  16.445  0.2484 -1.1942 -0.6529
 4426TIP3    H234770   3.146   2.625  16.460 -0.5258  0.0990  0.6611
 4427TIP3   OH234771   5.404   2.242   4.953  0.1115 -0.0404 -0.2735
 4427TIP3    H134772   5.385   2.227   4.860 -0.6740  0.2570 -0.1650
 4427TIP3    H234773   5.318   2.242   4.995  0.1440  3.1203 -0.0435
 4428TIP3   OH234774   0.295   6.530  17.117  0.4146 -0.3195 -0.7575
 4428TIP3    H134775   0.250   6.511  17.034  0.4719  0.0584 -0.8797
 4428TIP3    H234776   0.336   6.448  17.142 -1.6686 -1.1124  0.1758
 4429TIP3   OH234777   5.378   1.124   4.319 -0.1596  0.2337 -0.0249
 4429TIP3    H134778   5.345   1.194   4.375 -1.4602  0.5223 -1.1418
 4429TIP3    H234779   5.402   1.054   4.380 -0.5338  0.9638  0.9699
 4430TIP3   OH234780   3.627   6.589   2.534  0.3045 -0.0965 -0.2150
 4430TIP3    H134781   3.675   6.533   2.595 -0.0776  0.1303  0.2964
 4430TIP3    H234782   3.688   6.603   2.461  0.4810 -0.9893 -0.2433
 4431TIP3   OH234783   5.388   5.264   5.939 -0.6516 -0.2872  0.0711
 4431TIP3    H134784   5.364   5.329   6.006  0.9213 -1.7880  2.1513
 4431TIP3    H234785   5.439   5.199   5.986  1.1284 -1.0289 -2.7597
 4432TIP3   OH234786   4.091   1.038   3.100 -0.5312 -0.3435 -0.3408
 4432TIP3    H134787   4.054   0.992   3.175 -0.9905  0.4382 -0.0791
 4432TIP3    H234788   4.112   1.125   3.134  0.2028 -0.3145 -0.8627
 4433TIP3   OH234789   6.673   2.168  16.289  0.3793 -0.0678  0.0489
 4433TIP3    H134790   6.764   2.188  16.266  0.0211 -1.3614 -2.6655
 4433TIP3    H234791   6.622   2.241  16.252 -0.1982 -2.1441 -3.4230
 4434TIP3   OH234792   2.812   5.387   1.814  0.1849 -0.3691 -0.2884
 4434TIP3    H134793   2.726   5.363   1.780  0.1355  0.9515 -1.1438
 4434TIP3    H234794   2.804   5.374   1.909 -0.2726 -2.2674 -0.5658
 4435TIP3   OH234795   2.381   1.845  12.533  0.2687  0.6339  0.4674
 4435TIP3    H134796   2.297   1.864  12.490 -0.1023  0.0256  0.9231
 4435TIP3    H234797   2.430   1.794  12.469 -0.7651 -1.3415  1.2158
 4436TIP3   OH234798   0.523   5.509  11.936  0.2149  0.2631 -0.3482
 4436TIP3    H134799   0.569   5.453  11.873  0.6716  0.4972 -0.2194
 4436TIP3    H234800   0.588   5.532  12.001 -1.1226 -2.9157  2.2324
 4437TIP3   OH234801   3.358   4.113   3.435  1.0594 -0.6988  0.5322
 4437TIP3    H134802   3.325   4.171   3.504  1.6228 -0.3175  0.4832
 4437TIP3    H234803   3.311   4.140   3.356  2.1186  0.4494  0.2707
 4438TIP3   OH234804   3.272   2.706   3.555  0.6315  0.2406 -0.2655
 4438TIP3    H134805   3.203   2.640   3.548 -0.0234  1.1461 -2.5905
 4438TIP3    H234806   3.352   2.655   3.568 -0.2830 -0.8632  1.1692
 4439TIP3   OH234807   1.592   5.927  11.009  0.0735  0.9037 -0.3860
 4439TIP3    H134808   1.542   5.846  11.013 -0.6016  1.1976 -2.4557
 4439TIP3    H234809   1.528   5.996  11.026  0.1070  1.1666 -1.2959
 4440TIP3   OH234810   1.072   4.095   3.968 -0.3604  0.0931 -0.1508
 4440TIP3    H134811   1.146   4.076   4.026  0.4812  0.6337 -1.0291
 4440TIP3    H234812   1.027   4.168   4.010 -0.8735 -0.7530  0.8043
 4441TIP3   OH234813   0.444   0.908   4.434  0.0089 -0.4575 -0.8159
 4441TIP3    H134814   0.383   0.855   4.383  0.3092 -1.8926  0.2887
 4441TIP3    H234815   0.410   0.997   4.427 -1.5316 -1.0597 -1.2231
 4442TIP3   OH234816   1.367   6.411  13.191  0.2404 -0.3839  0.1756
 4442TIP3    H134817   1.324   6.448  13.114 -2.0574 -1.1931  1.0459
 4442TIP3    H234818   1.360   6.316  13.181  0.2409 -0.5057  1.2085
 4443TIP3   OH234819   5.487   5.197  14.450  0.4995  0.3427  0.5460
 4443TIP3    H134820   5.488   5.289  14.476 -0.6804  0.9149 -1.3106
 4443TIP3    H234821   5.516   5.197  14.358 -2.8513 -0.7107 -0.5927
 4444TIP3   OH234822   3.896   2.417  14.472  0.3544  0.3291 -0.1741
 4444TIP3    H134823   3.883   2.473  14.548  1.0858  0.9199 -0.4669
 4444TIP3    H234824   3.942   2.341  14.505  0.3759  0.4322  0.0314
 4445TIP3   OH234825   0.243   3.659  11.952 -0.4925  0.6193  0.0359
 4445TIP3    H134826   0.240   3.712  11.873  2.1729 -0.5541 -0.9062
 4445TIP3    H234827   0.233   3.569  11.921 -2.6254  0.3560  1.3732
 4446TIP3   OH234828   2.047   5.734   4.187 -0.3924 -0.2375 -0.2187
 4446TIP3    H134829   2.081   5.651   4.222  0.1669 -0.0580 -0.3231
 4446TIP3    H234830   1.955   5.735   4.212 -0.0149 -0.1291  1.2284
 4447TIP3   OH234831   1.819   3.391   0.740  0.5594 -0.7544 -0.2800
 4447TIP3    H134832   1.814   3.388   0.645 -1.6026  0.1499 -0.2183
 4447TIP3    H234833   1.863   3.309   0.764  0.7106 -1.2046 -2.0304
 4448TIP3   OH234834   1.875   3.898  12.351 -0.5098  0.3421  0.4838
 4448TIP3    H134835   1.888   3.831  12.418 -1.9009  1.7350  2.1856
 4448TIP3    H234836   1.805   3.863  12.295 -0.2664 -0.2283  0.5282
 4449TIP3   OH234837   6.688   5.425  16.342  0.2666 -0.3146 -0.2576
 4449TIP3    H134838   6.734   5.357  16.293 -1.6119 -2.3801  0.7884
 4449TIP3    H234839   6.734   5.431  16.425  0.8557  0.2038 -0.6160
 4450TIP3   OH234840   3.280   4.765   2.841  0.1967  0.6904 -0.1318
 4450TIP3    H134841   3.370   4.733   2.841  0.0519  0.2798 -0.5007
 4450TIP3    H234842   3.282   4.842   2.899  0.8677  0.9198 -0.4489
 4451TIP3   OH234843   1.965   3.205  12.937 -0.4213  0.1831  0.4229
 4451TIP3    H134844   2.055   3.226  12.960 -0.9887  4.1698 -0.5245
 4451TIP3    H234845   1.912   3.249  13.004 -1.6919 -1.8899  0.8188
 4452TIP3   OH234846   4.493   5.410  11.436 -0.3191  0.2158 -0.3553
 4452TIP3    H134847   4.506   5.380  11.346 -0.1469  1.2065 -0.6749
 4452TIP3    H234848   4.481   5.330  11.487 -3.9173 -0.2449 -1.7889
 4453TIP3   OH234849   3.444   1.205   2.425  0.5605  0.0894  0.3900
 4453TIP3    H134850   3.508   1.269   2.392  2.3378 -2.1857 -0.7231
 4453TIP3    H234851   3.399   1.174   2.347 -0.9846  0.6935  1.0353
 4454TIP3   OH234852   1.372   2.069  13.892 -0.2007  0.2559 -0.2563
 4454TIP3    H134853   1.385   1.980  13.861 -1.3736 -1.1813  3.1785
 4454TIP3    H234854   1.295   2.100  13.845 -0.3895 -0.8985 -0.7074
 4455TIP3   OH234855   1.535   5.714  13.609  0.7404 -0.1045  0.4656
 4455TIP3    H134856   1.515   5.804  13.584  0.8331  0.0266  0.8624
 4455TIP3    H234857   1.570   5.721  13.698 -0.0671 -0.6188  0.8330
 4456TIP3   OH234858   5.454   2.566   0.629 -0.0280  0.2450 -0.6131
 4456TIP3    H134859   5.371   2.522   0.610  0.3159  0.0147 -1.5746
 4456TIP3    H234860   5.519   2.521   0.575  1.0976 -0.8652  1.5741
 4457TIP3   OH234861   5.086   5.139  11.592 -0.2611 -0.5316  0.4194
 4457TIP3    H134862   5.167   5.088  11.584 -0.1094 -0.3530  0.7655
 4457TIP3    H234863   5.104   5.220  11.544  0.4119  0.2611  1.9588
 4458TIP3   OH234864   6.278   3.814   3.494  0.3891  0.4050 -0.6707
 4458TIP3    H134865   6.217   3.740   3.486  0.7803  0.2035 -1.9060
 4458TIP3    H234866   6.225   3.885   3.530  0.1708 -0.6676  1.2213
 4459TIP3   OH234867   6.478   4.170   4.847  0.6265 -0.6283 -0.0125
 4459TIP3    H134868   6.494   4.131   4.934  2.0912  0.0974  0.0654
 4459TIP3    H234869   6.384   4.161   4.834  0.3280 -0.4506  1.8096
 4460TIP3   OH234870   5.949   2.222  14.370  0.2161  0.5656  0.1896
 4460TIP3    H134871   5.889   2.294  14.387  0.5895  1.0908 -0.6692
 4460TIP3    H234872   5.942   2.166  14.447  0.5482  1.9445  1.2344
 4461TIP3   OH234873   5.962   2.564  11.135 -0.0469  0.4386  0.1685
 4461TIP3    H134874   6.007   2.637  11.091  0.8272  0.9801  1.9092
 4461TIP3    H234875   6.008   2.486  11.104 -0.7758  0.6323 -1.4511
 4462TIP3   OH234876   4.376   4.063   0.988 -0.5073  0.8310 -0.0387
 4462TIP3    H134877   4.366   3.977   0.947  0.1134  0.2840  0.9441
 4462TIP3    H234878   4.464   4.091   0.964  0.6210 -0.3751  2.5181
 4463TIP3   OH234879   5.266   2.198   2.201  0.2312 -0.3875  0.0046
 4463TIP3    H134880   5.346   2.151   2.224 -0.6263 -1.9088 -0.0534
 4463TIP3    H234881   5.244   2.168   2.113 -2.0158 -2.3007  1.1431
 4464TIP3   OH234882   0.620   4.346  16.123  0.2716 -0.2098  0.2419
 4464TIP3    H134883   0.658   4.308  16.202 -1.2579 -0.1722  1.0211
 4464TIP3    H234884   0.693   4.352  16.061  1.3735 -0.7185  1.4703
 4465TIP3   OH234885   3.099   0.634  14.200 -0.0378 -0.0929  0.6982
 4465TIP3    H134886   3.162   0.619  14.130 -0.0611 -0.7620  0.8096
 4465TIP3    H234887   3.145   0.690  14.263  0.0560  0.3292  0.2545
 4466TIP3   OH234888   2.214   5.001  11.957 -0.4958  0.0554  0.9692
 4466TIP3    H134889   2.128   5.029  11.988 -1.1105  0.4525 -1.0136
 4466TIP3    H234890   2.195   4.935  11.890  0.8474 -2.6181  3.0653
 4467TIP3   OH234891   5.509   0.976   4.538 -0.8020 -0.2705  0.1286
 4467TIP3    H134892   5.521   0.883   4.519  2.1578  0.1994 -0.4905
 4467TIP3    H234893   5.588   1.018   4.505 -0.2995  1.9861  3.9349
 4468TIP3   OH234894   3.803   5.906  15.908  0.2355  0.3863  0.2407
 4468TIP3    H134895   3.724   5.960  15.908  0.2117  0.3654 -1.2665
 4468TIP3    H234896   3.796   5.853  15.829  0.7041 -1.1980  1.2318
 4469TIP3   OH234897   5.940   1.008  16.608  0.5404 -0.3063  1.0894
 4469TIP3    H134898   5.942   0.970  16.696 -2.5836 -2.2576  0.3966
 4469TIP3    H234899   6.000   0.954  16.557  1.6830  0.2763  1.7994
 4470TIP3   OH234900   2.666   3.181  12.401 -0.2273 -0.4301 -0.6898
 4470TIP3    H134901   2.591   3.227  12.438  0.1918  0.0414 -0.4307
 4470TIP3    H234902   2.677   3.105  12.458 -0.5083 -0.5052 -0.7316
 4471TIP3   OH234903   0.362   4.361  11.511  0.1691 -0.2735 -0.1323
 4471TIP3    H134904   0.340   4.292  11.573  1.5210 -0.5223  0.0639
 4471TIP3    H234905   0.371   4.440  11.564 -0.3725 -0.1352 -0.2360
 4472TIP3   OH234906   1.996   1.887  16.709  0.1044 -0.2559  0.6184
 4472TIP3    H134907   2.079   1.927  16.682 -0.6404  0.9507  0.0669
 4472TIP3    H234908   1.978   1.821  16.643 -0.3985  0.8973 -0.4159
 4473TIP3   OH234909   0.849   1.560   2.260  0.0668  0.2827 -0.9384
 4473TIP3    H134910   0.774   1.561   2.319  0.3849 -0.0131 -0.5224
 4473TIP3    H234911   0.812   1.548   2.173 -0.3187 -0.6598 -0.6496
 4474TIP3   OH234912   4.863   5.929   4.452 -0.3424 -0.1923 -0.2981
 4474TIP3    H134913   4.837   5.977   4.530 -0.2298  0.7952 -0.8603
 4474TIP3    H234914   4.822   5.976   4.380 -0.2494 -0.9529 -0.8562
 4475TIP3   OH234915   3.096   2.254   1.042  0.1512 -0.2150 -0.0905
 4475TIP3    H134916   3.152   2.254   1.119 -0.3908  0.3886  0.3160
 4475TIP3    H234917   3.113   2.339   1.000 -0.0649 -0.2479 -0.2450
 4476TIP3   OH234918   0.197   5.304   2.267  0.0213  1.1942  0.2248
 4476TIP3    H134919   0.105   5.318   2.290  0.5403  0.3647  3.0406
 4476TIP3    H234920   0.235   5.392   2.270 -0.4527  1.4052  0.1571
 4477TIP3   OH234921   0.759   6.161   4.215  0.4979  0.0995  0.3823
 4477TIP3    H134922   0.718   6.117   4.141  2.5814 -2.3202  0.5921
 4477TIP3    H234923   0.822   6.221   4.175  2.1758 -1.7630  0.1374
 4478TIP3   OH234924   5.905   1.851   3.068  0.2409 -0.1928 -0.5888
 4478TIP3    H134925   5.864   1.931   3.100 -1.0347 -0.8694 -0.4975
 4478TIP3    H234926   5.931   1.871   2.978 -2.0890 -0.3976 -1.3169
 4479TIP3   OH234927   5.144   1.722  12.513  0.3796 -0.2565 -0.0122
 4479TIP3    H134928   5.098   1.655  12.565 -0.9295 -0.3236 -1.2237
 4479TIP3    H234929   5.146   1.685  12.425  0.4998  0.8853 -0.4847
 4480TIP3   OH234930   4.803   3.121  15.591  0.0230 -0.5576 -0.4256
 4480TIP3    H134931   4.888   3.164  15.580 -0.7608  1.1447 -0.0946
 4480TIP3    H234932   4.748   3.158  15.522 -0.7805 -0.7219  0.1162
 4481TIP3   OH234933   5.646   3.806  15.907 -0.0834 -0.4704 -0.1081
 4481TIP3    H134934   5.646   3.833  15.999  0.3523 -0.3174 -0.1538
 4481TIP3    H234935   5.654   3.711  15.910  1.5696 -0.3457 -0.0206
 4482TIP3   OH234936   6.146   0.927  14.138  0.3222  0.2317  0.3080
 4482TIP3    H134937   6.137   0.921  14.043 -2.8632 -0.4796  0.5854
 4482TIP3    H234938   6.098   0.851  14.171 -1.1930  2.1048  2.5716
 4483TIP3   OH234939   5.388   1.841  12.238 -0.9320  0.4424  0.5168
 4483TIP3    H134940   5.416   1.819  12.327 -0.2125 -0.8727 -0.0267
 4483TIP3    H234941   5.416   1.932  12.226 -0.0024  0.2586  1.2269
 4484TIP3   OH234942   4.110   6.319   1.481 -0.5065  0.2266 -0.4192
 4484TIP3    H134943   4.193   6.353   1.513 -0.7247  0.8620 -0.5338
 4484TIP3    H234944   4.054   6.314   1.559 -0.0876 -1.0233 -0.1872
 4485TIP3   OH234945   3.338   4.888  14.493 -0.1099  0.3047 -0.0088
 4485TIP3    H134946   3.267   4.951  14.509 -0.4731 -0.0208 -0.3293
 4485TIP3    H234947   3.386   4.885  14.576  0.6199  1.8887 -0.3518
 4486TIP3   OH234948   1.917   4.371  11.892  0.8403  0.0736  0.5437
 4486TIP3    H134949   1.861   4.415  11.829  0.3336  0.0207  0.9487
 4486TIP3    H234950   1.977   4.319  11.839  0.7182  0.3845  0.0968
 4487TIP3   OH234951   2.373   3.072  14.984 -0.0226 -0.4723 -0.4525
 4487TIP3    H134952   2.456   3.033  14.958  0.8219  0.7973  0.3077
 4487TIP3    H234953   2.397   3.147  15.038 -1.6571  0.1914 -0.6113
 4488TIP3   OH234954   6.284   4.957  13.013  0.1377  0.0351 -0.3964
 4488TIP3    H134955   6.321   5.044  13.025  0.1126  0.0533 -0.4497
 4488TIP3    H234956   6.359   4.899  13.004  0.1520  0.1138 -0.7997
 4489TIP3   OH234957   3.223   0.569   1.013 -0.5445  0.2985  0.1837
 4489TIP3    H134958   3.220   0.556   1.108 -2.4070  1.8856  0.3863
 4489TIP3    H234959   3.163   0.503   0.978 -1.5141  1.0759  0.3239
 4490TIP3   OH234960   4.359   0.659  13.736 -0.2271  0.4434  0.1360
 4490TIP3    H134961   4.400   0.649  13.650  1.4984 -0.2442  1.0097
 4490TIP3    H234962   4.428   0.697  13.791 -0.5100 -1.4116  1.8346
 4491TIP3   OH234963   6.562   2.362   1.125  0.8680  0.3388  0.2774
 4491TIP3    H134964   6.644   2.386   1.083  1.1012 -0.8539  0.0261
 4491TIP3    H234965   6.494   2.403   1.071  1.1756 -0.9364 -1.1309
 4492TIP3   OH234966   0.259   1.370   4.923  0.1443  0.1877  0.2030
 4492TIP3    H134967   0.209   1.343   4.846 -0.9526 -0.0234  0.9814
 4492TIP3    H234968   0.344   1.396   4.888  0.7294 -2.7819 -0.7706
 4493TIP3   OH234969   5.097   3.055   3.704  0.3017 -0.1574  0.2917
 4493TIP3    H134970   5.149   3.013   3.635 -1.5260 -1.1211 -0.5411
 4493TIP3    H234971   5.017   3.083   3.659  0.1804  1.5105  1.4993
 4494TIP3   OH234972   1.668   2.723  16.104  0.7201  0.2813 -0.3604
 4494TIP3    H134973   1.574   2.714  16.091  0.7700 -2.0989  0.7292
 4494TIP3    H234974   1.693   2.796  16.047 -1.8115  1.1623 -0.4188
 4495TIP3   OH234975   5.186   0.970   5.744  0.1654  0.6589 -0.4006
 4495TIP3    H134976   5.103   1.014   5.760 -0.0181 -0.1352  0.8930
 4495TIP3    H234977   5.232   1.027   5.683 -1.7204  0.6225 -1.9125
 4496TIP3   OH234978   5.504   2.193  12.612  0.3511 -0.3852 -0.3013
 4496TIP3    H134979   5.466   2.136  12.679 -0.4748 -0.0058 -0.4477
 4496TIP3    H234980   5.459   2.170  12.531  0.9220 -0.4198 -0.6149
 4497TIP3   OH234981   4.165   6.142   6.083  0.1057 -0.6258 -0.2851
 4497TIP3    H134982   4.167   6.060   6.132 -0.4275 -0.8514 -0.6407
 4497TIP3    H234983   4.231   6.131   6.014  0.3694 -0.5740 -0.0407
 4498TIP3   OH234984   5.071   4.840   2.891  0.2686  0.2828  0.6483
 4498TIP3    H134985   5.077   4.932   2.864 -2.2788  0.7028  1.3808
 4498TIP3    H234986   5.073   4.791   2.809  0.6759  1.0387  0.1924
 4499TIP3   OH234987   0.337   3.242   6.686  0.0898  0.1695  0.3122
 4499TIP3    H134988   0.320   3.260   6.779  0.7530  0.5608  0.3575
 4499TIP3    H234989   0.430   3.219   6.682 -0.2929 -1.4089 -0.0253
 4500TIP3   OH234990   5.649   4.690  13.538 -1.0356  0.2143  0.5749
 4500TIP3    H134991   5.700   4.753  13.488 -0.1195 -1.6623 -0.9189
 4500TIP3    H234992   5.663   4.714  13.629  1.6248  0.4178  0.1407
 4501TIP3   OH234993   5.420   2.197  17.098 -0.3694 -0.1225 -0.1022
 4501TIP3    H134994   5.379   2.272  17.055 -1.1856  0.4440  1.6129
 4501TIP3    H234995   5.508   2.227  17.120 -0.0508 -0.3141 -1.0767
 4502TIP3   OH234996   2.019   4.645  12.115 -0.7973 -0.1393  0.8187
 4502TIP3    H134997   2.047   4.675  12.029 -0.5972 -0.6642  0.6946
 4502TIP3    H234998   1.930   4.677  12.125 -0.2258  1.4301  1.1453
 4503TIP3   OH234999   0.679   1.690  15.680  0.2892  0.1401 -0.0682
 4503TIP3    H135000   0.727   1.754  15.733 -0.0290  1.1171 -0.9250
 4503TIP3    H235001   0.737   1.615  15.673  0.5116  0.1819  1.2937
 4504TIP3   OH235002   1.945   0.074  16.533 -0.1229 -0.3393  0.0164
 4504TIP3    H135003   1.967   0.165  16.549 -1.1918  0.2409 -1.6426
 4504TIP3    H235004   2.004   0.024  16.590  2.3244  1.2940 -0.9913
 4505TIP3   OH235005   4.892   5.649   1.884 -0.4877 -0.2278 -0.1286
 4505TIP3    H135006   4.798   5.653   1.901 -0.4122 -0.6559  0.3949
 4505TIP3    H235007   4.920   5.741   1.885 -0.5029 -0.2263  1.9316
 4506TIP3   OH235008   2.960   6.467  15.787  0.0585 -0.0377  0.4122
 4506TIP3    H135009   3.013   6.440  15.712 -0.1635 -0.0969  0.2775
 4506TIP3    H235010   2.870   6.467  15.755  0.0006  0.3020  0.5760
 4507TIP3   OH235011   5.317   5.631  16.437  0.9116 -0.0388 -0.2929
 4507TIP3    H135012   5.407   5.655  16.459  0.9466 -1.2695  0.9325
 4507TIP3    H235013   5.298   5.555  16.491 -0.6053 -0.2768 -1.1271
 4508TIP3   OH235014   0.619   0.864   5.187 -0.5119  0.3815  0.0159
 4508TIP3    H135015   0.598   0.957   5.182 -0.2152  0.5227  1.1615
 4508TIP3    H235016   0.677   0.848   5.113  0.3495  1.3640  0.4668
 4509TIP3   OH235017   6.442   2.090   0.512 -0.0076  0.7425 -0.2635
 4509TIP3    H135018   6.396   2.019   0.466  0.6131  0.6862 -0.8075
 4509TIP3    H235019   6.500   2.045   0.573  2.3986  0.6640 -2.5053
 4510TIP3   OH235020   5.824   2.410   4.569 -0.1881 -0.4154 -0.2652
 4510TIP3    H135021   5.874   2.471   4.624 -0.8716  0.2088 -0.3220
 4510TIP3    H235022   5.874   2.406   4.487 -0.3745  0.4276 -0.4280
 4511TIP3   OH235023   0.601   3.946  16.124 -0.1847  0.0112 -0.0230
 4511TIP3    H135024   0.595   4.012  16.054 -0.7272  0.8112  0.7653
 4511TIP3    H235025   0.547   3.874  16.094  1.5837 -0.7150 -1.5840
 4512TIP3   OH235026   5.572   5.759   0.009  0.7500 -0.2843  0.0699
 4512TIP3    H135027   5.663   5.772  -0.020  0.2381  0.8412 -1.0942
 4512TIP3    H235028   5.546   5.844   0.044  0.1976 -0.6572  0.5573
 4513TIP3   OH235029   1.788   0.754   0.180 -0.6588 -0.4991 -0.8033
 4513TIP3    H135030   1.783   0.814   0.254  0.8011 -1.1196 -0.1759
 4513TIP3    H235031   1.870   0.778   0.135 -1.1123 -0.6732 -1.7328
 4514TIP3   OH235032   3.927   2.936   5.614 -0.4821 -0.1713  0.4101
 4514TIP3    H135033   3.883   2.852   5.602 -1.3463  0.0362  2.0053
 4514TIP3    H235034   4.021   2.915   5.612 -0.6454 -0.7857 -1.8226
 4515TIP3   OH235035   6.695   2.470   4.468 -0.1733 -0.1038 -0.1796
 4515TIP3    H135036   6.626   2.529   4.437 -0.0027 -0.0553 -0.4681
 4515TIP3    H235037   6.691   2.395   4.410  0.3262  0.1094 -0.4975
 4516TIP3   OH235038   4.585   5.960  14.924 -0.3859 -0.6073 -0.1063
 4516TIP3    H135039   4.502   6.000  14.897  0.7093  1.2993 -0.7828
 4516TIP3    H235040   4.614   5.912  14.846  0.0658  0.3157 -0.5186
 4517TIP3   OH235041   2.733   3.503   3.784  0.1821  0.1037  0.5015
 4517TIP3    H135042   2.675   3.428   3.793  0.8395 -0.7593 -2.0902
 4517TIP3    H235043   2.788   3.501   3.862 -0.3646 -1.6384  0.8513
 4518TIP3   OH235044   1.346   6.221  15.218  0.2029  0.5583 -0.3009
 4518TIP3    H135045   1.279   6.191  15.157 -0.5707  1.1536  0.2460
 4518TIP3    H235046   1.316   6.191  15.304  0.2912  1.4187  0.0344
 4519TIP3   OH235047   5.661   3.691   0.044  0.6075 -0.1211  0.2608
 4519TIP3    H135048   5.577   3.649   0.063  0.7053 -0.0077  0.9715
 4519TIP3    H235049   5.709   3.686   0.126  1.1236  0.2195 -0.0178
 4520TIP3   OH235050   0.142   4.420  16.344 -0.2035  0.2348 -0.3955
 4520TIP3    H135051   0.196   4.407  16.421 -0.0944  0.0243 -0.5045
 4520TIP3    H235052   0.159   4.343  16.289 -0.3495  0.3365 -0.5873
 4521TIP3   OH235053   2.340   3.001  13.888  0.3318 -0.4083  0.0981
 4521TIP3    H135054   2.256   3.045  13.898  0.3139 -0.1064 -1.2225
 4521TIP3    H235055   2.400   3.048  13.946 -0.4654 -0.7931  1.2385
 4522TIP3   OH235056   5.475   5.562  11.817 -0.8876  0.2132 -0.0358
 4522TIP3    H135057   5.432   5.517  11.744  0.0888 -0.4305 -0.2122
 4522TIP3    H235058   5.481   5.496  11.886  0.9028 -0.0643 -0.4349
 4523TIP3   OH235059   2.438   5.571  15.284  0.2108  0.0717  0.0489
 4523TIP3    H135060   2.425   5.562  15.189  0.1506  1.6427 -0.0944
 4523TIP3    H235061   2.452   5.664  15.298 -3.7808  0.4833  2.0681
 4524TIP3   OH235062   1.472   0.688  11.988  0.4289  0.0431 -0.1616
 4524TIP3    H135063   1.442   0.672  11.899 -0.7720 -0.8388  0.3807
 4524TIP3    H235064   1.451   0.780  12.004 -0.6012 -0.1571 -0.3287
 4525TIP3   OH235065   0.166   1.462  12.666 -0.0171 -0.0614  0.0331
 4525TIP3    H135066   0.188   1.551  12.637 -1.4188  0.0873 -0.5674
 4525TIP3    H235067   0.186   1.407  12.591 -2.9318  0.2364 -1.0113
 4526TIP3   OH235068   6.163   5.279   1.566 -0.2117 -0.0262  0.2084
 4526TIP3    H135069   6.191   5.187   1.565 -0.1493 -0.0103  0.5546
 4526TIP3    H235070   6.213   5.319   1.637  1.4432  0.8175 -1.3898
 4527TIP3   OH235071   3.853   4.988   2.607  0.2253 -0.1151 -0.2043
 4527TIP3    H135072   3.922   5.054   2.616 -1.1028  1.3706 -0.6779
 4527TIP3    H235073   3.899   4.908   2.580  1.9139  0.4682  0.8423
 4528TIP3   OH235074   1.778   1.505   0.104 -0.3128 -0.5245 -0.2832
 4528TIP3    H135075   1.786   1.505   0.008  2.2017 -0.5691 -0.1026
 4528TIP3    H235076   1.794   1.595   0.129 -0.0347 -0.6994  0.1628
 4529TIP3   OH235077   6.479   6.796   3.006  0.2647 -0.3591  0.1120
 4529TIP3    H135078   6.403   6.829   3.055  0.8379  2.2076 -0.6614
 4529TIP3    H235079   6.450   6.712   2.972 -2.0969  0.3558  0.2141
 4530TIP3   OH235080   0.924   6.781  13.520 -0.1450  0.4556 -0.5581
 4530TIP3    H135081   0.911   6.871  13.547 -1.4227  0.0643  0.1594
 4530TIP3    H235082   0.972   6.741  13.593 -0.8067  0.2053 -0.2563
 4531TIP3   OH235083   2.277   0.814   3.525 -0.1717 -0.3345  0.2996
 4531TIP3    H135084   2.264   0.759   3.448 -0.4006 -0.2214  0.2568
 4531TIP3    H235085   2.260   0.755   3.599  0.3838 -0.5312  0.2725
 4532TIP3   OH235086   0.394   4.810  10.837  0.3863 -0.6516  0.4686
 4532TIP3    H135087   0.353   4.892  10.810 -1.4176 -1.4744  0.6002
 4532TIP3    H235088   0.327   4.766  10.890  1.0401 -2.5520 -0.2395
 4533TIP3   OH235089   5.969   0.987   4.551 -0.4780 -0.2249 -0.3123
 4533TIP3    H135090   5.976   0.966   4.645  1.6683 -0.8530 -0.5727
 4533TIP3    H235091   6.041   1.048   4.536 -0.6145 -0.3859 -1.6223
 4534TIP3   OH235092   6.090   3.575   1.572  0.1685 -0.1289  0.4370
 4534TIP3    H135093   6.061   3.665   1.557 -0.1506 -0.1184  1.1089
 4534TIP3    H235094   6.145   3.555   1.496  1.4696  1.1425  1.0158
 4535TIP3   OH235095   5.827   5.974  14.769  0.6700  0.0256  0.4409
 4535TIP3    H135096   5.899   5.999  14.827  0.7127  0.7506  0.0797
 4535TIP3    H235097   5.864   5.977  14.681 -0.1866  1.9195  0.1040
 4536TIP3   OH235098   1.887   2.597   4.084 -0.3498  0.4479  0.5356
 4536TIP3    H135099   1.936   2.543   4.021 -0.0282  0.2741  0.9370
 4536TIP3    H235100   1.946   2.607   4.158 -0.1625  1.8552  0.2194
 4537TIP3   OH235101   2.809   0.945  16.919  0.4856  0.2663 -0.1200
 4537TIP3    H135102   2.796   0.974  17.009 -2.3063  0.6839 -0.6244
 4537TIP3    H235103   2.883   0.998  16.888  0.1769  1.5781  1.2862
 4538TIP3   OH235104   4.697   4.597  17.019 -0.3240  0.4822  0.4161
 4538TIP3    H135105   4.764   4.643  16.968 -0.3321  1.4157  1.2308
 4538TIP3    H235106   4.748   4.546  17.082 -0.3305 -0.2269 -0.1491
 4539TIP3   OH235107   0.802   1.317   6.590  0.7165  0.2200  0.5055
 4539TIP3    H135108   0.739   1.389   6.588  1.3396  0.8077  1.7679
 4539TIP3    H235109   0.862   1.338   6.662  1.8083 -0.7993 -0.0758
 4540TIP3   OH235110   6.455   4.044  15.938  0.5049  0.1447 -0.0841
 4540TIP3    H135111   6.434   4.039  16.031  0.5404  0.7004 -0.0438
 4540TIP3    H235112   6.438   4.135  15.915  2.5464  0.5454 -0.1203
 4541TIP3   OH235113   4.607   4.475  11.603 -0.5794  0.4163  0.2960
 4541TIP3    H135114   4.522   4.506  11.571 -0.5237  1.5699  1.2202
 4541TIP3    H235115   4.616   4.515  11.690 -0.7239 -2.6264  1.7901
 4542TIP3   OH235116   6.656   4.136  14.188  0.7389  0.3237 -0.3269
 4542TIP3    H135117   6.647   4.223  14.148  1.2129 -0.0317 -1.1999
 4542TIP3    H235118   6.566   4.110  14.208  0.6498  1.3399  0.6385
 4543TIP3   OH235119   1.581   5.650  12.334  0.4010  0.5637 -0.3174
 4543TIP3    H135120   1.626   5.686  12.258  0.5151  0.2820 -0.3832
 4543TIP3    H235121   1.584   5.720  12.399 -0.1770  1.0078 -0.7585
 4544TIP3   OH235122   1.406   4.007  13.267 -0.7855 -0.4254 -0.1601
 4544TIP3    H135123   1.420   4.101  13.254 -4.0550  0.3687  1.5962
 4544TIP3    H235124   1.324   3.988  13.222 -0.8168 -2.1809  0.6066
 4545TIP3   OH235125   0.192   5.125   1.471  0.2197 -0.3452  0.2704
 4545TIP3    H135126   0.153   5.129   1.384 -0.9496  0.2897  0.7982
 4545TIP3    H235127   0.161   5.041   1.507 -0.3517 -0.0246  0.5395
 4546TIP3   OH235128   6.076   5.493   1.387  0.2495  0.0568 -0.0052
 4546TIP3    H135129   6.022   5.459   1.316 -0.9507  0.3440  0.7745
 4546TIP3    H235130   6.099   5.416   1.439  1.1102 -0.1507 -0.6798
 4547TIP3   OH235131   0.858   4.991  14.135  0.2916  0.5557  0.0123
 4547TIP3    H135132   0.944   5.027  14.155  0.2594 -0.5888  2.3708
 4547TIP3    H235133   0.810   5.065  14.097  1.4216  1.9721  1.2751
 4548TIP3   OH235134   2.016   5.036  13.633 -0.0646  0.5231  0.4133
 4548TIP3    H135135   2.045   4.973  13.567 -2.1279  0.5067 -0.5012
 4548TIP3    H235136   2.025   4.990  13.716 -1.5634 -0.9949 -0.2485
 4549TIP3   OH235137   3.915   6.093   0.110 -0.5044  0.3944 -0.1454
 4549TIP3    H135138   3.932   6.154   0.182 -0.4207 -0.3558  0.4750
 4549TIP3    H235139   3.981   6.024   0.120  0.1573  0.7968 -1.5413
 4550TIP3   OH235140   4.749   3.809  13.786  0.1313 -0.3879 -0.3003
 4550TIP3    H135141   4.705   3.761  13.716  1.6307 -0.3822 -1.2536
 4550TIP3    H235142   4.842   3.798  13.768  0.5108  1.4462  0.4448
 4551TIP3   OH235143   1.284   3.886  13.789 -0.0853  0.1292  0.1023
 4551TIP3    H135144   1.349   3.947  13.755  0.8772 -0.9748 -0.0789
 4551TIP3    H235145   1.258   3.833  13.713 -1.0685  0.4345  0.2109
 4552TIP3   OH235146   5.447   5.101  13.736 -0.2440 -0.3915 -0.5609
 4552TIP3    H135147   5.461   5.193  13.756 -0.7005 -0.8024  1.8628
 4552TIP3    H235148   5.509   5.081  13.666  1.1980  1.3051  0.1957
 4553TIP3   OH235149   1.713   6.795   2.601  0.0241 -0.3707  0.6406
 4553TIP3    H135150   1.792   6.825   2.646  1.6046 -0.2605 -2.0612
 4553TIP3    H235151   1.672   6.734   2.662  2.1411 -0.3074  2.1728
 4554TIP3   OH235152   0.126   1.378  15.602 -0.1340 -1.1000  0.3869
 4554TIP3    H135153   0.080   1.322  15.664 -2.1185 -0.9604 -0.9412
 4554TIP3    H235154   0.190   1.425  15.655 -0.7479 -2.1325  2.0625
 4555TIP3   OH235155   6.067   3.271  17.020 -0.6265 -0.3340 -0.2444
 4555TIP3    H135156   6.026   3.327  16.954  1.5571  2.8418  1.0228
 4555TIP3    H235157   6.146   3.237  16.976  0.2932  0.9800  0.3713
 4556TIP3   OH235158   1.272   3.508  15.993  0.9710 -0.1859  0.5371
 4556TIP3    H135159   1.350   3.475  15.948  0.5434  0.5215 -0.7575
 4556TIP3    H235160   1.241   3.580  15.938 -1.0460 -0.9525  0.5982
 4557TIP3   OH235161   4.433   5.293   4.914  0.0983 -0.5183  0.0113
 4557TIP3    H135162   4.493   5.346   4.967 -0.3305  1.2381 -1.2303
 4557TIP3    H235163   4.457   5.312   4.824 -1.6019 -0.6338 -0.4867
 4558TIP3   OH235164   0.387   0.258   3.739 -0.2574 -0.5196  0.3614
 4558TIP3    H135165   0.379   0.348   3.770  1.2302 -0.5109  0.7631
 4558TIP3    H235166   0.421   0.267   3.649 -2.7961 -0.6046 -0.6415
 4559TIP3   OH235167   3.318   5.885  13.712 -0.0946  0.1268 -0.1107
 4559TIP3    H135168   3.400   5.927  13.687 -0.3954  1.3383  0.8614
 4559TIP3    H235169   3.339   5.792  13.717  1.8031  0.6096  2.2102
 4560TIP3   OH235170   1.946   0.801   2.755 -0.4865 -0.7298 -0.3219
 4560TIP3    H135171   1.926   0.878   2.806  1.6879 -0.1904 -0.2121
 4560TIP3    H235172   2.042   0.803   2.745 -0.4200 -3.2581 -0.5226
 4561TIP3   OH235173   3.657   5.116   2.745 -0.6751  0.6473  0.4485
 4561TIP3    H135174   3.731   5.063   2.714 -1.1659  0.9558 -1.2914
 4561TIP3    H235175   3.696   5.200   2.769 -0.2131  0.2241  1.2235
 4562TIP3   OH235176   6.182   2.810   2.923  0.1364  0.2271  0.1399
 4562TIP3    H135177   6.156   2.730   2.969 -2.1076  0.6497 -0.3517
 4562TIP3    H235178   6.213   2.779   2.838 -0.6262 -0.1186 -0.0118
 4563TIP3   OH235179   2.795   5.097  12.457 -0.2908  0.2852  0.4569
 4563TIP3    H135180   2.805   5.133  12.369 -1.0185 -1.6546 -0.4303
 4563TIP3    H235181   2.725   5.150  12.497 -0.8046  0.3785 -0.5542
 4564TIP3   OH235182   5.869   4.486   4.208  0.4147  0.0370  0.0177
 4564TIP3    H135183   5.943   4.542   4.232  1.8115 -1.6746 -0.1688
 4564TIP3    H235184   5.832   4.459   4.292  0.9904 -0.3528  0.1550
 4565TIP3   OH235185   2.279   6.545  14.619  0.8136  0.4706  0.1325
 4565TIP3    H135186   2.312   6.635  14.610  0.2522  0.4809 -2.3511
 4565TIP3    H235187   2.357   6.492  14.631  1.0095  1.4904  3.8452
 4566TIP3   OH235188   5.516   3.900  16.677 -0.0463  0.1105 -0.4150
 4566TIP3    H135189   5.590   3.959  16.684 -0.8732  1.5582 -3.1804
 4566TIP3    H235190   5.539   3.841  16.605 -1.3777  0.2853 -0.9948
 4567TIP3   OH235191   6.072   0.454  11.721  0.6534  0.2628 -0.1632
 4567TIP3    H135192   6.128   0.418  11.790  0.6942  0.1443 -0.2605
 4567TIP3    H235193   6.002   0.499  11.769  0.4875 -0.1194 -0.0453
 4568TIP3   OH235194   2.557   0.289  13.051 -0.2194  0.0123  0.3999
 4568TIP3    H135195   2.555   0.277  13.146  0.9212  1.5372  0.6386
 4568TIP3    H235196   2.477   0.337  13.031 -0.3706 -0.1485  0.6206
 4569TIP3   OH235197   3.791   6.267   0.640  0.1108  0.1460  0.2733
 4569TIP3    H135198   3.830   6.238   0.558  1.0285  0.8094  0.4687
 4569TIP3    H235199   3.697   6.275   0.620  0.1486 -0.8693 -0.3563
 4570TIP3   OH235200   4.072   5.823   5.223  0.2687  0.0272  0.4282
 4570TIP3    H135201   4.125   5.788   5.295  0.6804 -0.3227 -0.0390
 4570TIP3    H235202   4.132   5.882   5.176 -0.5178  1.6490  1.4102
 4571TIP3   OH235203   5.747   5.336  17.011  0.4277 -0.1196  0.2027
 4571TIP3    H135204   5.783   5.256  16.973  1.3169  0.5756 -0.4341
 4571TIP3    H235205   5.811   5.363  17.076  1.2864  1.3499 -1.2254
 4572TIP3   OH235206   0.240   0.113   4.374  0.8481  0.7898 -0.0692
 4572TIP3    H135207   0.289   0.103   4.455  3.2681  0.2438 -1.5390
 4572TIP3    H235208   0.239   0.026   4.335 -0.9074  0.8941 -0.2951
 4573TIP3   OH235209   0.798   4.198  15.700 -0.1084 -0.0122 -0.0743
 4573TIP3    H135210   0.768   4.184  15.610 -1.1916 -0.2505  0.3126
 4573TIP3    H235211   0.733   4.153  15.754 -0.2036  1.2469  0.8843
 4574TIP3   OH235212   6.170   5.616  13.239  0.0320 -0.1323  0.2110
 4574TIP3    H135213   6.116   5.609  13.318  0.3425  0.0410  0.4410
 4574TIP3    H235214   6.184   5.525  13.212  1.3785 -0.2869  1.3534
 4575TIP3   OH235215   1.584   0.291   6.522 -0.1493 -0.3713 -0.1597
 4575TIP3    H135216   1.585   0.297   6.617  2.8873 -0.4013 -0.1231
 4575TIP3    H235217   1.507   0.340   6.495 -1.3413 -0.8173  2.3330
 4576TIP3   OH235218   3.548   0.005   4.120  0.2864  0.1170  0.0550
 4576TIP3    H135219   3.608   0.020   4.046  0.8447  2.2395  0.9031
 4576TIP3    H235220   3.510  -0.081   4.103  0.9927  0.2371 -2.3141
 4577TIP3   OH235221   4.621   3.857   5.869  0.1893 -0.4038  0.5602
 4577TIP3    H135222   4.579   3.934   5.907  1.2254  0.1563  0.5744
 4577TIP3    H235223   4.586   3.783   5.920  1.2183  0.2955  2.3125
 4578TIP3   OH235224   2.760   3.488   1.717 -0.1547  0.4512  0.2269
 4578TIP3    H135225   2.817   3.560   1.691  0.1311  1.1167  2.5257
 4578TIP3    H235226   2.694   3.530   1.773 -0.3240 -0.9718  1.1210
 4579TIP3   OH235227   4.721   1.291  13.359  0.1646  0.3856  0.5356
 4579TIP3    H135228   4.779   1.354  13.402 -0.3835  0.1509  1.6429
 4579TIP3    H235229   4.737   1.208  13.405  0.6526 -0.2133 -0.7071
 4580TIP3   OH235230   5.501   1.181   2.438  0.4347 -0.3214  0.2615
 4580TIP3    H135231   5.572   1.120   2.420 -0.9697 -1.7804 -0.4186
 4580TIP3    H235232   5.454   1.189   2.355 -0.0433  0.8446  0.6336
 4581TIP3   OH235233   4.329   3.268  15.859 -0.0207  0.1820  0.0257
 4581TIP3    H135234   4.348   3.181  15.893 -0.8197  0.8096  2.1845
 4581TIP3    H235235   4.404   3.290  15.804  0.1719 -1.8519 -0.5649
 4582TIP3   OH235236   6.194   5.469  12.204 -0.6600 -0.1266 -0.1133
 4582TIP3    H135237   6.105   5.481  12.239 -0.6452 -0.0598 -0.0985
 4582TIP3    H235238   6.198   5.376  12.182 -0.2488 -0.4384  1.2194
 4583TIP3   OH235239   2.748   2.976  14.699  0.8765  0.0275 -0.0243
 4583TIP3    H135240   2.811   3.018  14.758  2.0990 -1.6014 -0.1416
 4583TIP3    H235241   2.680   2.941  14.756  2.0310 -1.4987  0.4423
 4584TIP3   OH235242   1.935   6.611   4.068 -0.4661 -0.0869 -0.1514
 4584TIP3    H135243   1.859   6.659   4.034 -1.5345 -1.6278  0.0336
 4584TIP3    H235244   1.915   6.519   4.052  1.2296 -0.5361  0.1933
 4585TIP3   OH235245   5.756   3.786  15.499  0.2746 -0.4881  0.0843
 4585TIP3    H135246   5.780   3.767  15.408 -1.8439 -1.3534 -0.3214
 4585TIP3    H235247   5.714   3.872  15.495  1.8013  0.2904  0.5409
 4586TIP3   OH235248   0.678   0.874   2.221  0.3811  0.7070 -0.0648
 4586TIP3    H135249   0.597   0.844   2.262  0.3786  1.3997  0.4451
 4586TIP3    H235250   0.677   0.835   2.134  1.2359 -2.2568  1.1903
 4587TIP3   OH235251   2.165   6.179   1.078  0.4721  0.0829 -0.4248
 4587TIP3    H135252   2.201   6.155   0.993  2.3529  2.0512 -0.2424
 4587TIP3    H235253   2.163   6.097   1.128 -1.2817 -1.2083 -2.5501
 4588TIP3   OH235254   6.576   1.714   6.536 -0.0784 -0.0191 -0.6252
 4588TIP3    H135255   6.551   1.646   6.599 -0.8539  0.2886 -0.5973
 4588TIP3    H235256   6.496   1.764   6.522  0.7400  1.4925  0.0723
 4589TIP3   OH235257   1.149   3.685  12.926  0.3520 -0.3702 -0.3608
 4589TIP3    H135258   1.119   3.633  13.001 -0.1856 -0.2008 -0.4531
 4589TIP3    H235259   1.244   3.692  12.937  0.3489 -0.8626 -0.0234
 4590TIP3   OH235260   2.939   0.306  13.642 -0.2380 -0.0290 -0.6578
 4590TIP3    H135261   3.002   0.335  13.577 -0.8169  0.0406 -1.1893
 4590TIP3    H235262   2.887   0.384  13.662 -0.7987 -0.3275 -0.9518
 4591TIP3   OH235263   0.240   4.993  13.093  0.2400  0.0777 -0.1262
 4591TIP3    H135264   0.317   4.980  13.038 -1.8175  1.2854 -3.4578
 4591TIP3    H235265   0.244   5.085  13.118 -0.3859  0.2922 -0.7884
 4592TIP3   OH235266   6.562   2.683  17.137  0.0458  0.3387 -0.1642
 4592TIP3    H135267   6.559   2.587  17.134  1.3711  0.2523  0.7152
 4592TIP3    H235268   6.529   2.705  17.225  3.1378  0.4702  1.0387
 4593TIP3   OH235269   1.346   4.896  15.934  0.0434 -0.7315 -0.6046
 4593TIP3    H135270   1.383   4.923  16.018 -2.7586 -1.0405  0.7744
 4593TIP3    H235271   1.359   4.801  15.932  0.3414 -0.6904 -0.6416
 4594TIP3   OH235272   4.262   5.917  17.247  0.2056  0.1312 -1.0407
 4594TIP3    H135273   4.306   6.002  17.253  0.5438 -0.0683 -0.6619
 4594TIP3    H235274   4.212   5.922  17.166 -2.4849  1.9860  0.6447
 4595TIP3   OH235275   4.879   1.331  14.355 -0.0475  0.3227  0.0511
 4595TIP3    H135276   4.831   1.335  14.272  2.9839 -1.4765 -1.8694
 4595TIP3    H235277   4.878   1.238  14.379 -0.2918  0.7241  1.7291
 4596TIP3   OH235278   3.287   5.228   4.888  0.0783 -0.8769 -0.5259
 4596TIP3    H135279   3.329   5.143   4.880 -0.2064 -1.2003  1.2963
 4596TIP3    H235280   3.328   5.269   4.964 -1.4024 -0.3489  0.0187
 4597TIP3   OH235281   3.402   6.340   4.996 -0.7547  0.1850 -0.0618
 4597TIP3    H135282   3.465   6.329   5.068 -0.7823  0.4279 -0.0014
 4597TIP3    H235283   3.349   6.415   5.022  0.8113  1.8320 -1.4776
 4598TIP3   OH235284   2.654   2.301   0.020  0.1430  0.5292 -0.1538
 4598TIP3    H135285   2.629   2.209   0.013 -0.9987  0.9011 -1.2809
 4598TIP3    H235286   2.582   2.341   0.069  0.6441  0.8272  0.3446
 4599TIP3   OH235287   6.232   0.676  12.377 -0.0413  0.3084  0.1599
 4599TIP3    H135288   6.325   0.678  12.356  0.6249  1.0580  2.9754
 4599TIP3    H235289   6.224   0.726  12.458 -2.7967 -0.3054  0.3375
 4600TIP3   OH235290   1.319   1.990   1.526 -0.0342 -0.0879 -0.3112
 4600TIP3    H135291   1.360   1.916   1.570 -0.2933  0.2180  0.4457
 4600TIP3    H235292   1.354   2.067   1.571 -0.8670  0.2000 -0.1563
 4601TIP3   OH235293   5.584   3.262  10.458 -0.6361 -0.1276 -0.6922
 4601TIP3    H135294   5.660   3.229  10.507  0.9465  2.0213 -1.6444
 4601TIP3    H235295   5.567   3.194  10.393 -0.0826 -1.0296  0.0775
 4602TIP3   OH235296   0.008   0.739   4.763 -0.0608  0.3606 -0.1537
 4602TIP3    H135297  -0.012   0.781   4.679 -0.3950 -1.2041 -0.8742
 4602TIP3    H235298  -0.078   0.726   4.804  0.1255  1.4505  0.6060
 4603TIP3   OH235299   5.051   5.713  17.116 -0.7599  0.1831 -0.0228
 4603TIP3    H135300   5.121   5.681  17.058 -0.6724 -0.7730  0.5939
 4603TIP3    H235301   4.976   5.658  17.095 -0.3138 -1.1742  1.7783
 4604TIP3   OH235302   4.880   3.364   5.867 -0.0134 -0.0404  0.2338
 4604TIP3    H135303   4.971   3.344   5.891 -0.0361 -2.2358 -1.4228
 4604TIP3    H235304   4.835   3.280   5.870 -1.4685  0.6638 -1.2597
 4605TIP3   OH235305   0.614   4.189   5.449  0.1092 -0.0559 -0.1339
 4605TIP3    H135306   0.567   4.175   5.531  0.1936  2.5621  0.4084
 4605TIP3    H235307   0.546   4.185   5.382 -0.1341 -1.0231  0.1498
 4606TIP3   OH235308   5.214   0.801  13.306 -0.3929 -0.3788 -0.3973
 4606TIP3    H135309   5.163   0.852  13.369 -0.1435  0.8474 -1.1854
 4606TIP3    H235310   5.162   0.721  13.293  0.4012 -1.4602  2.6620
 4607TIP3   OH235311   0.304   1.156  16.126 -0.2348 -0.3740 -0.0707
 4607TIP3    H135312   0.393   1.188  16.142 -0.1355 -0.5151 -0.3337
 4607TIP3    H235313   0.310   1.110  16.042 -1.4384  3.1221 -2.1809
 4608TIP3   OH235314   3.675   6.624   0.942  0.2101  0.7545 -0.2583
 4608TIP3    H135315   3.710   6.610   1.030  2.5135 -0.6630 -1.3665
 4608TIP3    H235316   3.604   6.560   0.933 -0.9967  1.8642  1.0445
 4609TIP3   OH235317   2.192   4.577  13.387 -0.4211  0.4366 -0.3283
 4609TIP3    H135318   2.165   4.495  13.346 -0.5150  0.8771 -1.1698
 4609TIP3    H235319   2.272   4.556  13.433 -1.0076 -0.3706  0.3369
 4610TIP3   OH235320   2.785   1.940   3.170 -0.1061  0.1049 -0.5866
 4610TIP3    H135321   2.793   1.958   3.264  0.4762 -1.6185 -0.2945
 4610TIP3    H235322   2.760   1.848   3.165 -0.1258  0.1769 -2.1311
 4611TIP3   OH235323   0.761   2.957   5.045 -0.5074  0.6273 -0.9274
 4611TIP3    H135324   0.757   2.993   4.957  2.2079 -0.7841 -1.6684
 4611TIP3    H235325   0.843   2.907   5.048 -0.1708  1.1939  2.5814
 4612TIP3   OH235326   6.304   0.391   5.855  0.5216 -0.1668  0.1991
 4612TIP3    H135327   6.297   0.451   5.781  3.5380  0.7540  0.6150
 4612TIP3    H235328   6.381   0.337   5.837 -0.4469 -1.9900  1.2410
 4613TIP3   OH235329   2.959   1.163  11.301  0.1368  0.0719 -0.0361
 4613TIP3    H135330   2.888   1.116  11.258  1.1082 -0.0490 -1.5545
 4613TIP3    H235331   2.996   1.100  11.363 -0.0608 -0.3888 -0.3855
 4614TIP3   OH235332   6.480   4.411   2.544  0.4225 -0.2743  0.8665
 4614TIP3    H135333   6.527   4.448   2.619  1.3825 -2.4673  1.3885
 4614TIP3    H235334   6.405   4.366   2.583  0.5560 -0.8535  0.4575
 4615TIP3   OH235335   5.858   2.665   3.201  1.0583 -0.4723 -0.1753
 4615TIP3    H135336   5.918   2.604   3.159 -1.2244 -4.1717  1.7235
 4615TIP3    H235337   5.903   2.693   3.281  2.8361  1.8223 -1.9025
 4616TIP3   OH235338   6.019   2.733  10.466 -0.4205  0.0144 -0.0931
 4616TIP3    H135339   5.970   2.815  10.459  0.1894  0.6399  2.3428
 4616TIP3    H235340   6.096   2.746  10.411 -1.0962  0.4568 -0.9514
 4617TIP3   OH235341   2.781   5.054   4.114  0.1521  0.4330  0.2703
 4617TIP3    H135342   2.869   5.017   4.118  0.9120  2.2379  0.9345
 4617TIP3    H235343   2.793   5.146   4.138 -2.4744 -0.1861  4.6369
 4618TIP3   OH235344   3.656   6.713   2.896 -0.0411  0.4464 -0.0715
 4618TIP3    H135345   3.577   6.756   2.927 -0.0850  1.6114 -1.7565
 4618TIP3    H235346   3.635   6.619   2.900 -2.5506  0.8072 -3.1633
 4619TIP3   OH235347   4.866   2.049   4.090 -0.4575 -0.2795  0.2825
 4619TIP3    H135348   4.850   2.034   3.997  1.2699  0.9686 -0.2417
 4619TIP3    H235349   4.938   1.990   4.111 -0.5112 -0.1890  0.7176
 4620TIP3   OH235350   2.733   3.844  15.358  0.1589 -0.1701  0.0102
 4620TIP3    H135351   2.828   3.843  15.361  0.1678  0.3326 -0.0806
 4620TIP3    H235352   2.706   3.780  15.423  0.5457  0.3587  0.6938
 4621TIP3   OH235353   5.593   0.633  11.327 -0.2001 -0.2324  0.1572
 4621TIP3    H135354   5.636   0.598  11.249 -1.1904  0.3830 -0.6827
 4621TIP3    H235355   5.574   0.724  11.304 -2.1996 -0.5699  0.4100
 4622TIP3   OH235356   2.693   2.269  10.944 -0.2174 -0.1179  0.4988
 4622TIP3    H135357   2.638   2.317  10.883 -0.4342 -0.5710  0.3351
 4622TIP3    H235358   2.783   2.290  10.917 -0.3120 -0.2164  0.1069
 4623TIP3   OH235359   5.501   4.508   2.209  0.0736 -0.3466 -0.3012
 4623TIP3    H135360   5.446   4.430   2.217  2.4113 -2.0431 -0.1199
 4623TIP3    H235361   5.503   4.526   2.115 -0.9607 -0.1396 -0.2870
 4624TIP3   OH235362   3.575   6.743  11.929 -0.0650  0.1488  0.5382
 4624TIP3    H135363   3.483   6.721  11.912  0.4787 -1.6035 -0.2700
 4624TIP3    H235364   3.590   6.823  11.878 -0.9588  0.0841  0.1500
 4625TIP3   OH235365   3.349   5.449   1.445 -0.1651 -0.4483 -0.3452
 4625TIP3    H135366   3.283   5.491   1.390 -1.4314 -1.0974  0.6553
 4625TIP3    H235367   3.433   5.470   1.403 -0.8264  2.2917 -0.3705
 4626TIP3   OH235368   0.418   4.148  12.931  0.0208 -0.6791  0.0525
 4626TIP3    H135369   0.499   4.186  12.896  1.4065 -1.2354  2.5692
 4626TIP3    H235370   0.441   4.058  12.954 -1.9782 -1.5955 -1.4278
 4627TIP3   OH235371   2.799   2.872   5.238  0.3308  0.2863  0.1794
 4627TIP3    H135372   2.823   2.782   5.216  0.1906 -0.2457  2.1915
 4627TIP3    H235373   2.881   2.921   5.230  0.7925 -0.3629  0.8788
 4628TIP3   OH235374   3.184   6.343  16.561  0.0692 -0.7238 -0.2765
 4628TIP3    H135375   3.116   6.411  16.560  1.2004  0.4372 -0.6044
 4628TIP3    H235376   3.136   6.261  16.570 -1.2157  0.2476  2.1202
 4629TIP3   OH235377   3.465   2.747  14.135  0.2125 -0.3833 -1.1196
 4629TIP3    H135378   3.383   2.759  14.182  1.2129  1.2528  0.2845
 4629TIP3    H235379   3.441   2.746  14.043 -1.3795  0.0740 -0.7176
 4630TIP3   OH235380   6.688   3.498   0.713 -0.3595  0.0083  0.4546
 4630TIP3    H135381   6.717   3.589   0.704  0.6560 -0.3858 -0.4176
 4630TIP3    H235382   6.638   3.481   0.633  0.8088 -0.6867 -0.1327
 4631TIP3   OH235383   2.784   4.035   2.080  0.0627 -0.0377  0.2358
 4631TIP3    H135384   2.806   3.958   2.027 -1.8980 -0.5577  0.1363
 4631TIP3    H235385   2.778   4.001   2.170  1.0654  0.3780  0.4623
 4632TIP3   OH235386   5.308   4.703  14.709  0.3121  0.3763  0.2074
 4632TIP3    H135387   5.283   4.710  14.617  0.8854 -0.0452  0.0121
 4632TIP3    H235388   5.401   4.679  14.706  0.1769 -0.2608  0.8831
 4633TIP3   OH235389   5.694   6.020   1.600  0.3123  0.0372 -0.4054
 4633TIP3    H135390   5.615   6.043   1.550  0.5714  0.4047 -0.6461
 4633TIP3    H235391   5.766   6.029   1.537  0.7648  1.5807  0.3324
 4634TIP3   OH235392   0.939   1.198   5.456 -0.2723 -0.5142  0.0956
 4634TIP3    H135393   0.863   1.245   5.491 -0.2823 -0.5884  0.1761
 4634TIP3    H235394   0.947   1.121   5.513  0.6809  0.1861  0.9203
 4635TIP3   OH235395   2.718   4.482   0.154 -0.0569  0.3772  0.2982
 4635TIP3    H135396   2.732   4.509   0.245 -0.4048 -1.5745  0.9711
 4635TIP3    H235397   2.754   4.393   0.150 -0.1208  0.4181 -1.4544
 4636TIP3   OH235398   1.790   3.894  16.156  0.0998  0.2792 -0.8004
 4636TIP3    H135399   1.724   3.826  16.171  0.7340 -0.0336  0.6008
 4636TIP3    H235400   1.865   3.847  16.120  0.5201  0.2352  0.1213
 4637TIP3   OH235401   2.463   6.792  11.907 -0.3381 -0.5703  0.4793
 4637TIP3    H135402   2.445   6.810  11.815 -0.9191 -3.9008 -0.0913
 4637TIP3    H235403   2.379   6.806  11.951  0.2702  2.4818  0.8149
 4638TIP3   OH235404   3.595   1.263   6.570  0.3849 -0.0245 -0.2871
 4638TIP3    H135405   3.676   1.305   6.540  0.5540 -0.2775 -0.1949
 4638TIP3    H235406   3.623   1.207   6.642 -0.5008  3.0877  2.5801
 4639TIP3   OH235407   4.509   3.719   3.012  0.0353 -0.7303  0.2780
 4639TIP3    H135408   4.578   3.780   2.986  0.6173 -1.3630  0.3352
 4639TIP3    H235409   4.430   3.754   2.972  0.7517 -1.1645 -1.5696
 4640TIP3   OH235410   2.263   4.634  16.612 -0.2661  0.0394 -0.2411
 4640TIP3    H135411   2.335   4.583  16.575 -0.5463  0.0958 -0.8714
 4640TIP3    H235412   2.299   4.671  16.692  0.0669 -0.8239  0.0168
 4641TIP3   OH235413   3.200   0.995   4.408 -0.2060  0.0629 -0.8256
 4641TIP3    H135414   3.123   1.042   4.375 -0.0710  1.5607  0.9289
 4641TIP3    H235415   3.201   0.913   4.358 -2.9420  0.0076 -0.8612
 4642TIP3   OH235416   4.055   2.433  14.135 -0.2533 -0.7270 -0.7399
 4642TIP3    H135417   4.130   2.387  14.173  0.3059  0.9839  0.3110
 4642TIP3    H235418   4.017   2.481  14.208  0.9773  2.8266 -2.3393
 4643TIP3   OH235419   2.750   5.338   4.137  0.0746  0.1672 -0.9861
 4643TIP3    H135420   2.829   5.339   4.084 -0.8062  0.7668 -2.3143
 4643TIP3    H235421   2.758   5.414   4.195  1.7167 -1.3161  0.7866
 4644TIP3   OH235422   5.382   0.335  12.185 -0.0619 -0.3903 -0.0356
 4644TIP3    H135423   5.331   0.287  12.119  1.5264 -0.7743 -0.9961
 4644TIP3    H235424   5.463   0.360  12.140  1.1852 -0.9427  1.8466
 4645TIP3   OH235425   6.005   1.139   3.126 -0.2031  0.5387  0.4588
 4645TIP3    H135426   6.056   1.195   3.068  0.2365  0.0174  0.3322
 4645TIP3    H235427   5.989   1.060   3.074  1.5735 -0.6036  1.5922
 4646TIP3   OH235428   6.377   5.671  13.684  0.0887 -0.3553 -0.3246
 4646TIP3    H135429   6.303   5.717  13.723  2.0528  1.1783  1.7518
 4646TIP3    H235430   6.338   5.596  13.639 -2.6820  0.3191  0.8550
 4647TIP3   OH235431   1.545   0.483  14.951 -0.2540  0.1543 -1.0038
 4647TIP3    H135432   1.473   0.423  14.970 -0.4363  0.6646 -0.0463
 4647TIP3    H235433   1.624   0.433  14.975 -0.4303  0.4393  0.2193
 4648TIP3   OH235434   3.845   2.704  11.415  0.6683 -0.1678  0.0197
 4648TIP3    H135435   3.913   2.720  11.350  0.3202  0.4495 -0.1910
 4648TIP3    H235436   3.799   2.787  11.423 -0.1772 -0.6343  0.0307
 4649TIP3   OH235437   5.513   6.449  16.079  0.5056 -0.4119 -0.4094
 4649TIP3    H135438   5.500   6.510  16.152 -0.0799  0.8352 -1.5200
 4649TIP3    H235439   5.596   6.476  16.040  0.1362 -0.1709 -1.0411
 4650TIP3   OH235440   5.479   2.552  14.776 -0.1936 -0.0627  0.5500
 4650TIP3    H135441   5.390   2.545  14.743  0.0133 -0.6977  0.1271
 4650TIP3    H235442   5.491   2.472  14.828  0.2917 -0.2002  0.2219
 4651TIP3   OH235443   2.759   1.109  16.244 -0.6658  0.2841  0.5573
 4651TIP3    H135444   2.738   1.080  16.333 -2.3379  2.6432  0.9743
 4651TIP3    H235445   2.853   1.127  16.246 -0.9790  1.9538  2.3676
 4652TIP3   OH235446   6.449   3.644   4.413 -0.5061  0.3904 -0.1838
 4652TIP3    H135447   6.440   3.690   4.330  0.4740 -1.4912 -1.3643
 4652TIP3    H235448   6.534   3.601   4.408 -0.5517  0.0514  1.6799
 4653TIP3   OH235449   5.326   1.284   5.101 -0.2496 -0.0617  0.1500
 4653TIP3    H135450   5.361   1.309   5.186  0.2942  0.3388 -0.1907
 4653TIP3    H235451   5.376   1.207   5.075 -0.1156  0.0727  0.0011
 4654TIP3   OH235452   1.981   1.388  12.769 -0.2875  0.2852  0.6191
 4654TIP3    H135453   1.925   1.460  12.742  0.6480  0.3493 -1.2038
 4654TIP3    H235454   1.987   1.332  12.692  1.7692  0.0341  0.9459
 4655TIP3   OH235455   1.423   2.024  16.920 -0.6404 -0.1112  1.1374
 4655TIP3    H135456   1.415   2.009  16.826  1.4749  0.7780  0.7743
 4655TIP3    H235457   1.338   2.059  16.947 -0.3188  2.5119 -1.0332
 4656TIP3   OH235458   0.806   0.440   2.775 -0.3812  0.5932  0.1509
 4656TIP3    H135459   0.834   0.379   2.707 -0.8203  1.0549 -0.4399
 4656TIP3    H235460   0.853   0.410   2.853 -1.5246 -1.2476  0.1678
 4657TIP3   OH235461   3.963   1.967  14.317 -0.1808  0.3025  0.3627
 4657TIP3    H135462   3.949   2.035  14.252  0.9581  0.6868  0.4948
 4657TIP3    H235463   3.878   1.956  14.360 -0.7371  0.5867 -0.6605
 4658TIP3   OH235464   0.156   1.815  13.649 -0.5499 -0.0242 -0.4044
 4658TIP3    H135465   0.232   1.837  13.595 -0.9845 -1.2709 -1.5822
 4658TIP3    H235466   0.185   1.829  13.739 -0.3529  3.8431 -0.9652
 4659TIP3   OH235467   0.062   2.853   1.338  0.0916 -0.1635  0.2299
 4659TIP3    H135468   0.053   2.885   1.248 -1.4973 -0.3179  0.3290
 4659TIP3    H235469  -0.028   2.849   1.371  0.3574 -3.5894  0.6359
 4660TIP3   OH235470   1.055   0.100  15.759  0.2326  0.2108 -0.2861
 4660TIP3    H135471   1.135   0.087  15.809  0.2056 -0.7526 -0.4759
 4660TIP3    H235472   1.057   0.192  15.733  1.4962  0.0862 -0.6666
 4661TIP3   OH235473   3.076   3.195  10.683 -0.4017 -0.4693 -0.4974
 4661TIP3    H135474   2.990   3.235  10.667 -0.1662 -0.3451 -1.4595
 4661TIP3    H235475   3.096   3.218  10.774 -2.1663 -1.9960  0.3072
 4662TIP3   OH235476   6.252   4.323   2.664 -0.0303  0.5957 -0.1996
 4662TIP3    H135477   6.251   4.391   2.731 -0.1575 -1.4791  1.9790
 4662TIP3    H235478   6.161   4.296   2.655  0.1038  0.2646 -0.5698
 4663TIP3   OH235479   1.717   0.479   4.317  0.0437 -0.2884  0.2493
 4663TIP3    H135480   1.744   0.477   4.409  1.8851  1.8502 -0.1969
 4663TIP3    H235481   1.771   0.412   4.275  0.8268  0.2920  0.3266
 4664TIP3   OH235482   6.249   0.722   1.536 -0.0076  0.4781  0.0793
 4664TIP3    H135483   6.200   0.762   1.608 -0.0791  0.7412 -0.1113
 4664TIP3    H235484   6.204   0.639   1.519 -0.0432  0.4563  0.2820
 4665TIP3   OH235485   1.484   6.569  12.305 -0.0151 -0.5024  0.8993
 4665TIP3    H135486   1.465   6.531  12.219  1.1079 -1.1314  0.9162
 4665TIP3    H235487   1.564   6.525  12.334  0.2339  0.4877  1.7850
 4666TIP3   OH235488   2.788   6.197  10.920 -0.0254  0.1568  0.0756
 4666TIP3    H135489   2.762   6.229  10.834 -0.7433 -1.4911 -0.3542
 4666TIP3    H235490   2.884   6.197  10.919 -0.0298 -0.5558 -1.0076
 4667TIP3   OH235491   5.252   2.480   0.816 -0.3266  0.0532  0.1119
 4667TIP3    H135492   5.190   2.407   0.816 -2.0115  1.4485  1.3598
 4667TIP3    H235493   5.216   2.542   0.752  1.6235 -0.5834 -1.6958
 4668TIP3   OH235494   6.173   3.201   2.193 -0.1710  0.1714  0.0463
 4668TIP3    H135495   6.131   3.268   2.245 -0.0956  0.4050 -0.1888
 4668TIP3    H235496   6.103   3.166   2.138 -0.6984 -1.4917  1.7326
 4669TIP3   OH235497   3.203   1.346  14.341  0.1500 -0.4176  0.1873
 4669TIP3    H135498   3.154   1.396  14.276  0.2638 -3.5003 -2.3850
 4669TIP3    H235499   3.221   1.409  14.411 -0.5809  2.8332 -2.4139
 4670TIP3   OH235500   0.452   4.278   2.224 -0.1461 -0.2273  0.3092
 4670TIP3    H135501   0.411   4.191   2.221 -1.5891  0.4641 -0.5265
 4670TIP3    H235502   0.381   4.337   2.249 -0.4530  1.4033 -4.0138
 4671TIP3   OH235503   5.360   2.836   0.675  0.0932  0.1423  0.7758
 4671TIP3    H135504   5.425   2.766   0.662  0.6182  0.5149  1.3454
 4671TIP3    H235505   5.314   2.842   0.591  1.3392  0.4158  0.0962
 4672TIP3   OH235506   1.004   1.045   0.150  0.4668 -0.3027 -0.4658
 4672TIP3    H135507   0.924   1.096   0.148 -0.7746 -2.1795  0.2194
 4672TIP3    H235508   0.975   0.955   0.166  2.7181 -0.9557  0.1204
 4673TIP3   OH235509   2.003   0.643   3.917  0.0916  0.0734  0.4636
 4673TIP3    H135510   1.956   0.599   3.846  0.5578  1.6041 -0.8140
 4673TIP3    H235511   2.009   0.734   3.889 -0.1069  0.7942  2.6897
 4674TIP3   OH235512   4.081   4.925  14.220 -0.6439 -0.8591  0.0268
 4674TIP3    H135513   4.121   4.963  14.142 -1.7577  1.7298  0.6797
 4674TIP3    H235514   4.084   4.995  14.285 -1.4379 -2.3771  1.7379
 4675TIP3   OH235515   6.539   5.259  15.844 -0.0599  0.0210 -0.3710
 4675TIP3    H135516   6.562   5.276  15.753  1.3744  1.2679  0.1988
 4675TIP3    H235517   6.497   5.340  15.873  0.5955  0.0841  0.4154
 4676TIP3   OH235518   1.424   2.077  16.189 -0.1265 -0.1143 -0.1248
 4676TIP3    H135519   1.472   2.129  16.124 -1.8234  0.4159 -0.9906
 4676TIP3    H235520   1.389   2.004  16.139 -0.5990 -0.2508  0.4086
 4677TIP3   OH235521   3.450   3.585   1.066 -0.3587  0.3765  0.4797
 4677TIP3    H135522   3.419   3.653   1.126  1.3371  2.1365 -0.5905
 4677TIP3    H235523   3.518   3.539   1.116  0.1327  0.9766  0.3534
 4678TIP3   OH235524   5.384   5.614  11.115 -0.5755  0.5055  0.1402
 4678TIP3    H135525   5.391   5.650  11.026  0.7283  0.1155  0.0747
 4678TIP3    H235526   5.304   5.652  11.150 -1.1468  0.6020 -1.2379
 4679TIP3   OH235527   5.482   5.202  14.798  0.5095 -0.0787 -0.4223
 4679TIP3    H135528   5.555   5.166  14.748  1.3095  0.1116  0.6061
 4679TIP3    H235529   5.485   5.296  14.781 -1.7206 -0.4305 -3.2941
 4680TIP3   OH235530   2.430   0.052   0.977  0.1368  0.0274  0.4064
 4680TIP3    H135531   2.417   0.010   0.892  0.1670  2.2960 -0.7534
 4680TIP3    H235532   2.342   0.067   1.011 -0.0132  2.4988 -0.9640
 4681TIP3   OH235533   4.758   2.604  11.270  0.1705 -0.8796 -0.0613
 4681TIP3    H135534   4.742   2.629  11.361  0.4388  0.4757 -0.3711
 4681TIP3    H235535   4.853   2.610  11.260  0.0055  0.7043 -0.8951
 4682TIP3   OH235536   5.111   0.447   2.966 -0.2155  0.6799 -0.3147
 4682TIP3    H135537   5.202   0.475   2.961 -0.3560  1.5251  1.3949
 4682TIP3    H235538   5.071   0.508   3.029 -1.7809 -0.1152 -0.5189
 4683TIP3   OH235539   4.666   3.324  11.693  0.0309  0.6761 -0.3130
 4683TIP3    H135540   4.734   3.264  11.722 -0.0119  0.1324 -1.3045
 4683TIP3    H235541   4.596   3.314  11.758 -0.7563 -1.7652 -1.4558
 4684TIP3   OH235542   4.849   5.043  13.353  0.3586  0.3583 -0.2183
 4684TIP3    H135543   4.886   4.954  13.355 -0.1991  0.0465 -2.3995
 4684TIP3    H235544   4.792   5.046  13.430  0.5491 -1.1119  0.0084
 4685TIP3   OH235545   2.753   3.969  16.841 -0.1861  0.1734 -0.3017
 4685TIP3    H135546   2.679   3.933  16.891  0.0976 -0.1822 -0.1354
 4685TIP3    H235547   2.714   3.995  16.757 -0.8589  1.7232  0.4806
 4686TIP3   OH235548   1.785   2.898   5.236  0.2578  0.0374  0.4209
 4686TIP3    H135549   1.696   2.870   5.213  1.0662 -0.7255 -1.9119
 4686TIP3    H235550   1.790   2.988   5.206  0.8287 -0.4882 -1.1215
 4687TIP3   OH235551   5.477   0.249  17.078  0.8904  0.4948 -0.2230
 4687TIP3    H135552   5.559   0.294  17.057  0.6825  0.2309 -1.6710
 4687TIP3    H235553   5.416   0.279  17.010  0.4054 -1.0278 -0.4761
 4688TIP3   OH235554   2.004   6.343   5.163 -0.0745 -0.1729  0.8662
 4688TIP3    H135555   2.025   6.254   5.191 -3.3397 -0.5955  2.2321
 4688TIP3    H235556   2.070   6.398   5.207  0.7834 -1.7302  1.5596
 4689TIP3   OH235557   5.627   1.999   5.757 -0.1954  0.1343  0.0993
 4689TIP3    H135558   5.562   2.035   5.697  0.7155  1.1539 -0.3003
 4689TIP3    H235559   5.697   2.064   5.758  1.0657 -1.2015  0.0927
 4690TIP3   OH235560   4.732   0.027  13.112  0.3613  0.4837  0.0969
 4690TIP3    H135561   4.812   0.070  13.083  2.4723 -2.1766  1.6784
 4690TIP3    H235562   4.730  -0.055  13.063 -1.0304  0.2063  0.5824
 4691TIP3   OH235563   6.309   0.999  11.213 -0.2359  0.6529 -0.3342
 4691TIP3    H135564   6.387   0.958  11.175  0.6975  1.7374  0.3568
 4691TIP3    H235565   6.300   1.081  11.164 -1.5210  0.0883 -1.0637
 4692TIP3   OH235566   6.600   4.736  15.634  0.2637 -0.5392  0.6919
 4692TIP3    H135567   6.525   4.676  15.631 -1.1473  1.1440  1.3594
 4692TIP3    H235568   6.649   4.709  15.712  0.7141 -2.0422 -0.0951
 4693TIP3   OH235569   3.736   3.215  12.551  0.4033 -0.1297  0.1272
 4693TIP3    H135570   3.709   3.150  12.616 -1.4479 -0.3280 -0.8079
 4693TIP3    H235571   3.746   3.165  12.470 -0.9704  0.7200 -0.5872
 4694TIP3   OH235572   5.041   3.672  11.627 -0.5047  0.1925 -0.0524
 4694TIP3    H135573   5.061   3.762  11.601 -2.7700  1.3065  1.8371
 4694TIP3    H235574   5.035   3.624  11.544  1.9690  1.4737 -1.0203
 4695TIP3   OH235575   4.994   0.706  12.685  0.1907  0.3811  0.0785
 4695TIP3    H135576   4.958   0.787  12.723 -2.3238 -0.6658  0.0482
 4695TIP3    H235577   5.014   0.728  12.594  3.6861  2.1525  1.1800
 4696TIP3   OH235578   5.506   0.397  16.355 -0.5261 -0.4176 -0.1593
 4696TIP3    H135579   5.470   0.467  16.301  0.4839  0.9179  0.8501
 4696TIP3    H235580   5.469   0.412  16.442 -0.4231 -1.2285  0.0269
 4697TIP3   OH235581   1.173   0.802   2.669 -0.2695 -0.1387  0.8052
 4697TIP3    H135582   1.094   0.856   2.667 -2.0951 -2.7073  1.4023
 4697TIP3    H235583   1.210   0.818   2.756  0.7404  2.2045 -0.0078
 4698TIP3   OH235584   5.041   5.360   5.978  0.1347 -0.0857  0.3736
 4698TIP3    H135585   5.057   5.415   5.901  1.9024 -2.0607 -0.6946
 4698TIP3    H235586   5.125   5.318   5.996 -1.0743 -2.1068  1.4379
 4699TIP3   OH235587   4.857   5.890  12.369  0.0259 -0.6009 -0.1435
 4699TIP3    H135588   4.774   5.906  12.414  0.3402 -1.6890  0.8527
 4699TIP3    H235589   4.831   5.858  12.283 -0.6116 -1.5308  0.3795
 4700TIP3   OH235590   6.452   4.735  16.724  0.3244 -0.0495  0.6508
 4700TIP3    H135591   6.514   4.791  16.676 -0.1683  1.5543  1.8236
 4700TIP3    H235592   6.368   4.754  16.683  0.1658  0.0222  1.0151
 4701TIP3   OH235593   0.596   1.836   3.717  0.4834 -0.2547  0.5878
 4701TIP3    H135594   0.534   1.869   3.782  1.1826 -1.1627  1.7401
 4701TIP3    H235595   0.675   1.816   3.767  1.4439  0.1330 -0.7362
 4702TIP3   OH235596   2.911   2.413   5.754  0.4571 -0.1575 -1.1754
 4702TIP3    H135597   2.892   2.320   5.769  2.0005 -0.1864  0.7495
 4702TIP3    H235598   2.831   2.458   5.782  0.1503 -0.8090 -0.9726
 4703TIP3   OH235599   1.607   0.303   5.708 -0.1413  0.5168 -0.6592
 4703TIP3    H135600   1.546   0.240   5.747 -0.1601  0.2288 -1.1411
 4703TIP3    H235601   1.691   0.283   5.750 -0.1194  0.0796 -0.9038
 4704TIP3   OH235602   6.343   3.018  10.979  0.2435 -0.3984  0.0097
 4704TIP3    H135603   6.374   3.105  10.953 -1.7715  0.8858  1.7700
 4704TIP3    H235604   6.314   2.977  10.897 -0.2537  1.2041 -0.6362
 4705TIP3   OH235605   0.196   5.020  16.457 -0.4929  0.0218  0.0083
 4705TIP3    H135606   0.252   4.943  16.462 -0.3582  0.0240 -1.4430
 4705TIP3    H235607   0.114   4.988  16.419 -0.1044  0.7595 -1.4936
 4706TIP3   OH235608   2.921   0.305   5.297  0.3229  0.8369 -0.4442
 4706TIP3    H135609   2.870   0.384   5.283  0.6790  0.7259 -2.4795
 4706TIP3    H235610   2.900   0.249   5.223 -0.4327 -1.2711  1.3056
 4707TIP3   OH235611   6.694   3.526   4.423  0.0203 -0.2477 -0.3130
 4707TIP3    H135612   6.653   3.464   4.483  0.0306  1.2233  1.2425
 4707TIP3    H235613   6.692   3.481   4.338 -0.3576 -2.1929  0.6798
 4708TIP3   OH235614   2.275   6.352   5.293  0.5392  0.3592  0.0211
 4708TIP3    H135615   2.255   6.259   5.298 -0.5372  0.5788 -0.0553
 4708TIP3    H235616   2.304   6.366   5.203 -0.5967  0.3372 -0.3604
 4709TIP3   OH235617   6.436   2.640   5.535 -0.3748  0.1366 -0.0570
 4709TIP3    H135618   6.388   2.594   5.467  0.0073 -0.6189  0.1744
 4709TIP3    H235619   6.435   2.731   5.508 -2.5550  0.2365  0.3075
 4710TIP3   OH235620   2.829   5.808  13.610 -0.9049  0.3303 -0.1842
 4710TIP3    H135621   2.796   5.827  13.522 -1.5220 -1.5411 -0.3871
 4710TIP3    H235622   2.924   5.815  13.602 -1.0887  3.1405 -0.2503
 4711TIP3   OH235623   2.460   6.616   3.354  0.0275  0.5547 -0.4751
 4711TIP3    H135624   2.517   6.543   3.379  1.0275  1.6644  0.5500
 4711TIP3    H235625   2.464   6.617   3.258 -1.7702 -2.0949 -0.6265
 4712TIP3   OH235626   6.422   3.379   2.188 -0.4232  0.7693 -0.3191
 4712TIP3    H135627   6.460   3.390   2.101 -0.4778  0.2284 -0.4180
 4712TIP3    H235628   6.350   3.317   2.175  0.7483 -0.7889  0.4223
 4713TIP3   OH235629   3.145   0.133   6.632  0.3155  0.3539 -0.1460
 4713TIP3    H135630   3.158   0.068   6.563 -2.1997 -0.9176  0.5036
 4713TIP3    H235631   3.130   0.215   6.585 -0.6098 -0.3565 -1.1151
 4714TIP3   OH235632   3.470   3.486  13.453  0.2310 -0.9803  0.0516
 4714TIP3    H135633   3.416   3.411  13.427  0.6027 -0.7209 -1.5151
 4714TIP3    H235634   3.522   3.506  13.375  0.3526  0.7189  0.5564
 4715TIP3   OH235635   5.141   4.746   3.815 -0.7017  0.1617 -0.1919
 4715TIP3    H135636   5.141   4.796   3.734  0.2507  0.2782 -0.1237
 4715TIP3    H235637   5.065   4.688   3.808  0.2503 -0.9066 -1.8346
 4716TIP3   OH235638   6.113   6.647  13.016 -0.0375  0.3211  0.3276
 4716TIP3    H135639   6.111   6.557  12.984  0.7502  0.4559 -0.0985
 4716TIP3    H235640   6.021   6.673  13.022 -0.3509 -1.0724  2.0364
 4717TIP3   OH235641   4.729   1.375  11.026  0.1214 -0.4392  0.6238
 4717TIP3    H135642   4.664   1.440  11.052  1.1228  0.3908  1.0764
 4717TIP3    H235643   4.813   1.415  11.046  0.8111 -1.1945 -0.6711
 4718TIP3   OH235644   5.907   0.575  16.647  0.0568  0.0093  0.1215
 4718TIP3    H135645   5.816   0.591  16.670  0.4706  1.8264  0.5716
 4718TIP3    H235646   5.907   0.487  16.608 -1.8263 -0.1122  0.3517
 4719TIP3   OH235647   6.114   5.433  11.509  0.0729  0.2725  0.4295
 4719TIP3    H135648   6.172   5.482  11.450  0.1190 -0.9499 -0.5482
 4719TIP3    H235649   6.061   5.501  11.551  0.8396  1.2502 -0.1440
 4720TIP3   OH235650   4.697   1.367   4.085 -0.3796  0.4521 -0.4468
 4720TIP3    H135651   4.672   1.355   3.994  0.7110  0.1575 -0.7172
 4720TIP3    H235652   4.667   1.454   4.108 -1.6617  0.0906 -0.7487
 4721TIP3   OH235653   2.183   2.831   3.268  0.1628  0.0331 -0.4819
 4721TIP3    H135654   2.136   2.811   3.349 -1.4581  0.8557 -1.1885
 4721TIP3    H235655   2.121   2.809   3.199  0.8279  1.1034 -1.4313
 4722TIP3   OH235656   4.695   2.901   1.729  0.2300  0.4224 -0.0481
 4722TIP3    H135657   4.632   2.838   1.693 -0.4651 -0.4649  2.5919
 4722TIP3    H235658   4.644   2.981   1.743 -0.0688  0.0666  0.9923
 4723TIP3   OH235659   6.681   4.057  13.427  0.0931 -0.1987  0.4092
 4723TIP3    H135660   6.670   4.151  13.439  3.3264  0.5173 -1.8187
 4723TIP3    H235661   6.661   4.019  13.513 -0.0457  2.5990  1.6461
 4724TIP3   OH235662   3.530   5.701   0.103  0.4048 -0.8636 -0.3203
 4724TIP3    H135663   3.617   5.724   0.134 -0.5491  0.8610  1.1942
 4724TIP3    H235664   3.511   5.766   0.035  0.0875 -0.8809 -0.2512
 4725TIP3   OH235665   1.668   3.472   2.774 -0.1707 -0.1581 -0.6793
 4725TIP3    H135666   1.734   3.409   2.803 -0.5612 -0.9012 -1.3778
 4725TIP3    H235667   1.652   3.527   2.850 -0.1922 -1.2139  0.0855
 4726TIP3   OH235668   4.429   1.741  16.688 -0.6533 -0.0294  0.3926
 4726TIP3    H135669   4.417   1.678  16.617 -0.6559  1.2012 -0.7406
 4726TIP3    H235670   4.416   1.826  16.646  0.4483  0.7761  1.6344
 4727TIP3   OH235671   2.359   0.739  16.035 -0.2556 -0.2387 -0.2302
 4727TIP3    H135672   2.338   0.831  16.022  0.8892 -0.0490 -0.7489
 4727TIP3    H235673   2.273   0.696  16.041 -0.8045  0.6896 -1.1815
 4728TIP3   OH235674   1.785   6.166  12.958  0.0486 -0.1813 -0.2507
 4728TIP3    H135675   1.751   6.126  13.039  0.0063 -2.1995 -1.2234
 4728TIP3    H235676   1.815   6.253  12.985 -0.4558 -0.6108  1.8248
 4729TIP3   OH235677   5.451   3.616   2.066 -0.1689 -0.9410  0.0968
 4729TIP3    H135678   5.379   3.564   2.030 -0.7854  0.4612 -0.7702
 4729TIP3    H235679   5.512   3.627   1.992 -0.0888 -0.3772  0.2399
 4730TIP3   OH235680   2.499   0.219   3.284  0.1759  0.4814 -0.2457
 4730TIP3    H135681   2.544   0.191   3.205  1.5490  0.6528  0.4533
 4730TIP3    H235682   2.517   0.149   3.348 -1.2627  0.1400 -0.1991
 4731TIP3   OH235683   3.883   4.892   3.530 -0.1329  0.0197  0.1028
 4731TIP3    H135684   3.892   4.809   3.576 -0.2328  0.0658  0.2063
 4731TIP3    H235685   3.878   4.869   3.438 -0.1771 -0.0896  0.1331
 4732TIP3   OH235686   2.533   2.292  15.701  0.1438 -0.0054  0.2295
 4732TIP3    H135687   2.567   2.209  15.667  0.6713 -0.7939  2.5841
 4732TIP3    H235688   2.449   2.304  15.656 -0.2523 -2.1447  0.3449
 4733TIP3   OH235689   6.706   0.770   2.339 -0.2586  0.0097  0.3312
 4733TIP3    H135690   6.801   0.777   2.346 -0.3339  2.2912 -0.3318
 4733TIP3    H235691   6.677   0.860   2.325 -2.6722 -0.4128  2.2811
 4734TIP3   OH235692   6.471   5.233   1.535  0.0129 -0.5245  0.8116
 4734TIP3    H135693   6.562   5.234   1.563 -0.1063  0.9185  1.1774
 4734TIP3    H235694   6.464   5.303   1.470 -0.6255 -1.2220  0.1218
 4735TIP3   OH235695   0.146   5.543  11.797  0.3146 -0.4955  0.3349
 4735TIP3    H135696   0.150   5.557  11.892 -1.9014 -0.5026  0.4586
 4735TIP3    H235697   0.237   5.548  11.768  1.0923 -1.1655  2.5562
 4736TIP3   OH235698   5.214   1.051   1.349  0.2066  0.0173  0.0923
 4736TIP3    H135699   5.262   1.023   1.272  1.7976  0.9060  0.7461
 4736TIP3    H235700   5.280   1.063   1.417 -0.8504  1.7731  0.8665
 4737TIP3   OH235701   1.886   2.992  13.704 -0.1708  0.2107  0.5852
 4737TIP3    H135702   1.817   2.928  13.684  0.9478 -2.1337  3.8747
 4737TIP3    H235703   1.967   2.949  13.677  0.4118  1.1810  0.7726
 4738TIP3   OH235704   5.847   5.142   2.634  0.5447 -0.3632 -0.1971
 4738TIP3    H135705   5.818   5.058   2.671 -1.8538  0.0063 -1.1417
 4738TIP3    H235706   5.813   5.208   2.695  0.8235  0.0175 -0.4497
 4739TIP3   OH235707   1.376   1.114   3.275 -0.3249  0.2819  0.0402
 4739TIP3    H135708   1.298   1.164   3.298 -1.1748 -0.5073 -1.0949
 4739TIP3    H235709   1.437   1.179   3.240 -1.2743  0.5885 -1.0787
 4740TIP3   OH235710   3.691   2.435   0.189 -0.3172  0.1760  0.4857
 4740TIP3    H135711   3.714   2.363   0.130  0.4304  0.1665  0.7770
 4740TIP3    H235712   3.708   2.400   0.277  0.9198  1.0109  0.5832
 4741TIP3   OH235713   6.774   4.446  11.890  0.2610  0.0421 -0.4735
 4741TIP3    H135714   6.807   4.374  11.944 -0.9769 -1.9117 -2.2310
 4741TIP3    H235715   6.689   4.468  11.929  0.7169  0.6915  0.1673
 4742TIP3   OH235716   3.523   6.015  11.500  0.6055  0.0657 -0.2132
 4742TIP3    H135717   3.440   6.063  11.491  1.1190  0.9048 -0.5095
 4742TIP3    H235718   3.542   6.017  11.594  1.2449  1.5007 -0.3686
 4743TIP3   OH235719   0.101   1.628  12.885  0.6592  0.2254 -0.2549
 4743TIP3    H135720   0.109   1.539  12.851 -0.1710  0.6997 -1.7305
 4743TIP3    H235721   0.162   1.680  12.833 -0.5310  0.9380 -0.9531
 4744TIP3   OH235722   4.397   5.294   3.568 -0.3653  0.6875  0.3163
 4744TIP3    H135723   4.476   5.243   3.550 -0.6248  0.2438  0.4387
 4744TIP3    H235724   4.405   5.370   3.510  0.3621  0.8641  0.6443
 4745TIP3   OH235725   3.537   2.204   1.552  0.0810  0.4762 -0.3871
 4745TIP3    H135726   3.526   2.298   1.567  2.1895  0.3924  1.8871
 4745TIP3    H235727   3.557   2.168   1.638 -0.9171 -2.1165 -1.1874
 4746TIP3   OH235728   1.638   6.783   5.948  0.1608  0.0115  0.2180
 4746TIP3    H135729   1.601   6.850   5.891  0.2764 -1.5670 -1.8117
 4746TIP3    H235730   1.563   6.730   5.974  0.4581 -0.9039 -0.7495
 4747TIP3   OH235731   5.033   0.435   1.406  0.3519 -0.0944 -0.0180
 4747TIP3    H135732   5.129   0.430   1.408  0.3183  0.0114  1.9873
 4747TIP3    H235733   5.006   0.437   1.497 -1.6489 -1.1833 -0.5567
 4748TIP3   OH235734   3.839   3.177  16.360  0.0582 -0.6521 -0.1834
 4748TIP3    H135735   3.915   3.155  16.306  0.1719  1.0247 -0.7475
 4748TIP3    H235736   3.767   3.125  16.324  0.5096 -0.7921 -0.8858
 4749TIP3   OH235737   4.058   4.804  16.539 -0.0347 -0.4840  0.3825
 4749TIP3    H135738   4.010   4.777  16.617 -0.8820  0.6455  0.2508
 4749TIP3    H235739   4.030   4.893  16.522  1.8997  0.1075  0.1351
 4750TIP3   OH235740   4.453   5.407  11.851 -0.1917 -0.2495  0.0696
 4750TIP3    H135741   4.414   5.436  11.934 -0.5949  0.7436 -0.4604
 4750TIP3    H235742   4.545   5.430  11.859 -0.2234 -0.1844  0.2576
 4751TIP3   OH235743   3.569   5.787   2.342  0.0530  0.7377  0.3844
 4751TIP3    H135744   3.506   5.790   2.414 -1.5423  2.2650 -1.0489
 4751TIP3    H235745   3.542   5.858   2.283  0.8550 -0.9698 -2.1106
 4752TIP3   OH235746   5.174   1.920  14.540 -0.4642  0.3654  0.5199
 4752TIP3    H135747   5.084   1.888  14.550 -0.4247 -0.2946 -1.1204
 4752TIP3    H235748   5.182   1.989  14.606 -1.6120 -0.7547  1.8420
 4753TIP3   OH235749   0.721   4.805  12.125  0.2604  0.0018  0.0590
 4753TIP3    H135750   0.804   4.783  12.167  0.7683  2.3541  0.3629
 4753TIP3    H235751   0.654   4.769  12.183  1.0449 -0.5851  0.6029
 4754TIP3   OH235752   6.283   5.343  13.778 -0.0373 -0.2487  0.1180
 4754TIP3    H135753   6.334   5.364  13.700  1.0632  0.0195  0.8857
 4754TIP3    H235754   6.348   5.345  13.849 -0.9210 -1.0110  0.9519
 4755TIP3   OH235755   4.560   5.003   0.189  0.1893 -0.1853  0.0300
 4755TIP3    H135756   4.495   4.963   0.131  1.8996 -1.3402 -1.1180
 4755TIP3    H235757   4.510   5.026   0.268 -1.3140 -2.4308 -0.2133
 4756TIP3   OH235758   6.719   3.284   3.241 -0.1210 -0.1436 -0.1726
 4756TIP3    H135759   6.722   3.358   3.302  2.5459  0.6197 -1.1969
 4756TIP3    H235760   6.666   3.317   3.168 -1.2761 -0.2346  0.5972
 4757TIP3   OH235761   3.008   3.988  15.065 -0.0834 -0.3697 -0.7174
 4757TIP3    H135762   3.102   3.987  15.047  0.5789  2.1274  2.2448
 4757TIP3    H235763   2.976   4.069  15.024  0.0126  1.2920  2.3523
 4758TIP3   OH235764   0.291   4.233  16.895  0.6077 -0.1231  0.1207
 4758TIP3    H135765   0.355   4.303  16.904 -0.1710  0.9131 -1.9273
 4758TIP3    H235766   0.309   4.174  16.968  4.2341 -0.1690 -0.7309
 4759TIP3   OH235767   5.079   6.180  14.579  0.0915  0.2620 -0.2635
 4759TIP3    H135768   5.016   6.169  14.651  0.8000  0.7543  0.4483
 4759TIP3    H235769   5.059   6.109  14.519  0.0691 -0.7169  0.8723
 4760TIP3   OH235770   1.700   2.705  16.906  0.3975  0.4472  0.3425
 4760TIP3    H135771   1.618   2.661  16.927  0.2918  0.9755  1.0220
 4760TIP3    H235772   1.684   2.745  16.820  0.7078 -1.3803 -0.5908
 4761TIP3   OH235773   0.056   1.951  11.791  0.6279  0.2362 -0.0529
 4761TIP3    H135774   0.123   1.911  11.735  1.9800  0.8556  1.0698
 4761TIP3    H235775   0.064   1.903  11.874 -0.3724  0.2762  0.0653
 4762TIP3   OH235776   1.114   5.106  13.929 -0.2100 -0.2504  0.0251
 4762TIP3    H135777   1.129   5.168  13.857  0.8203  0.2383  0.6486
 4762TIP3    H235778   1.145   5.152  14.007  1.1216 -1.7680  0.4263
 4763TIP3   OH235779   4.612   3.493   4.941 -0.1009 -0.2310 -0.6439
 4763TIP3    H135780   4.597   3.518   5.032  1.1616  0.2743 -0.5521
 4763TIP3    H235781   4.631   3.399   4.943  2.5945  0.2698 -0.0093
 4764TIP3   OH235782   4.686   3.416  13.826 -0.2929  0.2148  0.2782
 4764TIP3    H135783   4.631   3.345  13.792 -1.2922  1.2113 -0.2389
 4764TIP3    H235784   4.671   3.416  13.920 -0.6011  0.0005  0.2277
 4765TIP3   OH235785   5.394   1.298  13.895 -0.7040 -0.3429  0.2071
 4765TIP3    H135786   5.463   1.295  13.961 -1.4040 -0.1044  0.9605
 4765TIP3    H235787   5.312   1.299  13.945 -1.2788 -1.3672 -0.6856
 4766TIP3   OH235788   1.709   4.649  12.227 -0.1112  0.7339 -0.0657
 4766TIP3    H135789   1.692   4.672  12.135  0.8491 -0.8633 -0.6556
 4766TIP3    H235790   1.713   4.554  12.228  1.2448  0.7821  1.3940
 4767TIP3   OH235791   4.757   4.654   1.835 -0.2998  0.1284 -0.0380
 4767TIP3    H135792   4.669   4.684   1.813  0.1864  2.1070  0.6171
 4767TIP3    H235793   4.745   4.593   1.908 -1.0513  1.2085  0.7543
 4768TIP3   OH235794   6.648   5.748   4.488  0.2805  0.1249  0.0104
 4768TIP3    H135795   6.668   5.841   4.489 -0.0729  0.2227 -0.9967
 4768TIP3    H235796   6.633   5.725   4.579  0.0565  1.1177  0.2276
 4769TIP3   OH235797   4.384   1.779  12.127  0.2006  0.1805  0.0400
 4769TIP3    H135798   4.426   1.715  12.069 -1.1909 -1.1178  0.4207
 4769TIP3    H235799   4.436   1.858  12.117  1.1394 -0.6034 -1.5123
 4770TIP3   OH235800   5.008   2.205   3.471 -0.2277 -0.3942 -0.2056
 4770TIP3    H135801   5.056   2.200   3.388  1.3984  1.2079  0.6194
 4770TIP3    H235802   5.012   2.298   3.496 -2.5133 -0.4776  0.6302
 4771TIP3   OH235803   1.912   1.254  15.713  0.5826  0.2702 -0.0507
 4771TIP3    H135804   1.822   1.223  15.726  0.3632  0.8335 -0.1978
 4771TIP3    H235805   1.904   1.350  15.711  0.6716  0.2906 -3.5430
 4772TIP3   OH235806   1.502   2.060   5.246 -0.1184 -0.5252  0.5803
 4772TIP3    H135807   1.530   1.994   5.309  0.6048 -1.2467 -0.4782
 4772TIP3    H235808   1.583   2.087   5.201 -0.6701 -0.3004 -0.3009
 4773TIP3   OH235809   6.764   2.043  13.694  0.0734 -0.2856 -0.3540
 4773TIP3    H135810   6.739   2.004  13.611  0.4188 -2.2554  0.4370
 4773TIP3    H235811   6.844   1.997  13.720 -1.2924 -1.4117  2.1611
 4774TIP3   OH235812   5.516   2.586  15.419 -0.7991  0.8134  0.1375
 4774TIP3    H135813   5.482   2.499  15.398  0.8368 -0.4323  2.4051
 4774TIP3    H235814   5.542   2.623  15.335 -2.9174 -0.2456 -1.0354
 4775TIP3   OH235815   2.217   6.481  11.545 -0.2830 -0.2868  0.9373
 4775TIP3    H135816   2.306   6.515  11.555 -0.5860  0.3226  1.7065
 4775TIP3    H235817   2.220   6.428  11.466  0.8920 -0.6830  1.2287
 4776TIP3   OH235818   1.293   0.494   5.657  0.1171  0.0432  0.2976
 4776TIP3    H135819   1.380   0.526   5.681 -0.0613  1.1613 -0.5235
 4776TIP3    H235820   1.272   0.540   5.575 -0.9279 -0.7842  0.0903
 4777TIP3   OH235821   1.240   1.340  16.537  0.1854  0.2268  0.4405
 4777TIP3    H135822   1.294   1.276  16.584 -1.3596 -0.0817  1.8405
 4777TIP3    H235823   1.206   1.397  16.606 -3.1159 -0.9614 -0.1233
 4778TIP3   OH235824   1.439   3.355  13.534 -0.3215 -0.2009 -0.1780
 4778TIP3    H135825   1.431   3.449  13.549 -0.4822  0.1194 -2.1223
 4778TIP3    H235826   1.377   3.315  13.596 -2.1808  1.1362 -1.1158
 4779TIP3   OH235827   3.165   0.598   5.485 -0.0601  0.1359 -0.2533
 4779TIP3    H135828   3.136   0.679   5.526  0.5214 -0.0624  0.5463
 4779TIP3    H235829   3.144   0.610   5.392  0.4104  1.3612 -0.2076
 4780TIP3   OH235830   0.490   5.808   3.618  0.5055 -0.3949  0.1315
 4780TIP3    H135831   0.584   5.793   3.613  0.6729  0.4544  0.6061
 4780TIP3    H235832   0.467   5.786   3.709  0.6709  1.6733  0.6943
 4781TIP3   OH235833   3.914   6.576   3.818 -0.1972 -0.1047  0.2845
 4781TIP3    H135834   3.875   6.652   3.773 -3.3071 -0.7631  1.7155
 4781TIP3    H235835   3.965   6.614   3.889  1.6009  0.7697 -1.4141
 4782TIP3   OH235836   1.861   0.613   1.057  0.7529  0.2980  0.1893
 4782TIP3    H135837   1.839   0.569   0.974 -0.4334  0.4797  0.3946
 4782TIP3    H235838   1.854   0.544   1.123  1.0802  0.2972  0.2246
 4783TIP3   OH235839   1.351   0.756  15.550  0.6390 -0.2256  0.3467
 4783TIP3    H135840   1.445   0.757  15.530  0.6838 -1.3208  0.4642
 4783TIP3    H235841   1.320   0.672  15.515 -0.4690  0.5204 -0.4666
 4784TIP3   OH235842   5.169   2.926   2.662 -0.2256 -0.0410 -0.4148
 4784TIP3    H135843   5.181   3.000   2.603 -0.1108  0.8623  0.7199
 4784TIP3    H235844   5.247   2.926   2.717 -0.9371 -0.0425  0.6162
 4785TIP3   OH235845   3.369   1.514  11.641 -0.1277 -0.3288 -0.4463
 4785TIP3    H135846   3.342   1.441  11.695  1.5332 -0.2922  0.4742
 4785TIP3    H235847   3.336   1.493  11.553 -0.9108 -1.4567  0.1052
 4786TIP3   OH235848   2.670   5.254  15.352  0.0910 -0.1431  0.4790
 4786TIP3    H135849   2.624   5.335  15.375  0.7153 -0.0562  1.4552
 4786TIP3    H235850   2.644   5.191  15.419  0.8869 -0.2776  0.6630
 4787TIP3   OH235851   0.504   0.700   2.706 -0.1658  0.3488 -0.4274
 4787TIP3    H135852   0.510   0.606   2.722  0.1026  0.5753  0.8182
 4787TIP3    H235853   0.482   0.738   2.791 -0.7276  1.3722 -1.0179
 4788TIP3   OH235854   4.523   1.532  12.045 -0.2566 -0.6490  0.4099
 4788TIP3    H135855   4.535   1.555  11.953 -0.0290  0.2733  0.6635
 4788TIP3    H235856   4.605   1.488  12.069 -0.3641 -0.9966  0.1438
 4789TIP3   OH235857   0.689   4.702  16.131 -0.2460 -0.0165 -0.1537
 4789TIP3    H135858   0.693   4.708  16.036 -1.4008  2.0363 -0.1303
 4789TIP3    H235859   0.601   4.668  16.149 -0.7715  1.4729  0.1934
 4790TIP3   OH235860   0.923   4.058   3.048  0.2612  0.3075 -0.2414
 4790TIP3    H135861   0.867   4.015   3.113 -0.4819  2.0125  0.3001
 4790TIP3    H235862   0.911   4.007   2.968 -4.0099  1.9496 -0.8233
 4791TIP3   OH235863   3.140   3.539   3.684 -0.4290 -0.2388 -0.1423
 4791TIP3    H135864   3.116   3.573   3.770 -1.8714 -0.0113 -0.6136
 4791TIP3    H235865   3.121   3.611   3.623  0.3252 -0.4876 -0.6829
 4792TIP3   OH235866   4.621   1.592  13.624 -0.0432 -0.1354  0.9299
 4792TIP3    H135867   4.708   1.556  13.641  0.1651 -0.0471  0.0612
 4792TIP3    H235868   4.635   1.659  13.558 -1.0302 -1.4366 -0.6432
 4793TIP3   OH235869   5.281   2.571  16.150 -0.0712  0.1256 -0.1747
 4793TIP3    H135870   5.193   2.533  16.160 -0.0133 -0.7049 -2.5268
 4793TIP3    H235871   5.270   2.639  16.084  1.0158  0.2062 -0.2699
 4794TIP3   OH235872   2.320   5.422   2.319  0.0940  0.1751 -0.1267
 4794TIP3    H135873   2.339   5.438   2.226  0.4115  2.8785  0.3478
 4794TIP3    H235874   2.352   5.501   2.363 -2.4055  0.0668  1.9698
 4795TIP3   OH235875   1.553   4.376  14.015  0.0992 -0.2442 -0.0834
 4795TIP3    H135876   1.521   4.351  13.928  1.3042  1.6298 -1.0853
 4795TIP3    H235877   1.631   4.429  13.999 -0.3261  1.1342  2.0998
 4796TIP3   OH235878   0.404   0.388   5.397 -0.6906 -0.1499 -0.1831
 4796TIP3    H135879   0.450   0.438   5.331  2.1911 -1.8175  0.4765
 4796TIP3    H235880   0.367   0.313   5.349 -1.9936  0.6961 -0.5421
 4797TIP3   OH235881   0.732   3.823  13.043  0.6160  0.6578 -0.1017
 4797TIP3    H135882   0.703   3.779  12.964 -1.1427 -0.6764  1.2517
 4797TIP3    H235883   0.730   3.756  13.111  1.0261  2.0242  1.3024
 4798TIP3   OH235884   5.131   6.352   1.502 -0.3688 -0.4500 -0.0434
 4798TIP3    H135885   5.166   6.440   1.507  0.4593 -0.8545  1.5542
 4798TIP3    H235886   5.187   6.308   1.438 -0.0370 -0.1571  0.0446
 4799TIP3   OH235887   1.810   3.783  13.881  0.3763 -0.1246  0.2389
 4799TIP3    H135888   1.903   3.799  13.862 -0.1104  1.3609 -0.9572
 4799TIP3    H235889   1.777   3.866  13.914 -0.5962 -0.5670  0.4068
 4800TIP3   OH235890   5.264   1.613  16.769  0.2864 -0.2985  0.0935
 4800TIP3    H135891   5.344   1.649  16.807  0.9494  0.6535 -2.1044
 4800TIP3    H235892   5.291   1.529  16.731 -0.5836 -1.7107  2.5012
 4801TIP3   OH235893   5.706   6.299   5.048  0.1301  0.3211 -0.3208
 4801TIP3    H135894   5.675   6.251   4.972  0.2954 -0.1211 -0.1113
 4801TIP3    H235895   5.631   6.351   5.076  0.1368  0.6593 -0.9186
 4802TIP3   OH235896   5.514   5.715  11.405  0.3711 -0.4768 -0.1173
 4802TIP3    H135897   5.547   5.669  11.482  2.0589 -0.7336 -0.9860
 4802TIP3    H235898   5.588   5.719  11.345 -0.3539  1.5184 -0.9205
 4803TIP3   OH235899   6.278   4.102   1.188  0.3409  0.0928  0.1874
 4803TIP3    H135900   6.359   4.148   1.207  0.3838 -0.0120  0.2619
 4803TIP3    H235901   6.273   4.100   1.092  0.6469 -0.2815  0.1768
 4804TIP3   OH235902   5.424   6.603   0.925  0.0087 -0.0151  0.5050
 4804TIP3    H135903   5.447   6.572   0.837 -0.5226  0.4540  0.1943
 4804TIP3    H235904   5.328   6.609   0.923 -0.1678 -1.9735  1.7810
 4805TIP3   OH235905   6.000   6.790  15.016 -0.0127  0.0888  0.4392
 4805TIP3    H135906   5.936   6.810  15.084  0.7703 -0.0414  1.2121
 4805TIP3    H235907   6.064   6.861  15.021  0.7000 -0.5679  0.6492
 4806TIP3   OH235908   4.058   1.102  11.069  0.4230 -0.1950 -0.0511
 4806TIP3    H135909   4.147   1.082  11.038  0.5868  1.8092 -0.9088
 4806TIP3    H235910   4.003   1.096  10.991  0.5419  3.0324 -0.4319
 4807TIP3   OH235911   5.590   0.705   5.429  0.6886 -0.2988 -0.2323
 4807TIP3    H135912   5.563   0.631   5.375 -1.0999  1.1037 -1.2983
 4807TIP3    H235913   5.515   0.722   5.486  1.1947  0.4995  0.2076
 4808TIP3   OH235914   0.115   4.658   4.816 -0.6443 -0.1367  0.1281
 4808TIP3    H135915   0.040   4.625   4.767 -1.6259  2.8827 -0.5471
 4808TIP3    H235916   0.188   4.654   4.754  0.3303 -4.9896  1.4180
 4809TIP3   OH235917   0.697   1.628  16.085  0.1971  0.2053 -0.0206
 4809TIP3    H135918   0.771   1.611  16.027  0.1576 -0.8550  0.2221
 4809TIP3    H235919   0.625   1.650  16.025  0.3155 -0.2715 -0.3423
 4810TIP3   OH235920   2.020   1.445   5.448  0.2029 -0.3495 -0.2211
 4810TIP3    H135921   1.978   1.501   5.514 -1.7247 -1.1894 -0.7092
 4810TIP3    H235922   1.948   1.416   5.392  1.7548  0.0632 -2.5080
 4811TIP3   OH235923   0.617   2.750   0.200  0.1478 -0.2668  0.1273
 4811TIP3    H135924   0.574   2.690   0.139  2.2100 -0.9816 -0.6702
 4811TIP3    H235925   0.709   2.725   0.196  0.4973  0.5790  2.5422
 4812TIP3   OH235926   3.055   0.016   1.393 -0.0602 -0.2416 -0.5836
 4812TIP3    H135927   3.079   0.044   1.481 -0.0073  1.0305 -0.9949
 4812TIP3    H235928   3.042  -0.079   1.400 -0.4302 -0.0841  0.8680
 4813TIP3   OH235929   1.180   4.316  12.790  0.0975  0.0434  0.0469
 4813TIP3    H135930   1.207   4.319  12.699  0.2000  2.3367  0.1014
 4813TIP3    H235931   1.204   4.229  12.820 -0.3831 -0.8965 -2.2396
 4814TIP3   OH235932   3.990   4.811   0.358 -0.1991  0.0585 -0.3197
 4814TIP3    H135933   3.943   4.866   0.420 -2.0493 -1.6182 -0.1671
 4814TIP3    H235934   3.978   4.855   0.274 -0.7510  0.4758 -0.0308
 4815TIP3   OH235935   6.082   5.416  15.046  0.4400 -0.2022  0.3662
 4815TIP3    H135936   6.123   5.362  14.979 -0.3451 -1.0862  0.5946
 4815TIP3    H235937   5.988   5.408  15.030  0.3223  1.2906  0.2466
 4816TIP3   OH235938   4.845   4.054   0.535 -0.3096 -0.1414  0.4643
 4816TIP3    H135939   4.832   4.147   0.513 -2.7989 -0.4159  0.6766
 4816TIP3    H235940   4.790   4.007   0.473  1.6431 -1.5724 -0.2436
 4817TIP3   OH235941   4.306   0.400  11.691  0.3240 -0.5660  0.3934
 4817TIP3    H135942   4.289   0.309  11.666 -0.3773  0.1711 -1.9851
 4817TIP3    H235943   4.234   0.422  11.750  0.5162 -1.5576  1.0175
 4818TIP3   OH235944   1.155   4.502  13.388  0.6664  0.2715 -0.3212
 4818TIP3    H135945   1.200   4.497  13.472  1.5895 -1.5863 -0.9079
 4818TIP3    H235946   1.102   4.582  13.394  0.6108  0.0963  2.0729
 4819TIP3   OH235947   3.091   3.785   6.193  0.2611 -0.4352 -0.0705
 4819TIP3    H135948   2.997   3.781   6.211  0.2409  0.3016 -0.0031
 4819TIP3    H235949   3.106   3.875   6.164  0.8237 -0.7500 -0.7901
 4820TIP3   OH235950   1.987   0.881  11.097  0.1489  0.1710 -0.0127
 4820TIP3    H135951   2.040   0.804  11.077  1.9553  0.8677  1.9368
 4820TIP3    H235952   2.043   0.955  11.075 -1.0342  0.9417 -0.4767
 4821TIP3   OH235953   1.490   2.138   2.993 -0.7705 -0.3159 -0.0211
 4821TIP3    H135954   1.483   2.106   3.082 -0.6235 -0.9046 -0.2188
 4821TIP3    H235955   1.559   2.084   2.953 -1.3266 -0.5334 -0.6987
 4822TIP3   OH235956   5.351   0.417  16.798  0.1827 -0.2205  0.0678
 4822TIP3    H135957   5.273   0.393  16.848 -0.5453 -0.4138 -1.1389
 4822TIP3    H235958   5.359   0.349  16.732 -0.1875  1.2585 -1.5203
 4823TIP3   OH235959   4.102   1.866   4.135 -0.0508  0.1416 -0.3221
 4823TIP3    H135960   4.030   1.914   4.178  1.4283  1.5264  0.6653
 4823TIP3    H235961   4.170   1.932   4.122  0.6067 -0.9028 -2.3146
 4824TIP3   OH235962   1.026   6.264  16.485 -0.5112 -0.0813 -1.0483
 4824TIP3    H135963   1.012   6.358  16.476  2.5518  0.6518  1.0431
 4824TIP3    H235964   0.940   6.229  16.511 -1.2259  2.4228  0.0690
 4825TIP3   OH235965   4.503   5.978   0.971 -0.4941  0.2877  0.0357
 4825TIP3    H135966   4.581   5.923   0.986 -1.4805 -1.4199 -0.9401
 4825TIP3    H235967   4.454   5.972   1.052  0.1409  0.9813  0.4813
 4826TIP3   OH235968   4.482   5.500   1.659  0.1455  0.1468  0.5938
 4826TIP3    H135969   4.561   5.552   1.675  0.5270 -0.6147  1.2680
 4826TIP3    H235970   4.446   5.483   1.747  0.2970 -1.1119  0.4295
 4827TIP3   OH235971   0.330   5.648  14.668 -0.0323  0.6157  0.0591
 4827TIP3    H135972   0.413   5.601  14.675 -0.0326  0.1980 -2.3290
 4827TIP3    H235973   0.272   5.604  14.730  0.2043 -2.0869 -1.5276
 4828TIP3   OH235974   4.013   4.001  14.657 -0.3822 -0.0402 -0.1535
 4828TIP3    H135975   4.084   3.970  14.601 -1.3406 -0.4131 -1.1656
 4828TIP3    H235976   3.992   4.088  14.623  0.3719  0.5683  0.8920
 4829TIP3   OH235977   3.108   1.327   4.458 -0.4687  0.3941 -0.6638
 4829TIP3    H135978   3.155   1.382   4.395 -0.7523  0.6333 -0.6705
 4829TIP3    H235979   3.114   1.239   4.421  1.2428  0.1774  0.0966
 4830TIP3   OH235980   1.330   5.082  11.719 -0.0500  0.1607  0.6912
 4830TIP3    H135981   1.326   5.173  11.688  0.5574 -0.4556 -1.3166
 4830TIP3    H235982   1.398   5.082  11.786 -0.1608  1.2240  0.8118
 4831TIP3   OH235983   2.941   6.500   3.554 -0.2652  0.4366 -0.0823
 4831TIP3    H135984   2.945   6.542   3.468 -0.2285  0.0290 -0.2800
 4831TIP3    H235985   2.924   6.408   3.535  0.9738  0.1190  0.2982
 4832TIP3   OH235986   1.133   3.416   1.790  0.4426  0.3931 -0.1031
 4832TIP3    H135987   1.169   3.503   1.805  0.6375  0.4347 -0.8091
 4832TIP3    H235988   1.096   3.420   1.702 -0.8714  0.2133  0.4260
 4833TIP3   OH235989   1.889   2.510   3.767  0.8264  0.2568  0.0609
 4833TIP3    H135990   1.964   2.451   3.769 -0.7972 -1.8302  0.4655
 4833TIP3    H235991   1.822   2.467   3.820  0.1082  3.1914  1.6460
 4834TIP3   OH235992   3.657   4.857  15.887  0.4459  0.3996 -0.2822
 4834TIP3    H135993   3.572   4.829  15.921  0.4622  1.3663  0.5995
 4834TIP3    H235994   3.721   4.817  15.945  0.5508  0.5833 -0.2702
 4835TIP3   OH235995   2.858   2.364   0.639  0.2287  0.1682 -0.5086
 4835TIP3    H135996   2.879   2.418   0.715  1.1667  0.9368 -1.2904
 4835TIP3    H235997   2.767   2.385   0.619  0.2306  0.5946 -0.0911
 4836TIP3   OH235998   1.128   3.443  11.802  0.2196  0.6592  0.0465
 4836TIP3    H135999   1.056   3.470  11.745  0.4238  0.3573 -0.3578
 4836TIP3    H236000   1.201   3.499  11.777  0.6291 -0.2242 -0.7577
 4837TIP3   OH236001   0.024   3.475   4.038  0.2699 -0.1322 -0.5365
 4837TIP3    H136002   0.114   3.501   4.018  0.1963  0.0317 -0.6579
 4837TIP3    H236003  -0.030   3.545   4.001  0.0936 -0.2232 -0.4518
 4838TIP3   OH236004   4.461   3.992  16.541 -0.8083  0.5095 -0.7337
 4838TIP3    H136005   4.386   4.049  16.560  0.0017  1.2655  0.3195
 4838TIP3    H236006   4.529   4.052  16.510 -0.5826 -0.1440 -1.4909
 4839TIP3   OH236007   3.139   1.849  11.975 -0.6345 -0.4355  0.8557
 4839TIP3    H136008   3.093   1.842  11.891  1.0979  2.1643 -0.3950
 4839TIP3    H236009   3.141   1.943  11.993  3.2410 -0.5285  1.3348
 4840TIP3   OH236010   3.004   2.683   6.024 -0.1291  0.6058  0.2174
 4840TIP3    H136011   3.049   2.690   6.108 -0.0855  0.3590  0.2170
 4840TIP3    H236012   2.940   2.613   6.037  0.6800 -0.2448 -0.3064
 4841TIP3   OH236013   1.963   2.696   2.265  0.3180 -0.5291  0.5961
 4841TIP3    H136014   1.997   2.628   2.207 -0.8762 -0.1149 -0.6056
 4841TIP3    H236015   2.031   2.706   2.332  2.5320  0.1832 -1.6654
 4842TIP3   OH236016   6.503   6.745   0.110  0.3694 -0.5333  0.1702
 4842TIP3    H136017   6.569   6.796   0.157  0.5598  1.0605 -1.7275
 4842TIP3    H236018   6.421   6.793   0.125  0.1580 -0.8864  0.1502
 4843TIP3   OH236019   6.185   2.363   1.640 -0.0313  0.1053  0.6786
 4843TIP3    H136020   6.249   2.309   1.593  1.1633  1.2451  0.9643
 4843TIP3    H236021   6.218   2.452   1.632 -1.7251  0.7486  0.6517
 4844TIP3   OH236022   3.284   1.340  17.030  0.2361 -0.1676 -0.6811
 4844TIP3    H136023   3.230   1.267  17.060 -0.3744  0.6701  0.2897
 4844TIP3    H236024   3.286   1.401  17.104  2.6476 -0.2437 -0.6398
 4845TIP3   OH236025   1.081   6.742  14.002  0.2180 -0.1849 -0.1988
 4845TIP3    H136026   1.120   6.725  13.917  0.4376  1.1769 -0.3762
 4845TIP3    H236027   1.087   6.836  14.013 -1.8304 -0.0901  0.3477
 4846TIP3   OH236028   4.117   0.728   5.671 -0.0446  0.1235 -0.2821
 4846TIP3    H136029   4.168   0.717   5.591  0.5194 -0.6613  0.1751
 4846TIP3    H236030   4.083   0.817   5.666 -0.6560 -0.1862 -1.7638
 4847TIP3   OH236031   4.049   4.403  13.504 -0.5919 -0.0355 -0.2467
 4847TIP3    H136032   4.102   4.466  13.553  1.3032 -1.1409 -0.8201
 4847TIP3    H236033   3.959   4.436  13.513  0.0526  1.3658  1.5229
 4848TIP3   OH236034   2.391   5.711  16.994  0.7151  0.2558 -0.0370
 4848TIP3    H136035   2.302   5.678  16.981  0.9865 -0.3968 -0.2285
 4848TIP3    H236036   2.380   5.806  17.003  0.0080  0.1837 -0.1284
 4849TIP3   OH236037   1.601   6.538  16.820  1.0794  0.1724  0.2342
 4849TIP3    H136038   1.651   6.618  16.803  1.8004 -0.5312 -0.9830
 4849TIP3    H236039   1.651   6.468  16.778  0.4757 -0.9368  1.3183
 4850TIP3   OH236040   4.450   2.781   1.615 -0.5523 -0.0270 -0.8146
 4850TIP3    H136041   4.361   2.746   1.608 -0.1781 -1.1781  0.1055
 4850TIP3    H236042   4.485   2.774   1.527 -2.0610  2.3661 -1.6812
 4851TIP3   OH236043   6.277   5.507   1.711  0.6663  0.2502  0.1118
 4851TIP3    H136044   6.272   5.589   1.760 -1.5059 -0.3556  0.9807
 4851TIP3    H236045   6.316   5.444   1.771 -0.3991 -0.0633  0.4911
 4852TIP3   OH236046   3.411   2.794   5.704  0.1640 -0.1648  0.2796
 4852TIP3    H136047   3.373   2.733   5.766 -1.4438  0.7797  0.2517
 4852TIP3    H236048   3.500   2.809   5.736  0.5872 -2.5184  0.2625
 4853TIP3   OH236049   6.155   1.823  11.850  0.4975  0.3731  0.5100
 4853TIP3    H136050   6.088   1.809  11.783  0.4246 -1.9759  1.0656
 4853TIP3    H236051   6.107   1.822  11.933  0.9010  1.0652  0.7548
 4854TIP3   OH236052   3.499   4.510   2.679  0.3025 -0.4844  0.2521
 4854TIP3    H136053   3.451   4.581   2.638 -0.3053 -1.7758 -1.3310
 4854TIP3    H236054   3.507   4.536   2.771 -2.6573  0.1677  0.3696
 4855TIP3   OH236055   0.968   1.465  10.522  0.0706  0.5393  0.3570
 4855TIP3    H136056   1.038   1.486  10.584  0.0388 -1.3014  1.0617
 4855TIP3    H236057   1.011   1.464  10.437  1.3614 -2.3830  0.9719
 4856TIP3   OH236058   4.436   4.404  13.540 -0.0313 -0.1450  0.2482
 4856TIP3    H136059   4.467   4.338  13.602 -1.1058 -1.0933 -0.1937
 4856TIP3    H236060   4.369   4.452  13.588 -1.1987 -1.1857 -0.2923
 4857TIP3   OH236061   0.572   1.409  10.513  0.4226 -0.5685 -0.1115
 4857TIP3    H136062   0.539   1.441  10.428  0.1292 -0.8225 -0.0908
 4857TIP3    H236063   0.502   1.428  10.575  0.9224  0.2676  0.2101
 4858TIP3   OH236064   0.700   2.785   0.564 -0.5792  0.1522  0.1300
 4858TIP3    H136065   0.729   2.730   0.637 -0.5780 -0.3217 -0.2259
 4858TIP3    H236066   0.782   2.813   0.523 -0.4414  3.1977  2.3280
 4859TIP3   OH236067   6.347   1.274   3.912  0.2654  0.0221 -0.0025
 4859TIP3    H136068   6.312   1.320   3.835  0.4513  2.1747  1.1476
 4859TIP3    H236069   6.294   1.195   3.920 -2.1223  1.5480 -0.2704
 4860TIP3   OH236070   1.303   6.510   3.064 -0.1949  0.7111  0.2589
 4860TIP3    H136071   1.336   6.566   3.134  2.5026 -0.2390 -0.1602
 4860TIP3    H236072   1.381   6.463   3.033 -1.7741 -0.7008 -1.7061
 4861TIP3   OH236073   4.132   0.788   3.542  0.3136 -0.3215  0.4568
 4861TIP3    H136074   4.205   0.835   3.502 -0.4075 -0.0189 -0.5106
 4861TIP3    H236075   4.131   0.703   3.498 -1.4915  0.6091 -1.3475
 4862TIP3   OH236076   3.612   5.601   2.600 -0.7110 -0.0832 -0.1418
 4862TIP3    H136077   3.526   5.634   2.574  0.4992  1.0899 -2.8616
 4862TIP3    H236078   3.670   5.677   2.594  0.6979 -1.0512  0.8150
 4863TIP3   OH236079   4.112   2.253   5.485  0.4336  0.0611  0.0759
 4863TIP3    H136080   4.148   2.340   5.500  0.2568 -0.1034  1.5669
 4863TIP3    H236081   4.030   2.252   5.533  0.4673 -0.9471  0.1332
 4864TIP3   OH236082   3.153   2.674   2.910  0.1515  0.5328 -0.1687
 4864TIP3    H136083   3.137   2.607   2.842  1.6085  1.5270 -1.5262
 4864TIP3    H236084   3.248   2.687   2.909  0.0664  1.3404  1.3437
 4865TIP3   OH236085   3.004   1.797   3.354 -0.0355  0.5137  0.1411
 4865TIP3    H136086   3.065   1.722   3.358  0.1679  0.6562 -0.2527
 4865TIP3    H236087   2.934   1.774   3.415  0.2882  0.2322  0.4115
 4866TIP3   OH236088   0.717   4.059   2.569  0.7500 -0.6275  0.2236
 4866TIP3    H136089   0.742   4.013   2.489  0.0770  3.1000 -2.2983
 4866TIP3    H236090   0.626   4.034   2.584  0.6422 -0.7577 -0.6216
 4867TIP3   OH236091   1.445   4.782  10.911  0.0663 -0.3179 -0.2721
 4867TIP3    H136092   1.413   4.850  10.852 -0.2372 -1.6777 -1.6993
 4867TIP3    H236093   1.540   4.788  10.905  0.0859  1.0591  0.9019
 4868TIP3   OH236094   1.278   5.655  15.120 -0.2095  0.9682 -0.9534
 4868TIP3    H136095   1.349   5.662  15.056 -0.4229  4.3040 -0.9135
 4868TIP3    H236096   1.198   5.654  15.066 -0.2268 -4.4501 -1.1023
 4869TIP3   OH236097   4.934   5.202  16.165 -0.0916  0.0464  0.0790
 4869TIP3    H136098   4.965   5.262  16.098  0.6382  1.1662  1.3941
 4869TIP3    H236099   4.844   5.230  16.182  0.4826  1.2497  1.2053
 4870TIP3   OH236100   3.320   2.106  15.053  0.0089  0.1977  0.2293
 4870TIP3    H136101   3.337   2.013  15.069  1.8439  0.1143 -1.9394
 4870TIP3    H236102   3.403   2.149  15.070  0.0503  0.9966 -1.8259
 4871TIP3   OH236103   5.411   3.680   3.039 -0.2294 -1.2171 -0.6099
 4871TIP3    H136104   5.395   3.611   3.104  2.7512 -1.0103  0.3996
 4871TIP3    H236105   5.403   3.761   3.089 -1.6403 -0.8741 -1.3558
 4872TIP3   OH236106   4.821   4.258  15.431  0.8327  0.2581  0.0688
 4872TIP3    H136107   4.743   4.215  15.395  0.0929  1.8680 -0.3191
 4872TIP3    H236108   4.821   4.345  15.391  1.2747  1.2819  2.1902
 4873TIP3   OH236109   6.025   1.959  13.674  0.0171 -0.4781 -0.5430
 4873TIP3    H136110   6.007   1.968  13.580 -1.5988  0.2934 -0.1680
 4873TIP3    H236111   6.049   2.048  13.702  1.7499 -0.9422 -0.4518
 4874TIP3   OH236112   3.545   6.617   3.545 -0.4390 -0.2507  0.1599
 4874TIP3    H136113   3.475   6.603   3.608  0.6666 -2.0642  1.0257
 4874TIP3    H236114   3.542   6.539   3.489  0.3261  0.0605 -0.3170
 4875TIP3   OH236115   3.623   4.193  14.631 -0.2155  0.3830  0.0321
 4875TIP3    H136116   3.648   4.141  14.554  0.4088 -0.1666  0.6083
 4875TIP3    H236117   3.527   4.196  14.626 -0.2471 -0.6292 -0.1360
 4876TIP3   OH236118   1.552   5.988  13.677  0.4520 -0.0951  0.1774
 4876TIP3    H136119   1.513   6.064  13.719 -1.0552 -1.3477  1.0983
 4876TIP3    H236120   1.645   5.993  13.700  0.2221  1.0345  0.8801
 4877TIP3   OH236121   3.900   5.483   5.338 -0.0935  0.0038 -0.8358
 4877TIP3    H136122   3.962   5.520   5.275 -0.6891  0.6198 -1.0576
 4877TIP3    H236123   3.837   5.553   5.354 -0.4854 -0.4735 -0.2689
 4878TIP3   OH236124   1.118   0.273   2.201 -0.1835 -0.6305 -0.5367
 4878TIP3    H136125   1.177   0.200   2.182  1.4577  0.5675 -0.1305
 4878TIP3    H236126   1.145   0.304   2.287 -0.9185  0.3997 -0.6704
 4879TIP3   OH236127   6.578   5.040   6.015 -0.1230  0.5016 -0.3456
 4879TIP3    H136128   6.664   5.080   6.028 -1.0624  2.3950  0.3226
 4879TIP3    H236129   6.537   5.043   6.101  0.3510 -3.4482  0.0965
 4880TIP3   OH236130   1.686   1.209  16.588 -0.0480 -0.5033 -0.4926
 4880TIP3    H136131   1.702   1.199  16.681 -1.4280  0.5918 -0.1291
 4880TIP3    H236132   1.607   1.263  16.582  0.6924  0.4320 -2.2936
 4881TIP3   OH236133   5.690   3.593   4.487  0.4470 -0.7013 -0.2026
 4881TIP3    H136134   5.758   3.603   4.554 -0.9009  1.0845  0.9361
 4881TIP3    H236135   5.734   3.616   4.405  1.3359  0.0044  0.4589
 4882TIP3   OH236136   6.518   4.313  14.967 -0.1177 -0.9176  0.5266
 4882TIP3    H136137   6.445   4.361  14.928  1.7908  1.3039 -0.4674
 4882TIP3    H236138   6.546   4.252  14.900  0.8745  0.3998 -0.2899
 4883TIP3   OH236139   0.147   6.337  12.222  0.2467 -0.4370  0.3318
 4883TIP3    H136140   0.180   6.249  12.208 -0.3790 -0.9338  1.8799
 4883TIP3    H236141   0.166   6.383  12.140  1.1982 -1.8028 -0.2295
 4884TIP3   OH236142   3.790   1.103   2.769 -0.1188 -0.3874 -0.5622
 4884TIP3    H136143   3.753   1.176   2.719  1.9738  1.6560  0.7989
 4884TIP3    H236144   3.823   1.042   2.703  1.8032  1.8408 -1.6810
 4885TIP3   OH236145   1.377   5.407   0.342 -0.2236 -0.3340 -0.0147
 4885TIP3    H136146   1.416   5.419   0.429  0.8652  2.1095 -0.7945
 4885TIP3    H236147   1.452   5.392   0.285 -0.9455 -2.0567 -0.5266
 4886TIP3   OH236148   1.151   3.087   0.858 -0.2631 -0.0605  0.1641
 4886TIP3    H136149   1.234   3.090   0.810 -1.1807  0.8537 -1.4150
 4886TIP3    H236150   1.151   3.168   0.909 -0.5376  0.3142 -0.4332
 4887TIP3   OH236151   1.554   0.906   5.389 -0.3283 -0.0526  0.4148
 4887TIP3    H136152   1.497   0.832   5.411 -0.4237 -0.2742 -0.5229
 4887TIP3    H236153   1.596   0.879   5.307 -1.0654  1.3166 -0.4193
 4888TIP3   OH236154   1.963   2.115   1.122 -0.4058 -0.1729  0.2328
 4888TIP3    H136155   2.041   2.170   1.132 -0.3117 -0.3791  0.6639
 4888TIP3    H236156   1.890   2.171   1.147 -0.7363  0.9871 -3.0895
 4889TIP3   OH236157   3.543   3.992  13.630 -0.4025  0.2602  0.0025
 4889TIP3    H136158   3.595   3.999  13.550 -0.5268  1.5594  0.0234
 4889TIP3    H236159   3.507   3.903  13.628 -0.2079  0.2029 -1.2510
 4890TIP3   OH236160   5.408   0.773  16.632  0.3406 -0.5709  0.6185
 4890TIP3    H136161   5.495   0.801  16.659  1.2821 -1.8299 -1.0166
 4890TIP3    H236162   5.375   0.844  16.577  0.0485  0.1907  1.7541
 4891TIP3   OH236163   3.402   4.058   0.373  0.6728  0.3388 -0.2767
 4891TIP3    H136164   3.445   4.079   0.289 -0.2056  1.2762 -0.4988
 4891TIP3    H236165   3.458   3.991   0.412  3.0888  2.4541  0.0453
 4892TIP3   OH236166   3.737   3.585   6.103  0.3502  0.0241 -0.2018
 4892TIP3    H136167   3.824   3.625   6.103 -0.1649  1.1644 -0.5060
 4892TIP3    H236168   3.705   3.597   6.193 -0.0253  0.8019 -0.4341
 4893TIP3   OH236169   0.934   3.588   5.457 -0.1636  0.3555  0.3263
 4893TIP3    H136170   0.850   3.629   5.474 -1.4243 -2.2267  0.5818
 4893TIP3    H236171   0.998   3.659   5.464 -2.0357  1.8798  2.6519
 4894TIP3   OH236172   1.617   1.290  10.905  0.0747  0.1816 -0.0118
 4894TIP3    H136173   1.589   1.199  10.910 -1.6504  0.7339  0.8577
 4894TIP3    H236174   1.536   1.340  10.892  0.7036  1.7749  1.8702
 4895TIP3   OH236175   2.293   0.971   6.230  0.0771 -0.3857  0.2925
 4895TIP3    H136176   2.198   0.980   6.240  0.2124 -0.0437  1.3296
 4895TIP3    H236177   2.305   0.891   6.179 -0.7208 -1.1337  1.2585
 4896TIP3   OH236178   4.835   1.072  13.012 -1.0320  0.2254  0.3644
 4896TIP3    H136179   4.855   1.012  13.084  1.0377 -0.1611 -0.5229
 4896TIP3    H236180   4.915   1.122  12.998  0.0722 -2.5158 -4.3527
 4897TIP3   OH236181   5.619   5.664  12.092  0.4617 -0.3998 -0.1303
 4897TIP3    H136182   5.576   5.682  12.176  0.4736  1.0378 -0.4215
 4897TIP3    H236183   5.582   5.729  12.032  1.6623 -0.3629 -0.8387
 4898TIP3   OH236184   3.204   2.891  13.413 -0.3163 -0.2401 -0.4349
 4898TIP3    H136185   3.154   2.966  13.445  1.6572  1.2676 -0.7705
 4898TIP3    H236186   3.233   2.845  13.492  0.1789  0.5340 -0.1592
 4899TIP3   OH236187   6.575   0.084   2.294  0.0510  0.2108 -0.2614
 4899TIP3    H136188   6.627   0.156   2.259  0.8106  1.1367  2.5718
 4899TIP3    H236189   6.490   0.093   2.252  0.5163  2.0358 -0.8671
 4900TIP3   OH236190   4.966   6.228  15.668 -0.3263 -0.1728 -0.2339
 4900TIP3    H136191   5.002   6.278  15.594 -2.9533  1.2499 -0.6189
 4900TIP3    H236192   4.890   6.183  15.632 -0.8885 -0.4879  1.3111
 4901TIP3   OH236193   0.004   1.958  17.233  0.0849 -0.1940 -0.1393
 4901TIP3    H136194  -0.090   1.972  17.227 -0.0800 -1.3040 -0.2936
 4901TIP3    H236195   0.019   1.935  17.325 -0.1352 -2.2976 -0.6082
 4902TIP3   OH236196   0.434   5.382  16.699 -0.3128  0.6125  0.3218
 4902TIP3    H136197   0.482   5.375  16.781 -1.5504  1.5926  1.1555
 4902TIP3    H236198   0.495   5.426  16.640  1.0475 -1.2309  0.3052
 4903TIP3   OH236199   1.383   3.825   5.781  0.0462 -0.2147 -0.4965
 4903TIP3    H136200   1.324   3.766   5.829  0.7574 -1.0664 -0.6629
 4903TIP3    H236201   1.468   3.811   5.822  0.1257  1.0918 -0.1930
 4904TIP3   OH236202   6.793   1.333  14.766  0.1842  0.3053  0.5667
 4904TIP3    H136203   6.798   1.253  14.818 -1.4343  0.2226  0.6024
 4904TIP3    H236204   6.830   1.401  14.823 -1.6688  0.2370  1.8831
 4905TIP3   OH236205   0.490   1.592  15.886 -0.3846 -0.8078 -0.6707
 4905TIP3    H136206   0.409   1.573  15.839 -0.6869  1.8871 -1.3155
 4905TIP3    H236207   0.556   1.599  15.818 -0.1038 -0.5161 -0.3703
 4906TIP3   OH236208   4.387   4.656  11.919 -0.0568  0.0401 -0.1174
 4906TIP3    H136209   4.479   4.665  11.892 -1.1616  2.2833 -3.4960
 4906TIP3    H236210   4.387   4.582  11.980  4.1269  0.6318  0.7876
 4907TIP3   OH236211   3.980   5.777   3.118 -0.1319 -0.0400  0.1112
 4907TIP3    H136212   3.952   5.706   3.176 -1.3947 -0.6815 -1.2559
 4907TIP3    H236213   3.931   5.853   3.147  0.3039 -0.0050  0.7835
 4908TIP3   OH236214   6.495   5.907   0.681 -0.0339 -0.3803  0.7299
 4908TIP3    H136215   6.406   5.893   0.649 -0.1517 -0.1114  0.9438
 4908TIP3    H236216   6.547   5.839   0.637 -0.5672 -1.3461  1.5934
 4909TIP3   OH236217   0.745   5.359   1.739 -0.4766 -0.5330  0.7140
 4909TIP3    H136218   0.823   5.312   1.710  0.2451  0.9600  0.2336
 4909TIP3    H236219   0.689   5.290   1.776  1.0803 -1.6062  1.1286
 4910TIP3   OH236220   4.605   3.034  10.148  0.4639  0.1118  0.5926
 4910TIP3    H136221   4.643   3.075  10.225 -1.0654  0.4215  1.1792
 4910TIP3    H236222   4.620   2.940  10.161  1.6274  0.2753  0.4894
 4911TIP3   OH236223   5.264   3.350   4.882 -0.0714 -0.0026  0.3218
 4911TIP3    H136224   5.198   3.288   4.913  0.8933 -1.0462  0.3102
 4911TIP3    H236225   5.226   3.436   4.901 -1.0302 -0.5921  1.1667
 4912TIP3   OH236226   3.331   0.382   0.642 -0.1594  0.6160 -0.5212
 4912TIP3    H136227   3.347   0.329   0.720 -0.8218  0.6139 -0.3861
 4912TIP3    H236228   3.378   0.336   0.572 -2.3673 -1.2902 -0.8318
 4913TIP3   OH236229   5.108   1.672  13.405  0.1361  0.0285  0.5695
 4913TIP3    H136230   5.165   1.745  13.426  0.0858  0.0975  0.4670
 4913TIP3    H236231   5.167   1.600  13.382  0.1795  0.1089  0.4336
 4914TIP3   OH236232   6.815   6.495  11.529  0.0388 -0.2501  0.5239
 4914TIP3    H136233   6.816   6.450  11.444 -3.9662  1.7347 -0.7061
 4914TIP3    H236234   6.756   6.443  11.583 -0.5420  0.6571  0.7777
 4915TIP3   OH236235   6.364   6.690   5.209  0.2007 -0.4870  0.0167
 4915TIP3    H136236   6.331   6.683   5.120 -1.5567  1.8070  0.4511
 4915TIP3    H236237   6.451   6.730   5.199  0.6728 -1.6931 -0.7591
 4916TIP3   OH236238   1.912   5.781  14.875 -0.2059  0.2562  0.2506
 4916TIP3    H136239   1.980   5.740  14.930 -0.2700  0.3525  0.4021
 4916TIP3    H236240   1.847   5.812  14.938  0.5770  1.9604  0.2288
 4917TIP3   OH236241   6.446   4.973   3.734  0.5989  0.6588  0.7889
 4917TIP3    H136242   6.421   4.970   3.826  1.5598  1.1594  1.0648
 4917TIP3    H236243   6.367   5.005   3.689  0.0117  0.0541  1.3876
 4918TIP3   OH236244   4.030   2.449   0.356 -0.4446  0.1024  0.3657
 4918TIP3    H136245   4.009   2.407   0.272  0.4535  2.1261 -0.9187
 4918TIP3    H236246   3.945   2.459   0.399 -1.3081  1.6091 -1.5916
 4919TIP3   OH236247   3.518   2.036  11.089 -0.4656 -0.0875  0.5903
 4919TIP3    H136248   3.487   1.996  11.007 -0.2043 -0.4686  0.6730
 4919TIP3    H236249   3.483   2.125  11.088  1.1190  0.5533 -0.8603
 4920TIP3   OH236250   3.081   0.371  12.864  0.2373  0.6511 -0.4268
 4920TIP3    H136251   3.000   0.333  12.898  0.1022  2.1980  1.0488
 4920TIP3    H236252   3.053   0.426  12.791  0.1928 -0.4242 -1.2180
 4921TIP3   OH236253   4.149   4.138  10.463  0.1781  0.3948  0.2528
 4921TIP3    H136254   4.217   4.145  10.396  1.2800  0.9983  1.3914
 4921TIP3    H236255   4.144   4.044  10.482  1.1760  0.4069  0.6254
 4922TIP3   OH236256   2.678   6.149  12.303  0.1170  0.3863  0.4197
 4922TIP3    H136257   2.641   6.065  12.275  0.3640 -0.4795  2.6349
 4922TIP3    H236258   2.618   6.214  12.266 -2.1485 -0.9107  1.7281
 4923TIP3   OH236259   6.525   2.536   0.803  0.2769 -0.3685 -0.6703
 4923TIP3    H136260   6.612   2.576   0.803  0.2098 -0.2136  0.9346
 4923TIP3    H236261   6.536   2.453   0.756  1.5842 -0.9924  0.7168
 4924TIP3   OH236262   4.400   4.294   2.225 -0.3655 -0.0713 -0.7253
 4924TIP3    H136263   4.416   4.359   2.157 -0.8141 -0.9300 -1.6704
 4924TIP3    H236264   4.335   4.235   2.187  0.2517 -1.2453  0.0030
 4925TIP3   OH236265   3.776   4.699   2.780  0.3691 -0.2341  0.1833
 4925TIP3    H136266   3.762   4.609   2.812  0.1430  0.5936  2.4792
 4925TIP3    H236267   3.702   4.748   2.814  0.7665  0.9544 -0.6375
 4926TIP3   OH236268   1.522   2.704  11.007 -0.0196  0.0862 -0.3086
 4926TIP3    H136269   1.509   2.643  10.934  0.7627 -1.2833  0.6659
 4926TIP3    H236270   1.605   2.748  10.986 -0.3092  0.4297 -0.7451
 4927TIP3   OH236271   0.841   1.952   6.393 -0.9176 -0.0914 -0.5089
 4927TIP3    H136272   0.826   1.936   6.299 -0.1013 -1.6411 -0.3861
 4927TIP3    H236273   0.754   1.953   6.431 -1.1614 -1.1425 -1.0280
 4928TIP3   OH236274   5.501   3.529  16.253  0.0052  0.3954  0.0718
 4928TIP3    H136275   5.567   3.477  16.298  0.2217  1.3439  0.8471
 4928TIP3    H236276   5.546   3.610  16.228 -0.6881  0.7789  0.0386
 4929TIP3   OH236277   4.145   5.399  11.025 -0.0511 -0.2441 -0.4227
 4929TIP3    H136278   4.062   5.401  10.977  0.1292 -0.9101 -0.7777
 4929TIP3    H236279   4.210   5.433  10.963  0.5913 -3.3144 -1.5345
 4930TIP3   OH236280   2.060   1.576   3.016  0.4747  0.0179 -0.0315
 4930TIP3    H136281   2.101   1.556   3.100  2.1040 -0.3755 -0.8852
 4930TIP3    H236282   2.017   1.660   3.029  0.7450 -0.0280  1.1885
 4931TIP3   OH236283   3.698   0.773   2.455 -0.3308 -0.7052  0.3973
 4931TIP3    H136284   3.652   0.847   2.495  0.1270 -0.0815 -0.2222
 4931TIP3    H236285   3.633   0.732   2.398  0.2871  1.0618 -1.6207
 4932TIP3   OH236286   3.594   3.852  11.521  0.4112  0.3112  0.1522
 4932TIP3    H136287   3.559   3.764  11.506 -0.1616  0.5987 -0.2196
 4932TIP3    H236288   3.686   3.845  11.498 -0.0928  0.3401 -2.0330
 4933TIP3   OH236289   5.567   0.767   6.330 -0.1468 -0.0833  0.1195
 4933TIP3    H136290   5.560   0.696   6.266  3.0340 -0.7397  0.4091
 4933TIP3    H236291   5.527   0.732   6.409 -1.8680 -0.1730 -0.7555
 4934TIP3   OH236292   3.889   6.149   4.806  0.1683  0.8873  0.1405
 4934TIP3    H136293   3.924   6.106   4.884  0.7715  3.5081  1.3794
 4934TIP3    H236294   3.796   6.158   4.823  0.2928  1.4212  0.5397
 4935TIP3   OH236295   3.131   3.665  11.973  0.3583 -0.3691  0.0723
 4935TIP3    H136296   3.205   3.713  12.011  0.6730 -0.9080  0.1475
 4935TIP3    H236297   3.144   3.575  12.002 -1.0774 -0.2188  1.2071
 4936TIP3   OH236298   0.878   2.044   2.303  0.2256 -0.1683  0.0801
 4936TIP3    H136299   0.915   1.992   2.374  1.2982  1.8714  1.0711
 4936TIP3    H236300   0.819   2.106   2.346 -1.6354 -1.0684 -1.1507
 4937TIP3   OH236301   6.708   3.976   2.712 -0.5529  0.7166 -0.2325
 4937TIP3    H136302   6.680   4.031   2.638 -0.2923 -1.1765 -1.7771
 4937TIP3    H236303   6.798   3.950   2.690 -0.1655  0.8337  1.1754
 4938TIP3   OH236304   1.562   0.124   1.156  0.2488  0.2499  0.3686
 4938TIP3    H136305   1.595   0.079   1.234 -1.2831 -1.2085  0.2064
 4938TIP3    H236306   1.620   0.094   1.086 -0.0146 -0.5151  0.4748
 4939TIP3   OH236307   2.555   3.789   3.572 -0.0080 -0.3470  0.1303
 4939TIP3    H136308   2.624   3.771   3.508  0.3691  0.4388  0.3045
 4939TIP3    H236309   2.588   3.753   3.654  0.3141  0.2434  0.2668
 4940TIP3   OH236310   5.641   1.910  15.239 -0.0875  0.0271  0.2718
 4940TIP3    H136311   5.622   1.949  15.153 -0.6137 -0.6870  0.0581
 4940TIP3    H236312   5.733   1.883  15.233  0.4249  1.6455  0.5906
 4941TIP3   OH236313   5.295   3.332  12.526  0.1457  0.0378 -0.1565
 4941TIP3    H136314   5.343   3.320  12.444 -1.7361 -1.2857 -1.0907
 4941TIP3    H236315   5.263   3.422  12.522 -0.6306 -0.2881 -1.2446
 4942TIP3   OH236316   5.335   4.306   0.125  0.7414 -0.6451 -0.1381
 4942TIP3    H136317   5.401   4.335   0.062  0.0201  1.3954 -0.0121
 4942TIP3    H236318   5.274   4.254   0.074  0.3829  0.6618 -1.0693
 4943TIP3   OH236319   6.347   4.107  17.154 -0.1154 -0.5967 -0.2925
 4943TIP3    H136320   6.330   4.199  17.172  1.9911  0.1743 -2.0792
 4943TIP3    H236321   6.438   4.104  17.124  0.0514 -3.3349  0.2930
 4944TIP3   OH236322   6.184   1.754  17.188  0.1775  0.0176 -0.1043
 4944TIP3    H136323   6.235   1.774  17.109 -1.2091  0.1206 -1.0093
 4944TIP3    H236324   6.185   1.835  17.238  2.4290 -0.5418  0.7765
 4945TIP3   OH236325   5.492   0.851  15.951 -0.0720  0.6823  0.3400
 4945TIP3    H136326   5.399   0.832  15.948 -0.0001  0.2757  0.5581
 4945TIP3    H236327   5.533   0.766  15.969  0.5267  0.3462 -2.3545
 4946TIP3   OH236328   5.938   2.342  12.009  0.7926  0.0182  0.4291
 4946TIP3    H136329   6.016   2.288  12.000  1.4748  0.7289  1.7914
 4946TIP3    H236330   5.946   2.409  11.941  0.7739 -0.6104 -0.1898
 4947TIP3   OH236331   4.188   1.765   0.302 -0.5004 -0.3321 -0.5023
 4947TIP3    H136332   4.206   1.717   0.221 -0.4171 -0.9224 -0.1368
 4947TIP3    H236333   4.239   1.845   0.294  0.0572 -0.7089 -0.7239
 4948TIP3   OH236334   0.799   4.211  11.071  0.2609  0.1121  0.9981
 4948TIP3    H136335   0.839   4.251  11.149  0.6141 -0.4428  1.1040
 4948TIP3    H236336   0.848   4.130  11.058 -0.9744 -0.6835  1.2524
 4949TIP3   OH236337   4.188   4.432  10.202  0.5520  0.4550 -0.5249
 4949TIP3    H136338   4.165   4.454  10.292 -0.2582  0.4023 -0.7230
 4949TIP3    H236339   4.207   4.338  10.205  0.7097  0.4901 -0.3743
 4950TIP3   OH236340   0.499   6.143  11.450 -0.0762  0.1766  0.9064
 4950TIP3    H136341   0.474   6.150  11.358  0.5618  1.9251  0.8496
 4950TIP3    H236342   0.444   6.072  11.484 -1.2569  0.3802 -0.4954
 4951TIP3   OH236343   4.588   0.082  14.821 -0.2599  0.5963  0.5893
 4951TIP3    H136344   4.675   0.068  14.858 -0.0950 -0.7356 -0.2552
 4951TIP3    H236345   4.560   0.167  14.855  1.6848  1.3876  0.2837
 4952TIP3   OH236346   0.857   5.904  11.925  0.1405  0.9549  0.1085
 4952TIP3    H136347   0.952   5.907  11.914  0.8535 -4.2315  2.9862
 4952TIP3    H236348   0.841   5.949  12.008  0.3463  0.2010  0.5636
 4953TIP3   OH236349   4.654   4.774  12.753 -0.3329  0.7560 -0.5862
 4953TIP3    H136350   4.601   4.703  12.788  0.7629  0.5991  0.7897
 4953TIP3    H236351   4.591   4.842  12.731 -1.4883 -0.9607 -2.8014
 4954TIP3   OH236352   4.341   3.596  16.367  0.1194 -0.7130 -0.0223
 4954TIP3    H136353   4.266   3.654  16.380  1.3643  1.2804 -1.4582
 4954TIP3    H236354   4.309   3.530  16.306 -1.3891 -1.7607  1.8196
 4955TIP3   OH236355   5.193   3.436  14.306 -0.1462  0.1598  0.0364
 4955TIP3    H136356   5.110   3.484  14.304 -0.6786 -0.8114 -0.8919
 4955TIP3    H236357   5.247   3.479  14.239  0.0130  0.5913  0.4304
 4956TIP3   OH236358   5.215   5.176  14.584  0.0547  0.7467  0.0845
 4956TIP3    H136359   5.310   5.178  14.572  0.1931 -2.3694  0.4183
 4956TIP3    H236360   5.187   5.266  14.565  2.9939  1.5972 -0.4708
 4957TIP3   OH236361   4.623   3.090  16.026 -0.6199  0.4008  0.2337
 4957TIP3    H136362   4.528   3.080  16.021 -0.3445 -2.9598  0.8383
 4957TIP3    H236363   4.655   3.066  15.939 -0.1712 -0.9980  0.7646
 4958TIP3   OH236364   4.759   5.848  12.125 -0.7206 -0.3114 -0.0733
 4958TIP3    H136365   4.811   5.800  12.061 -1.3215 -0.0766 -0.7402
 4958TIP3    H236366   4.766   5.940  12.098 -0.3651 -0.1280  0.6314
 4959TIP3   OH236367   0.835   0.516   1.744 -0.0590  0.0937 -0.5675
 4959TIP3    H136368   0.877   0.434   1.767 -0.0017  0.0294 -0.8995
 4959TIP3    H236369   0.743   0.505   1.770  0.1806  0.3253  0.3812
 4960TIP3   OH236370   1.649   0.854   3.938 -0.4369  0.1413  0.2550
 4960TIP3    H136371   1.583   0.903   3.988  0.9572  1.8843  0.4656
 4960TIP3    H236372   1.678   0.916   3.871 -0.3723 -1.2737 -1.0362
 4961TIP3   OH236373   5.656   1.217  14.801  0.2256 -0.6258 -0.6836
 4961TIP3    H136374   5.623   1.307  14.791 -0.7284 -1.0588 -1.6405
 4961TIP3    H236375   5.665   1.205  14.895 -2.1270 -0.3719 -0.3757
 4962TIP3   OH236376   1.746   1.356   5.032 -0.0578 -0.9776 -0.1487
 4962TIP3    H136377   1.795   1.278   5.007  0.7956 -0.0533 -1.4944
 4962TIP3    H236378   1.668   1.354   4.976 -0.5364 -1.4026  0.5429
 4963TIP3   OH236379   2.218   0.361  16.310  0.0277 -0.0858 -0.0769
 4963TIP3    H136380   2.275   0.419  16.361  0.1438 -0.8127  0.6300
 4963TIP3    H236381   2.238   0.383  16.219 -0.5537  1.5860  0.1805
 4964TIP3   OH236382   2.011   5.691  12.939 -0.0982 -0.3755 -0.0447
 4964TIP3    H136383   2.063   5.633  12.883 -0.0903 -1.9216  1.5172
 4964TIP3    H236384   2.075   5.729  13.000 -0.5594 -1.0305  0.8467
 4965TIP3   OH236385   1.791   4.442   1.277  0.1216 -0.3325  0.0077
 4965TIP3    H136386   1.804   4.523   1.228  1.1340 -1.1804 -1.1602
 4965TIP3    H236387   1.849   4.378   1.234 -0.1741 -1.5044  1.3119
 4966TIP3   OH236388   5.224   4.625  16.779 -0.4856 -0.1325  0.1344
 4966TIP3    H136389   5.251   4.706  16.823  2.0807 -0.2867 -1.0845
 4966TIP3    H236390   5.225   4.558  16.847  0.5317  0.2253  0.4703
 4967TIP3   OH236391   3.909   2.866   3.805  0.3785  0.6524 -0.6908
 4967TIP3    H136392   3.821   2.853   3.840 -0.1044 -0.1034 -2.1135
 4967TIP3    H236393   3.966   2.871   3.882 -0.7811  0.1629  0.2087
 4968TIP3   OH236394   0.394   2.239   1.687 -0.2616  0.4172  0.1087
 4968TIP3    H136395   0.344   2.218   1.766 -0.1760 -0.2891 -0.0203
 4968TIP3    H236396   0.479   2.196   1.700 -0.5940 -0.5419 -0.7999
 4969TIP3   OH236397   5.345   0.790   5.249  0.1694  0.5118 -0.0683
 4969TIP3    H136398   5.379   0.705   5.278  0.1417  0.5084 -0.0468
 4969TIP3    H236399   5.389   0.807   5.166  0.1451  0.4572 -0.0924
 4970TIP3   OH236400   0.130   4.125  17.254 -0.9380  0.2563  0.4107
 4970TIP3    H136401   0.221   4.136  17.283 -1.2841  1.6179  1.0138
 4970TIP3    H236402   0.133   4.050  17.195  0.6321  0.4555  0.2085
 4971TIP3   OH236403   3.833   3.027   5.867  0.7110  0.0166  0.6337
 4971TIP3    H136404   3.868   3.089   5.931 -0.2512  0.9365  0.2781
 4971TIP3    H236405   3.847   3.069   5.782 -2.0227  0.8391  0.5289
 4972TIP3   OH236406   1.838   6.095   4.956 -0.2144 -0.1785  0.4638
 4972TIP3    H136407   1.869   6.027   5.017  1.6577  1.6117  1.5686
 4972TIP3    H236408   1.854   6.057   4.870  1.2593 -0.9795  1.0574
 4973TIP3   OH236409   1.921   1.738  17.228 -1.1493  0.1657  0.3953
 4973TIP3    H136410   1.949   1.649  17.247  0.7610  0.6655  0.0776
 4973TIP3    H236411   1.972   1.793  17.287  0.0532  1.2465 -1.5644
 4974TIP3   OH236412   1.720   2.708   5.708  0.2465  0.1171  0.1730
 4974TIP3    H136413   1.713   2.657   5.627  1.6142 -0.7055  0.5795
 4974TIP3    H236414   1.809   2.743   5.707  0.3229 -0.0375  1.4140
 4975TIP3   OH236415   1.850   3.831   5.424 -0.0470 -0.6685  0.0678
 4975TIP3    H136416   1.802   3.845   5.506  0.4523 -1.0183  0.4225
 4975TIP3    H236417   1.867   3.737   5.422  0.5095 -0.5665 -0.1193
 4976TIP3   OH236418   4.780   6.173   1.089  0.0428 -0.4171 -0.0479
 4976TIP3    H136419   4.715   6.115   1.130  0.5733 -1.1377 -0.2099
 4976TIP3    H236420   4.728   6.236   1.039 -0.5805 -0.1021  0.9801
 4977TIP3   OH236421   1.366   3.632   3.540  0.2997 -0.1293  0.3768
 4977TIP3    H136422   1.334   3.680   3.617  1.6329 -1.1829  1.6090
 4977TIP3    H236423   1.451   3.597   3.567  1.0409 -0.0415 -1.7841
 4978TIP3   OH236424   6.172   0.251   5.237 -0.2098 -0.6994 -0.1368
 4978TIP3    H136425   6.077   0.257   5.253 -0.1581  0.2448 -0.1443
 4978TIP3    H236426   6.207   0.334   5.270  0.5043 -0.6915 -0.9022
 4979TIP3   OH236427   1.842   4.453   4.451 -0.6468 -0.1574 -0.0992
 4979TIP3    H136428   1.818   4.361   4.447 -2.1746  0.1623  1.2126
 4979TIP3    H236429   1.759   4.499   4.464  0.2707  1.2722  0.8716
 4980TIP3   OH236430   6.420   6.551   2.785  0.1803 -0.4812  0.4357
 4980TIP3    H136431   6.354   6.566   2.853 -0.9949 -0.5054 -0.6862
 4980TIP3    H236432   6.403   6.618   2.720  2.2940  0.5063  0.8853
 4981TIP3   OH236433   1.356   5.722   3.597 -0.4017 -0.5131 -0.1944
 4981TIP3    H136434   1.388   5.648   3.649  0.2778 -0.1541 -0.0860
 4981TIP3    H236435   1.370   5.798   3.654 -0.3924 -0.2131 -0.5979
 4982TIP3   OH236436   5.229   3.637  15.111 -0.8004 -0.0654 -0.2904
 4982TIP3    H136437   5.251   3.656  15.020  0.0396  1.0713  0.1262
 4982TIP3    H236438   5.257   3.546  15.125  2.0145  0.7494 -0.3093
 4983TIP3   OH236439   2.745   2.723   3.746 -0.3283  0.0206 -0.1476
 4983TIP3    H136440   2.650   2.708   3.741 -0.4819  1.2800 -1.2661
 4983TIP3    H236441   2.762   2.738   3.839 -1.3246  0.4101 -0.0230
 4984TIP3   OH236442   1.883   5.019   2.326 -0.4946 -0.0897  0.2967
 4984TIP3    H136443   1.940   5.035   2.402  0.2011  0.3483 -0.3041
 4984TIP3    H236444   1.794   5.022   2.362 -0.1331 -1.1695  1.3140
 4985TIP3   OH236445   0.283   5.316   4.552 -0.6534 -0.4831  0.5160
 4985TIP3    H136446   0.341   5.278   4.619  0.6283  0.5864  0.0444
 4985TIP3    H236447   0.231   5.381   4.599 -1.2949 -1.2748  0.8990
 4986TIP3   OH236448   4.856   3.872   4.252  0.1991  0.1306  0.1557
 4986TIP3    H136449   4.849   3.779   4.233 -1.2090  0.1116  0.7155
 4986TIP3    H236450   4.771   3.895   4.290  0.6542  1.5661  0.3219
 4987TIP3   OH236451   3.335   5.894  11.934  0.1067  1.1719  0.2957
 4987TIP3    H136452   3.403   5.954  11.905  0.7077  1.0686  1.4651
 4987TIP3    H236453   3.382   5.814  11.956 -0.9323 -0.6838 -3.6741
 4988TIP3   OH236454   5.538   5.103  17.138 -0.2195 -0.4355  0.1330
 4988TIP3    H136455   5.462   5.145  17.099  0.7702  1.2590 -0.0389
 4988TIP3    H236456   5.595   5.083  17.063  0.4056  0.1934  0.4337
 4989TIP3   OH236457   1.035   5.933  12.560 -0.7016 -0.0776 -0.4072
 4989TIP3    H136458   0.995   6.007  12.605 -0.1989 -1.0663  1.7237
 4989TIP3    H236459   1.111   5.910  12.614 -0.5728 -1.8362 -1.2990
 4990TIP3   OH236460   2.231   5.651  14.796 -0.1127 -0.1752 -0.1361
 4990TIP3    H136461   2.258   5.664  14.706  0.9713  0.6813  0.2974
 4990TIP3    H236462   2.283   5.714  14.846 -1.3155 -0.0394  0.9833
 4991TIP3   OH236463   2.502   6.805  14.770 -0.7173 -0.6400  0.0909
 4991TIP3    H136464   2.425   6.849  14.806 -1.3946 -1.8985  0.2183
 4991TIP3    H236465   2.492   6.813  14.675  0.5850  1.8586  0.1265
 4992TIP3   OH236466   3.175   3.588  13.200 -0.3124  0.6673  0.4414
 4992TIP3    H136467   3.226   3.517  13.160 -1.1079  0.9997 -1.2051
 4992TIP3    H236468   3.232   3.665  13.193 -0.8084  0.9278 -0.9396
 4993TIP3   OH236469   4.167   3.806  16.414  0.0868 -0.3669  0.5572
 4993TIP3    H136470   4.082   3.793  16.372 -0.0935 -1.8750  1.3400
 4993TIP3    H236471   4.184   3.899  16.406 -2.0919  0.1153  1.2189
 4994TIP3   OH236472   2.836   6.385  14.562 -0.6537  0.5275  0.6936
 4994TIP3    H136473   2.817   6.292  14.549  1.3232 -0.0788  1.9649
 4994TIP3    H236474   2.807   6.427  14.481  1.4150 -1.6354 -1.2549
 4995TIP3   OH236475   5.285   4.013  13.819  0.8329  0.1775 -0.2988
 4995TIP3    H136476   5.243   4.045  13.899 -1.4265  0.6352 -1.6117
 4995TIP3    H236477   5.305   3.921  13.838  0.6027  0.3659  0.9067
 4996TIP3   OH236478   6.044   6.437   3.729  0.2527 -0.7606 -0.1409
 4996TIP3    H136479   6.057   6.530   3.710  0.4886 -0.4258  1.5599
 4996TIP3    H236480   5.986   6.407   3.660  0.7824  0.4811 -1.1501
 4997TIP3   OH236481   6.085   2.886   1.654  0.3541 -0.3868  0.3873
 4997TIP3    H136482   6.172   2.846   1.659  0.7485  0.3860 -0.0540
 4997TIP3    H236483   6.036   2.830   1.594  1.3626  0.5754 -1.3999
 4998TIP3   OH236484   5.883   6.292   5.271  0.1503  0.1062 -0.3958
 4998TIP3    H136485   5.828   6.293   5.192 -1.0123 -0.0922  0.4031
 4998TIP3    H236486   5.972   6.308   5.238 -0.4925  1.2546 -1.6061
 4999TIP3   OH236487   2.660   4.216  14.253  0.4478 -0.2232  0.4053
 4999TIP3    H136488   2.588   4.266  14.215  0.8355  0.2771  0.3202
 4999TIP3    H236489   2.622   4.131  14.276  0.2236 -0.5613 -1.1789
 5000TIP3   OH236490   2.922   4.144   4.058 -0.6264  0.0808  0.3329
 5000TIP3    H136491   2.990   4.201   4.021 -0.6335 -0.2399 -0.1805
 5000TIP3    H236492   2.929   4.156   4.152 -0.4509  0.7360  0.2410
 5001TIP3   OH236493   6.640   4.932   4.009 -0.5322 -0.4258 -0.4043
 5001TIP3    H136494   6.695   5.010   4.020 -0.3998 -0.4053 -1.1547
 5001TIP3    H236495   6.691   4.861   4.048  0.1296 -0.4442 -1.2870
 5002TIP3   OH236496   2.228   5.511   5.847  0.1268  0.4640  0.3413
 5002TIP3    H136497   2.223   5.493   5.753 -0.4963  2.2948  0.0043
 5002TIP3    H236498   2.169   5.586   5.860 -0.9781 -0.7099  2.4304
 5003TIP3   OH236499   5.854   5.845   5.086 -0.1982  0.2209  0.3784
 5003TIP3    H136500   5.780   5.827   5.029 -0.1430 -0.4047  0.5082
 5003TIP3    H236501   5.819   5.834   5.175  0.1247 -0.3318  0.4336
 5004TIP3   OH236502   0.671   4.618   2.249  0.3907 -0.4492 -0.2091
 5004TIP3    H136503   0.623   4.687   2.203  0.3306  1.6614  2.8608
 5004TIP3    H236504   0.757   4.617   2.208  0.9020  2.5627  0.6949
 5005TIP3   OH236505   3.658   1.061   5.088 -0.0978 -0.1270  0.0600
 5005TIP3    H136506   3.586   1.114   5.053 -0.3636 -1.2137 -1.0759
 5005TIP3    H236507   3.681   1.104   5.171 -0.8989  1.2290 -0.4023
 5006TIP3   OH236508   4.839   1.755  16.543  0.4641 -0.1098  0.5236
 5006TIP3    H136509   4.929   1.723  16.553  0.2974 -0.6848  0.2326
 5006TIP3    H236510   4.795   1.686  16.493 -0.1845  0.0883  0.8195
 5007TIP3   OH236511   5.581   3.947   0.001  0.2457 -0.3323 -0.0916
 5007TIP3    H136512   5.572   3.860  -0.040 -0.2705  0.1528 -1.0243
 5007TIP3    H236513   5.653   3.937   0.063  0.7385 -1.2125 -0.7890
 5008TIP3   OH236514   4.376   4.535   4.689 -0.0333 -0.5427  0.0575
 5008TIP3    H136515   4.438   4.561   4.758  0.2548  0.0913 -0.4324
 5008TIP3    H236516   4.395   4.443   4.674 -1.2073 -1.1351  1.9654
 5009TIP3   OH236517   6.102   1.798   5.345  0.3844 -0.3719 -0.1052
 5009TIP3    H136518   6.036   1.729   5.349 -0.6641  0.6816  1.1238
 5009TIP3    H236519   6.125   1.816   5.436  1.5231  0.0805 -0.4627
 5010TIP3   OH236520   0.361   4.748  13.531 -0.0285 -0.5616  0.2428
 5010TIP3    H136521   0.417   4.713  13.600 -0.0939  0.2686  0.7287
 5010TIP3    H236522   0.307   4.675  13.503  0.7244 -1.1636  0.3440
 5011TIP3   OH236523   3.703   5.138   3.606 -0.7278 -0.4227 -0.1216
 5011TIP3    H136524   3.691   5.150   3.701  0.9319  0.9084 -0.0474
 5011TIP3    H236525   3.743   5.052   3.598 -1.0528 -0.6255  0.3713
 5012TIP3   OH236526   2.607   1.776  15.087  0.2975 -0.1819  0.0071
 5012TIP3    H136527   2.549   1.760  15.012  0.5285 -0.3516 -0.1368
 5012TIP3    H236528   2.649   1.860  15.067 -1.5093  1.0101  1.1367
 5013TIP3   OH236529   4.943   2.915   0.368 -0.2957  0.0308 -0.5059
 5013TIP3    H136530   4.851   2.939   0.361 -0.0640  0.8752 -0.6723
 5013TIP3    H236531   4.957   2.900   0.462 -0.2252  1.3954 -0.2969
 5014TIP3   OH236532   0.892   6.697   2.443 -0.6341 -0.1368 -0.6978
 5014TIP3    H136533   0.863   6.655   2.362  0.2809  0.3061 -1.2683
 5014TIP3    H236534   0.987   6.705   2.433 -0.6492  0.9510 -0.0629
 5015TIP3   OH236535   4.457   5.326   2.117  0.0309 -0.9676  0.0340
 5015TIP3    H136536   4.441   5.288   2.203 -0.1673  2.4418  1.5799
 5015TIP3    H236537   4.373   5.320   2.072 -0.5810 -0.3173  1.0842
 5016TIP3   OH236538   3.197   6.437   4.473 -0.1093 -0.4579  0.3705
 5016TIP3    H136539   3.151   6.515   4.443  0.8172  0.6102  1.6673
 5016TIP3    H236540   3.144   6.404   4.546  0.0793 -0.4099  0.5290
 5017TIP3   OH236541   1.827   0.817   3.100  0.0065 -0.1431 -0.2847
 5017TIP3    H136542   1.761   0.764   3.055 -1.4716  0.8510  0.6665
 5017TIP3    H236543   1.778   0.892   3.134  1.8028  1.0888 -0.3472
 5018TIP3   OH236544   4.556   2.168  11.062  0.2260 -0.4052  0.6203
 5018TIP3    H136545   4.637   2.202  11.100 -0.1565  1.6326 -0.2884
 5018TIP3    H236546   4.500   2.148  11.137  1.0877 -0.5967  1.2152
 5019TIP3   OH236547   4.013   2.439  12.377 -0.2321  0.1767  0.0257
 5019TIP3    H136548   4.005   2.441  12.282 -0.5208  2.9533  0.0674
 5019TIP3    H236549   3.923   2.451  12.409 -0.2197 -1.3591  0.6561
 5020TIP3   OH236550   2.021   1.007   5.745 -0.5662  0.3938  0.6227
 5020TIP3    H136551   2.040   0.914   5.740  0.4708  0.6168  0.4112
 5020TIP3    H236552   1.990   1.020   5.835 -1.2138 -0.2372  0.4990
 5021TIP3   OH236553   0.850   1.811   1.406  0.0468 -0.3002  0.4796
 5021TIP3    H136554   0.923   1.827   1.466  3.6307  0.6764 -3.8464
 5021TIP3    H236555   0.807   1.896   1.397  0.8421  0.0631  0.0530
 5022TIP3   OH236556   4.895   5.987  12.692 -0.1784  0.1758  0.1810
 5022TIP3    H136557   4.892   5.971  12.597 -0.3140 -0.1949  0.2459
 5022TIP3    H236558   4.803   5.994  12.717 -0.1070  1.6585  0.0572
 5023TIP3   OH236559   2.695   3.154   1.172 -0.9161  0.0003 -0.3293
 5023TIP3    H136560   2.692   3.229   1.231  0.6687  0.6690 -1.0646
 5023TIP3    H236561   2.677   3.079   1.228 -0.7187  0.7508  0.7682
 5024TIP3   OH236562   3.921   1.514   0.851  0.2197  0.1352  0.0033
 5024TIP3    H136563   3.827   1.515   0.868  0.5845  2.5090  2.3157
 5024TIP3    H236564   3.942   1.423   0.833 -2.5261 -0.4002 -0.5700
 5025TIP3   OH236565   2.302   0.535  16.819  0.6441  0.1576  0.3812
 5025TIP3    H136566   2.353   0.615  16.832 -1.2720  0.9538  3.4374
 5025TIP3    H236567   2.325   0.480  16.893  0.7922 -1.5628 -0.9038
 5026TIP3   OH236568   4.763   6.651   0.745  0.5081 -0.1328 -0.5957
 5026TIP3    H136569   4.719   6.653   0.830  0.4058 -1.8681 -0.5820
 5026TIP3    H236570   4.801   6.564   0.741  1.9863  0.5539 -1.6031
 5027TIP3   OH236571   2.210   1.236  11.343 -0.1506 -0.1077 -0.4603
 5027TIP3    H136572   2.258   1.247  11.261  0.6147  0.1973  0.0227
 5027TIP3    H236573   2.125   1.200  11.317 -0.4670  1.3817 -1.5100
 5028TIP3   OH236574   2.025   1.328   4.408 -0.3485 -0.0956  0.8883
 5028TIP3    H136575   2.093   1.313   4.474 -0.1023  0.2119  0.7018
 5028TIP3    H236576   1.952   1.367   4.457 -0.5504 -0.7989  1.1628
 5029TIP3   OH236577   2.506   4.105  16.320  0.6863  0.4864  0.1793
 5029TIP3    H136578   2.414   4.105  16.346  0.2681  1.6216 -1.2431
 5029TIP3    H236579   2.506   4.136  16.229  2.6438  2.3176  0.7644
 5030TIP3   OH236580   2.944   0.489   5.923  0.0737 -0.4779  0.0028
 5030TIP3    H136581   2.891   0.568   5.922 -0.3254 -0.7527 -0.8742
 5030TIP3    H236582   3.021   0.512   5.976  0.9876  1.1750 -1.9663
 5031TIP3   OH236583   5.171   3.984  11.063 -0.1213 -0.1824  0.1241
 5031TIP3    H136584   5.250   3.959  11.111 -0.3079 -0.5214  0.2538
 5031TIP3    H236585   5.168   3.925  10.988 -0.6322 -0.6522  0.5042
 5032TIP3   OH236586   3.886   3.941   0.167  0.1259  0.1764  0.3279
 5032TIP3    H136587   3.961   3.984   0.127 -2.1802  1.0223 -3.3033
 5032TIP3    H236588   3.867   3.867   0.110 -1.2969 -0.4939  1.6402
 5033TIP3   OH236589   4.020   6.170   4.567  0.4507  0.1952 -0.0185
 5033TIP3    H136590   4.035   6.263   4.585  3.1626 -0.2173  0.0693
 5033TIP3    H236591   3.990   6.134   4.651  1.1261  0.6734  0.4351
 5034TIP3   OH236592   1.919   0.101  13.543 -0.0546 -0.5868  0.4260
 5034TIP3    H136593   1.862   0.054  13.483  1.4596  0.2527 -1.7132
 5034TIP3    H236594   1.985   0.037  13.570  0.1881 -0.5360 -0.0493
 5035TIP3   OH236595   2.001   1.221   5.087  0.2042 -0.2894 -0.5493
 5035TIP3    H136596   1.957   1.166   5.152 -0.7796  0.2523 -0.7498
 5035TIP3    H236597   2.008   1.165   5.010 -0.9645 -0.0790 -0.8142
 5036TIP3   OH236598   5.313   5.390   5.713  0.1657 -0.1667 -0.1074
 5036TIP3    H136599   5.347   5.353   5.795  0.2667 -1.1542 -0.5836
 5036TIP3    H236600   5.244   5.450   5.741  0.3347 -0.3451  0.7199
 5037TIP3   OH236601   1.503   1.429  13.670  0.2979 -0.3061  0.2418
 5037TIP3    H136602   1.516   1.470  13.756  2.1937  0.4644 -0.3913
 5037TIP3    H236603   1.564   1.356  13.669 -1.3087 -1.6758  0.3898
 5038TIP3   OH236604   4.834   4.793  16.885 -0.4401  0.0237 -0.1426
 5038TIP3    H136605   4.783   4.818  16.809 -2.0230  0.9892  1.1951
 5038TIP3    H236606   4.890   4.868  16.903 -2.0753  0.9366  1.2822
 5039TIP3   OH236607   5.331   6.571  15.448 -0.0323  0.7062  0.2420
 5039TIP3    H136608   5.311   6.627  15.373  0.2867  0.8800  0.2863
 5039TIP3    H236609   5.358   6.631  15.517 -1.2583  0.6273  0.8103
 5040TIP3   OH236610   1.197   2.402   3.220 -0.2907 -0.3087  0.3385
 5040TIP3    H136611   1.268   2.466   3.214  0.4141 -1.2113 -1.1962
 5040TIP3    H236612   1.196   2.375   3.311  0.3451  0.8232  0.6866
 5041TIP3   OH236613   2.748   6.812   1.908  0.3799 -0.0428  0.3459
 5041TIP3    H136614   2.712   6.886   1.860 -1.4217 -1.7721 -1.0664
 5041TIP3    H236615   2.770   6.847   1.994  1.5260  2.5813 -0.9773
 5042TIP3   OH236616   3.471   0.397   3.888 -0.7639  0.2895  0.3165
 5042TIP3    H136617   3.441   0.474   3.840 -0.1712 -0.4031 -1.1862
 5042TIP3    H236618   3.565   0.411   3.899 -0.2447 -1.2107 -1.8788
 5043TIP3   OH236619   1.176   0.820  12.877 -0.4730  0.2273  0.0199
 5043TIP3    H136620   1.190   0.811  12.783 -2.6778  1.1291 -0.4167
 5043TIP3    H236621   1.240   0.885  12.905  0.8013 -0.7007 -0.6692
 5044TIP3   OH236622   1.707   2.349   3.951 -0.0383 -0.0997 -0.4687
 5044TIP3    H136623   1.651   2.272   3.945  1.1825 -0.9931 -0.6272
 5044TIP3    H236624   1.795   2.313   3.964  0.3725  1.2956  0.6623
 5045TIP3   OH236625   0.459   0.495   4.773 -0.0720 -0.0781  0.7229
 5045TIP3    H136626   0.429   0.497   4.864  0.9554  0.8099  1.0467
 5045TIP3    H236627   0.539   0.547   4.772 -0.0210 -0.1477 -0.6794
 5046TIP3   OH236628   6.070   0.966  13.423 -0.6518  0.8964 -0.2903
 5046TIP3    H136629   6.092   1.001  13.337  0.7009  1.7455  0.3926
 5046TIP3    H236630   6.117   0.883  13.427 -0.8648  0.7656 -0.4242
 5047TIP3   OH236631   1.784   3.897   2.326  0.2658  0.4884  0.4550
 5047TIP3    H136632   1.717   3.911   2.393  1.8267 -1.2171  2.4219
 5047TIP3    H236633   1.779   3.804   2.306  2.6914  0.1572  1.3196
 5048TIP3   OH236634   0.492   4.764   4.064  0.1371 -0.0929 -0.0525
 5048TIP3    H136635   0.420   4.801   4.115  1.6891 -0.0998  2.2319
 5048TIP3    H236636   0.519   4.834   4.005 -1.9946 -0.2385 -1.2454
 5049TIP3   OH236637   5.588   1.955   0.231  0.5937  0.0672  0.5444
 5049TIP3    H136638   5.570   1.917   0.145  2.0426 -1.7982  1.0289
 5049TIP3    H236639   5.538   1.901   0.292  3.2419 -1.6086  1.3165
 5050TIP3   OH236640   1.331   5.203  16.579  0.0297 -0.0988  0.0599
 5050TIP3    H136641   1.268   5.269  16.609 -0.5859 -0.8139  0.3538
 5050TIP3    H236642   1.287   5.157  16.508  0.6818  0.1909 -0.5396
 5051TIP3   OH236643   6.215   1.859   2.570  0.0161  0.6042  0.3598
 5051TIP3    H136644   6.174   1.936   2.610 -1.2599 -0.3374  0.8623
 5051TIP3    H236645   6.165   1.843   2.491  0.1391  0.1530  0.3728
 5052TIP3   OH236646   2.742   1.427  16.515  0.0731 -0.3059 -0.1284
 5052TIP3    H136647   2.654   1.389  16.517 -0.7925  1.6714  1.4910
 5052TIP3    H236648   2.731   1.514  16.553  2.9078 -0.3503  0.8895
 5053TIP3   OH236649   1.736   1.470   6.010  0.3073  0.6196  0.4709
 5053TIP3    H136650   1.738   1.495   6.103  3.0092 -0.7911  0.8612
 5053TIP3    H236651   1.780   1.385   6.008  0.1025  0.5416 -2.0931
 5054TIP3   OH236652   3.667   4.538  15.955  0.3189  0.1211  0.3503
 5054TIP3    H136653   3.642   4.446  15.954 -0.3187  0.2815 -1.4062
 5054TIP3    H236654   3.656   4.566  15.864  0.4309  1.9461  0.8820
 5055TIP3   OH236655   1.405   4.763   0.630 -0.2183  0.2354 -0.0729
 5055TIP3    H136656   1.329   4.816   0.657 -2.0691 -2.0714 -0.5968
 5055TIP3    H236657   1.368   4.678   0.608  2.5777 -0.9854 -0.2386
 5056TIP3   OH236658   4.651   1.923   5.837 -0.2064  0.5204  0.5391
 5056TIP3    H136659   4.674   1.940   5.929  1.7577  0.1645  0.1355
 5056TIP3    H236660   4.701   1.845   5.815 -0.6796  0.6086 -0.8388
 5057TIP3   OH236661   2.226   4.073   4.282  0.5982 -0.9486  0.2639
 5057TIP3    H136662   2.179   4.156   4.276  0.7995 -0.9063 -0.6891
 5057TIP3    H236663   2.162   4.012   4.321  0.0464 -0.6678 -0.2028
 5058TIP3   OH236664   4.452   1.896   3.223 -0.5166 -0.1426  0.2810
 5058TIP3    H136665   4.425   1.981   3.256  1.8457  0.6895  0.1858
 5058TIP3    H236666   4.486   1.914   3.135  1.4095 -0.9091  0.8356
 5059TIP3   OH236667   2.644   6.183  17.220  0.0537  0.2768 -0.1916
 5059TIP3    H136668   2.618   6.239  17.147 -0.2590 -1.2842 -1.2862
 5059TIP3    H236669   2.740   6.188  17.220  0.0140  1.2491  0.0834
 5060TIP3   OH236670   6.016   5.607  16.212  0.4623  0.0341  0.1423
 5060TIP3    H136671   5.925   5.598  16.184  0.3570  0.9928  0.1520
 5060TIP3    H236672   6.024   5.550  16.288  0.4486 -1.7245 -1.1542
 5061TIP3   OH236673   4.637   1.973  16.201 -0.0756 -0.4783 -0.1048
 5061TIP3    H136674   4.670   2.042  16.144  0.5241 -0.2807  0.4745
 5061TIP3    H236675   4.626   2.014  16.286  0.0368 -1.0242  0.1793
 5062TIP3   OH236676   2.817   1.982  12.900  0.0519 -0.3761  0.5856
 5062TIP3    H136677   2.778   1.910  12.851 -1.7173  1.1631 -0.3097
 5062TIP3    H236678   2.892   2.010  12.847 -0.0715 -0.6510  0.2666
 5063TIP3   OH236679   6.287   6.286   6.045 -0.0187 -0.5950 -0.4522
 5063TIP3    H136680   6.348   6.230   6.093 -1.1959 -0.3492  1.3581
 5063TIP3    H236681   6.227   6.320   6.111 -0.5465  1.2432 -1.8110
 5064TIP3   OH236682   3.420   5.525  10.355  0.0656  0.5717 -0.2951
 5064TIP3    H136683   3.485   5.494  10.291  1.4477  0.1528  1.2639
 5064TIP3    H236684   3.448   5.615  10.376 -1.0696  1.1361 -1.1383
 5065TIP3   OH236685   5.236   5.961  16.770  0.3856 -0.3011 -0.2755
 5065TIP3    H136686   5.273   5.962  16.859 -1.5476 -0.2290  0.5630
 5065TIP3    H236687   5.209   5.871  16.756 -1.8826  0.2483  0.3456
 5066TIP3   OH236688   5.857   2.826   1.446  0.2811  0.0128  0.4997
 5066TIP3    H136689   5.852   2.914   1.407  1.8497  0.4954  1.3763
 5066TIP3    H236690   5.840   2.767   1.372 -1.5826  1.0560  0.0549
 5067TIP3   OH236691   1.204   4.129  13.903 -0.3077 -0.7100  0.5768
 5067TIP3    H136692   1.231   4.042  13.875  2.0539 -0.6622  2.5239
 5067TIP3    H236693   1.275   4.186  13.874 -0.7618  0.2261  1.2829
 5068TIP3   OH236694   0.825   4.167  13.812  0.1543 -0.5130 -0.5849
 5068TIP3    H136695   0.818   4.252  13.855  2.5395 -0.3926 -0.3582
 5068TIP3    H236696   0.871   4.186  13.730  0.2193 -1.5012 -0.7821
 5069TIP3   OH236697   0.267   4.694   4.593  0.1734  0.1932  0.5465
 5069TIP3    H136698   0.224   4.670   4.511 -2.7159 -2.1037  2.6078
 5069TIP3    H236699   0.344   4.637   4.596 -0.7413 -1.0949  0.2875
 5070TIP3   OH236700   3.436   3.722  13.601 -0.0797 -0.3655  0.6034
 5070TIP3    H136701   3.344   3.739  13.578  1.0651  2.3512 -2.2011
 5070TIP3    H236702   3.455   3.636  13.562 -0.7494  0.1561 -0.9087
 5071TIP3   OH236703   1.448   5.705   5.306 -0.7542 -0.6661  0.2761
 5071TIP3    H136704   1.517   5.764   5.275  1.2637 -2.5815  0.9754
 5071TIP3    H236705   1.448   5.716   5.401 -1.5662 -0.5443  0.2686
 5072TIP3   OH236706   0.018   0.118   5.148  0.1178  0.4591  0.1990
 5072TIP3    H136707   0.002   0.036   5.195  0.0881  0.0607 -0.4938
 5072TIP3    H236708  -0.070   0.149   5.124  0.2871 -1.8201 -3.7634
 5073TIP3   OH236709   3.002   4.102   0.367 -0.4622 -0.1079  0.1122
 5073TIP3    H136710   3.092   4.123   0.342  0.4395 -3.3218  0.3993
 5073TIP3    H236711   2.989   4.012   0.336 -3.5822  0.3015  0.0733
 5074TIP3   OH236712   6.606   0.565  14.768  0.3001 -0.3332 -0.4469
 5074TIP3    H136713   6.647   0.642  14.806  1.5452 -0.8524 -0.7168
 5074TIP3    H236714   6.625   0.494  14.829  1.6167 -1.0051 -1.5879
 5075TIP3   OH236715   3.216   2.819  16.385 -0.5269 -0.3951  0.0333
 5075TIP3    H136716   3.283   2.880  16.416 -0.2056 -0.7116 -0.0399
 5075TIP3    H236717   3.238   2.806  16.292 -0.4490 -0.8223  0.1144
 5076TIP3   OH236718   3.662   0.660   5.782 -0.3139  0.4627 -0.3760
 5076TIP3    H136719   3.639   0.738   5.833 -0.7471  0.0009  0.1405
 5076TIP3    H236720   3.581   0.609   5.778  0.3191 -0.6199  0.4751
 5077TIP3   OH236721   3.398   4.864  13.888 -0.0413  0.3273 -0.0565
 5077TIP3    H136722   3.477   4.917  13.895  1.7321 -2.1512 -0.7598
 5077TIP3    H236723   3.424   4.786  13.839 -2.4825 -1.3447  1.1266
 5078TIP3   OH236724   2.587   5.869  12.610  0.1616 -0.0347 -0.0508
 5078TIP3    H136725   2.678   5.876  12.582  0.5438 -1.8922  0.6907
 5078TIP3    H236726   2.549   5.801  12.554 -0.8490  0.8522 -0.4871
 5079TIP3   OH236727   1.325   0.778   4.785 -0.5833  0.1526 -0.0320
 5079TIP3    H136728   1.257   0.804   4.723  0.6331  1.0195 -1.0201
 5079TIP3    H236729   1.369   0.704   4.742 -1.8641 -1.4178  1.2817
 5080TIP3   OH236730   3.227   5.494   0.571  0.1115  0.6594  0.3760
 5080TIP3    H136731   3.320   5.475   0.583  0.0700  1.5273  2.3741
 5080TIP3    H236732   3.182   5.433   0.630 -0.6411 -0.1251 -0.9709
 5081TIP3   OH236733   1.253   6.225   6.334 -0.0805  0.1614  0.0285
 5081TIP3    H136734   1.179   6.199   6.388  0.0592 -0.7319 -0.2068
 5081TIP3    H236735   1.242   6.177   6.252  0.8009 -0.0615  0.0264
 5082TIP3   OH236736   3.672   6.249   5.684 -0.0428  0.0340  0.0957
 5082TIP3    H136737   3.767   6.240   5.676  0.0341  0.5552  0.3968
 5082TIP3    H236738   3.653   6.337   5.652 -0.6942 -0.8699 -2.0926
 5083TIP3   OH236739   2.710   1.950   0.267  0.0750  0.1345  0.2181
 5083TIP3    H136740   2.776   2.015   0.293  0.6543 -0.2744 -0.2136
 5083TIP3    H236741   2.703   1.959   0.172  0.6870 -0.9060  0.0556
 5084TIP3   OH236742   5.978   4.417   1.248  0.1148 -0.5691  0.5317
 5084TIP3    H136743   5.985   4.459   1.162 -1.6348  1.6852  1.4333
 5084TIP3    H236744   5.884   4.414   1.266  0.4202 -1.6508  2.0698
 5085TIP3   OH236745   0.269   2.528  15.872 -0.5360 -0.6871 -0.0936
 5085TIP3    H136746   0.358   2.550  15.899 -0.7271 -0.6304  0.4999
 5085TIP3    H236747   0.278   2.492  15.784  0.1499 -1.3276  0.2398
 5086TIP3   OH236748   3.321   0.247   6.382 -0.1908  0.2001 -0.3480
 5086TIP3    H136749   3.232   0.279   6.393 -0.1502  0.0369  0.4481
 5086TIP3    H236750   3.372   0.325   6.362 -0.5703  0.2421 -1.2063
 5087TIP3   OH236751   0.311   5.037   0.724 -0.5632 -0.3411  0.2934
 5087TIP3    H136752   0.245   5.000   0.666  0.7176 -1.1334 -0.6932
 5087TIP3    H236753   0.347   4.962   0.772 -0.5477  0.1101  0.9982
 5088TIP3   OH236754   0.107   2.111   3.506 -0.3417  0.2100 -0.0250
 5088TIP3    H136755   0.194   2.084   3.478 -0.6347 -0.0914 -0.6845
 5088TIP3    H236756   0.052   2.095   3.429 -0.8359  1.1168  0.1298
 5089TIP3   OH236757   5.284   0.070   3.398 -0.1916 -0.0935 -0.4197
 5089TIP3    H136758   5.236   0.027   3.327 -0.9375  0.0476 -0.0070
 5089TIP3    H236759   5.261   0.021   3.476 -0.0308  0.2662 -0.1415
 5090TIP3   OH236760   5.911   4.590  16.087 -0.4872  0.1849 -0.5174
 5090TIP3    H136761   5.951   4.674  16.109 -0.0067 -0.9627  3.2663
 5090TIP3    H236762   5.984   4.529  16.086 -1.3435 -0.8638  0.5510
 5091TIP3   OH236763   3.582   1.407   2.040 -0.1972  0.3304 -0.2882
 5091TIP3    H136764   3.494   1.384   2.071  0.9692 -0.4507  2.6052
 5091TIP3    H236765   3.595   1.351   1.962 -0.5305 -2.9824  1.9197
 5092TIP3   OH236766   1.069   4.491  16.152 -0.0560 -0.6091  0.7157
 5092TIP3    H136767   0.998   4.509  16.213 -0.7556 -0.0713 -0.2488
 5092TIP3    H236768   1.071   4.568  16.094  0.4960 -1.1756 -0.0285
 5093TIP3   OH236769   1.172   5.214  16.157 -0.1287  0.1457 -0.7580
 5093TIP3    H136770   1.252   5.266  16.149  0.0955  0.2192  1.6277
 5093TIP3    H236771   1.149   5.191  16.067  1.2680  2.0902 -1.6385
 5094TIP3   OH236772   0.993   4.632  12.939 -0.1302 -0.0872 -0.4067
 5094TIP3    H136773   1.035   4.705  12.893 -1.5826  0.8906 -0.2332
 5094TIP3    H236774   0.913   4.616  12.889 -0.5534 -0.5648  0.4225
 5095TIP3   OH236775   4.819   4.422  13.556 -0.3458  0.0829 -0.0722
 5095TIP3    H136776   4.899   4.433  13.609 -0.8210  2.0346  0.2964
 5095TIP3    H236777   4.850   4.386  13.473  0.6394 -1.3059  0.8803
 5096TIP3   OH236778   5.201   0.629   0.812  0.3106 -0.5248  0.0640
 5096TIP3    H136779   5.128   0.570   0.834  0.6687 -0.6162  1.0283
 5096TIP3    H236780   5.214   0.682   0.891 -0.3587  1.2350 -0.9831
 5097TIP3   OH236781   0.574   3.345   5.090  0.0729  0.2157  0.2147
 5097TIP3    H136782   0.525   3.302   5.020 -0.7723  0.4638  0.6434
 5097TIP3    H236783   0.506   3.378   5.149  0.7689  0.4358  0.8903
 5098TIP3   OH236784   4.861   3.420  12.441  0.2688  0.8510  0.7767
 5098TIP3    H136785   4.922   3.352  12.471 -0.4693 -1.2514 -2.1428
 5098TIP3    H236786   4.894   3.444  12.354 -2.6491  0.1291 -0.5881
 5099TIP3   OH236787   4.497   6.658   6.605 -0.3684 -0.0599  0.0539
 5099TIP3    H136788   4.480   6.748   6.579 -0.2076 -0.2053 -0.5819
 5099TIP3    H236789   4.432   6.606   6.557 -0.9899 -0.2057  1.0500
 5100TIP3   OH236790   1.386   4.698  11.577 -0.0077 -0.2375 -0.1786
 5100TIP3    H136791   1.457   4.756  11.550 -0.2854  0.1740 -0.0321
 5100TIP3    H236792   1.313   4.722  11.520 -0.6511  0.7547  1.0348
 5101TIP3   OH236793   4.178   2.766   0.574  0.1706 -0.1092 -0.3712
 5101TIP3    H136794   4.113   2.819   0.620 -0.2626 -1.0572  0.1267
 5101TIP3    H236795   4.217   2.825   0.511  0.3507  1.0682  0.8204
 5102TIP3   OH236796   4.205   3.320   4.203  0.2095 -0.1702 -0.3365
 5102TIP3    H136797   4.273   3.351   4.262  0.9136 -0.0255 -1.2194
 5102TIP3    H236798   4.185   3.231   4.235 -0.0750  0.2410  0.6734
 5103TIP3   OH236799   3.516   4.871   0.696 -0.1227 -0.3117  0.2792
 5103TIP3    H136800   3.477   4.853   0.781 -0.5533 -0.2098  0.1035
 5103TIP3    H236801   3.541   4.785   0.662  1.3126 -0.2394  1.1075
 5104TIP3   OH236802   1.620   6.386   1.646  0.0071  0.0377  0.2890
 5104TIP3    H136803   1.628   6.367   1.740  1.1931 -2.5010 -0.2801
 5104TIP3    H236804   1.696   6.442   1.627  0.9044 -1.0945  0.4666
 5105TIP3   OH236805   4.420   2.165   0.993 -0.1455  0.0009  0.2830
 5105TIP3    H136806   4.476   2.122   1.058 -0.5227  0.2052  0.7532
 5105TIP3    H236807   4.380   2.238   1.041  0.4615  0.8530 -0.4939
 5106TIP3   OH236808   1.713   6.425  12.388 -0.3079  0.4714 -0.1461
 5106TIP3    H136809   1.735   6.332  12.388  1.4323  0.8654  0.1971
 5106TIP3    H236810   1.716   6.450  12.481 -1.2705  0.7506 -0.1906
 5107TIP3   OH236811   0.225   5.883  16.047 -0.2078 -0.1081 -0.3384
 5107TIP3    H136812   0.231   5.903  15.954  0.4356 -1.2786 -0.5542
 5107TIP3    H236813   0.220   5.788  16.051 -2.6533  0.0078  0.6929
 5108TIP3   OH236814   2.851   3.116   0.201 -0.4784  0.1144  0.5396
 5108TIP3    H136815   2.807   3.043   0.246 -0.5847 -0.4537 -0.4812
 5108TIP3    H236816   2.848   3.093   0.109 -2.0272  2.2428  0.0221
 5109TIP3   OH236817   5.130   2.301  14.960 -0.4129  0.1736  0.0167
 5109TIP3    H136818   5.055   2.290  14.902  1.6543 -2.1699 -2.3696
 5109TIP3    H236819   5.194   2.350  14.908  0.6353 -0.0342  1.0808
 5110TIP3   OH236820   1.203   0.564  17.240  0.9227 -0.7200 -0.0073
 5110TIP3    H136821   1.185   0.654  17.269  1.1366 -1.1524  1.5361
 5110TIP3    H236822   1.226   0.573  17.148 -1.0439  0.5756 -0.4144
 5111TIP3   OH236823   5.133   1.515  15.735 -0.2652  0.5069  0.4882
 5111TIP3    H136824   5.139   1.607  15.711 -2.0421  0.8154  1.0956
 5111TIP3    H236825   5.039   1.499  15.741  0.0396 -0.3713  3.9928
 5112TIP3   OH236826   2.359   6.334   4.721  0.2871  0.2544  0.3600
 5112TIP3    H136827   2.452   6.344   4.700  0.5984 -1.0424  1.0709
 5112TIP3    H236828   2.355   6.350   4.816 -0.2900  0.7147  0.2616
 5113TIP3   OH236829   2.466   1.567  14.956 -0.4675  0.1653 -0.1929
 5113TIP3    H136830   2.503   1.568  14.867  0.0761 -1.2552  0.0103
 5113TIP3    H236831   2.376   1.598  14.945 -0.3996  0.0051 -1.2427
 5114TIP3   OH236832   4.098   3.523   0.611 -0.1684 -0.1634  0.5675
 5114TIP3    H136833   4.127   3.438   0.644  0.7306 -0.7303 -1.5839
 5114TIP3    H236834   4.008   3.509   0.583  0.4131 -0.8411 -1.0874
 5115TIP3   OH236835   2.769   6.590   2.297  0.0490  0.4707  0.0084
 5115TIP3    H136836   2.770   6.672   2.346 -0.1116  0.3320  0.2403
 5115TIP3    H236837   2.859   6.581   2.265  0.5489 -0.2032  1.5456
 5116TIP3   OH236838   1.403   0.416   2.096  0.8300  0.6643 -0.0062
 5116TIP3    H136839   1.432   0.506   2.082 -1.3316  1.4261  0.1729
 5116TIP3    H236840   1.310   0.424   2.121  1.8352 -1.2449  4.9814
 5117TIP3   OH236841   5.755   6.214  15.520 -0.0827  0.2300 -0.7099
 5117TIP3    H136842   5.784   6.206  15.610  1.7850 -2.1383 -1.4516
 5117TIP3    H236843   5.760   6.308  15.501  1.3585  0.5327  1.0501
 5118TIP3   OH236844   6.807   4.929  16.916 -0.2355  0.0674  0.0041
 5118TIP3    H136845   6.752   4.973  16.981  1.1401  2.5955 -0.4669
 5118TIP3    H236846   6.765   4.845  16.901 -2.7512  1.0653  1.2598
 5119TIP3   OH236847   0.988   0.745  15.945  0.0075 -0.0076  0.5028
 5119TIP3    H136848   1.065   0.709  15.902  1.1523  1.4790  1.2549
 5119TIP3    H236849   0.938   0.669  15.974  1.7024 -0.9956  0.8805
 5120TIP3   OH236850   0.637   1.798   5.023  0.4161 -0.1759 -0.1579
 5120TIP3    H136851   0.639   1.791   4.927  1.4594  0.9807 -0.2361
 5120TIP3    H236852   0.698   1.730   5.052 -0.4512 -1.0186 -0.2673
 5121TIP3   OH236853   6.271   1.534   0.057  0.8997 -0.4319 -0.1163
 5121TIP3    H136854   6.358   1.506   0.029  1.2940  0.7796 -0.1534
 5121TIP3    H236855   6.233   1.575  -0.022  0.9235  0.4672  0.3322
 5122TIP3   OH236856   4.228   4.587  14.582  0.4785 -0.0473 -0.2918
 5122TIP3    H136857   4.243   4.539  14.663 -1.4019  0.0639  0.1405
 5122TIP3    H236858   4.273   4.535  14.515 -0.5942 -1.8498  0.3352
 5123TIP3   OH236859   5.183   1.012  14.152 -0.2292 -0.2710  0.0057
 5123TIP3    H136860   5.187   1.108  14.150 -1.0862 -0.1896  1.3215
 5123TIP3    H236861   5.228   0.984  14.073  0.7524  1.2023  0.0339
 5124TIP3   OH236862   4.286   5.158  11.840 -0.0186  0.4318 -0.1417
 5124TIP3    H136863   4.202   5.185  11.877  0.1928 -1.5015  1.8220
 5124TIP3    H236864   4.279   5.064  11.829  0.8435  0.6242 -2.7691
 5125TIP3   OH236865   5.023   0.182   5.394  0.3882  0.5162 -0.3892
 5125TIP3    H136866   4.953   0.167   5.457  0.5417  0.2233 -0.2906
 5125TIP3    H236867   5.054   0.094   5.371  1.7296  0.6963  0.6892
 5126TIP3   OH236868   3.351   0.521  13.212  0.8868  0.1666 -0.2889
 5126TIP3    H136869   3.278   0.505  13.152  0.1593  1.0075  0.3396
 5126TIP3    H236870   3.358   0.440  13.262  0.0505  0.2416 -0.0276
 5127TIP3   OH236871   5.429   5.134   5.530 -0.5927 -0.1361 -0.3452
 5127TIP3    H136872   5.510   5.084   5.529 -0.6224 -0.2111  0.8292
 5127TIP3    H236873   5.360   5.069   5.540 -0.6433  0.1243  0.9974
 5128TIP3   OH236874   4.193   5.990   6.698  0.7530 -0.1148  0.4339
 5128TIP3    H136875   4.105   5.977   6.734  1.0679 -2.1924  0.5363
 5128TIP3    H236876   4.184   5.969   6.605  1.1757 -0.4627  0.4726
 5129TIP3   OH236877   4.644   3.866  15.988 -0.5867 -0.6901  0.1403
 5129TIP3    H136878   4.663   3.793  15.930 -0.4556 -0.5211 -0.0339
 5129TIP3    H236879   4.575   3.834  16.046  0.0791 -1.2453  0.6355
 5130TIP3   OH236880   2.201   3.696  11.580  0.8604  0.6136 -0.3752
 5130TIP3    H136881   2.200   3.603  11.602 -0.8398  0.1197 -2.4615
 5130TIP3    H236882   2.291   3.724  11.598  1.3273 -1.3606  0.4639
 5131TIP3   OH236883   5.419   1.041   6.311  0.0589  0.5259  0.4017
 5131TIP3    H136884   5.398   0.954   6.346  2.8592 -2.1728 -4.1407
 5131TIP3    H236885   5.359   1.052   6.237  1.4546  1.3434 -0.6249
 5132TIP3   OH236886   5.816   6.543   4.976 -0.4996 -0.0955 -0.6439
 5132TIP3    H136887   5.834   6.463   4.926 -0.7656  0.2310 -1.2678
 5132TIP3    H236888   5.731   6.527   5.018  0.0933 -0.6843  0.3544
 5133TIP3   OH236889   1.848   0.283   1.067  0.2762 -0.3559  0.2327
 5133TIP3    H136890   1.887   0.240   0.990  0.1526 -0.8000  0.4196
 5133TIP3    H236891   1.775   0.334   1.031 -0.3502 -1.2972  0.1819
 5134TIP3   OH236892   3.507   6.253   2.505 -0.6017  0.4341 -0.0033
 5134TIP3    H136893   3.552   6.290   2.581 -2.0418 -0.0215  1.1077
 5134TIP3    H236894   3.431   6.208   2.542 -0.9011 -0.4571 -1.6605
 5135TIP3   OH236895   0.215   5.740  13.855 -0.4867  0.0626  0.3130
 5135TIP3    H136896   0.148   5.712  13.918 -1.0627  0.5234 -0.0854
 5135TIP3    H236897   0.165   5.785  13.786  0.3277  1.1964  0.4557
 5136TIP3   OH236898   5.076   3.252  15.456  0.0762  0.0482 -0.2931
 5136TIP3    H136899   5.161   3.295  15.463  0.1255  0.0221 -0.7148
 5136TIP3    H236900   5.031   3.298  15.385 -0.8864  1.1161  0.9823
 5137TIP3   OH236901   5.551   0.892   0.337  0.2347  0.7137 -0.1232
 5137TIP3    H136902   5.555   0.803   0.302  1.9463 -0.0505  1.9210
 5137TIP3    H236903   5.526   0.946   0.262 -0.5760 -1.4335 -1.4556
 5138TIP3   OH236904   3.779   4.564   1.375  0.6832  0.2106  0.7907
 5138TIP3    H136905   3.854   4.521   1.334 -0.3670 -0.7404 -0.1722
 5138TIP3    H236906   3.800   4.657   1.372  0.7668  0.1345 -1.6568
 5139TIP3   OH236907   1.180   4.864  12.144  0.2221 -0.0114 -0.0526
 5139TIP3    H136908   1.165   4.957  12.126  0.7774 -0.1739 -1.3800
 5139TIP3    H236909   1.142   4.819  12.069  1.8305 -0.7399 -0.4544
 5140TIP3   OH236910   2.975   4.688  16.546 -0.6359  0.1079  0.3819
 5140TIP3    H136911   2.905   4.741  16.508 -0.7251  0.8490  1.5587
 5140TIP3    H236912   3.056   4.725  16.510 -0.7366  0.5510  0.6188
 5141TIP3   OH236913   2.284   2.481  12.492  0.3651  0.5441  0.3961
 5141TIP3    H136914   2.377   2.470  12.474  0.3952  2.1862 -0.5734
 5141TIP3    H236915   2.276   2.462  12.586  1.3382 -1.4671  0.1047
 5142TIP3   OH236916   0.200   2.563   1.067 -0.2546  0.6248 -0.5398
 5142TIP3    H136917   0.286   2.576   1.105 -0.2840 -0.7122  0.0250
 5142TIP3    H236918   0.182   2.643   1.018  0.7463  1.4305  0.4015
 5143TIP3   OH236919   4.475   6.062   3.704 -0.0489  0.1614  0.8153
 5143TIP3    H136920   4.477   6.136   3.765  0.9175 -1.5266  2.8999
 5143TIP3    H236921   4.567   6.049   3.680 -0.3235  0.2207 -0.2900
 5144TIP3   OH236922   3.605   1.240  17.096 -0.1789 -0.0913  0.0221
 5144TIP3    H136923   3.672   1.175  17.119  1.1787  1.4276  0.4380
 5144TIP3    H236924   3.553   1.250  17.175  0.7469  0.6557  0.5536
 5145TIP3   OH236925   3.856   6.767   3.340 -0.4223 -0.7287  0.0230
 5145TIP3    H136926   3.867   6.851   3.383 -1.5617  0.0792 -1.2127
 5145TIP3    H236927   3.933   6.716   3.366 -0.0665  0.4493  1.3151
 5146TIP3   OH236928   0.846   2.663   2.523  0.3744  0.7251 -0.1077
 5146TIP3    H136929   0.796   2.627   2.449  1.6148  2.6608 -1.9704
 5146TIP3    H236930   0.798   2.743   2.546  0.5209  0.6171  0.5651
 5147TIP3   OH236931   6.304   2.887  15.134  0.1992  0.0280  0.0999
 5147TIP3    H136932   6.317   2.853  15.222  1.1554  0.2541  0.0586
 5147TIP3    H236933   6.386   2.865  15.088  0.0016  0.5564 -0.5178
 5148TIP3   OH236934   0.395   0.223   5.026 -0.6298 -0.6088  0.9132
 5148TIP3    H136935   0.487   0.196   5.025 -0.8624 -1.3741  0.3747
 5148TIP3    H236936   0.399   0.318   5.016  0.1585 -0.4784  2.2484
 5149TIP3   OH236937   5.766   3.604  12.199  0.0555  0.5579  0.3323
 5149TIP3    H136938   5.684   3.594  12.246  0.1445  0.0422  0.3800
 5149TIP3    H236939   5.825   3.539  12.238 -0.2860 -0.8744 -1.4195
 5150TIP3   OH236940   2.372   0.429  13.795  0.0496  0.1632  0.0063
 5150TIP3    H136941   2.444   0.476  13.838  0.6411  0.7988 -1.6337
 5150TIP3    H236942   2.308   0.496  13.775  0.1913  0.0296 -0.9230
 5151TIP3   OH236943   2.439   2.831  16.347 -0.5637 -0.5507 -0.3794
 5151TIP3    H136944   2.355   2.872  16.324  0.2350  0.5524 -1.3672
 5151TIP3    H236945   2.418   2.738  16.356 -2.0713 -0.1713  0.2546
 5152TIP3   OH236946   3.335   5.321  15.492  0.1199 -0.3410  0.1118
 5152TIP3    H136947   3.339   5.409  15.531 -0.1626 -0.0051 -0.5929
 5152TIP3    H236948   3.399   5.270  15.540  1.2884  0.6311 -0.3783
 5153TIP3   OH236949   3.459   3.313   0.016  0.0793  0.1404  0.1777
 5153TIP3    H136950   3.484   3.252   0.086 -0.5265  1.1208  1.2576
 5153TIP3    H236951   3.364   3.313   0.018  0.0789  1.0797  0.1405
 5154TIP3   OH236952   0.835   4.530  11.409  0.4872 -0.0736 -0.2159
 5154TIP3    H136953   0.769   4.526  11.341 -1.2444  0.1208  1.4044
 5154TIP3    H236954   0.881   4.446  11.404  1.0924  0.3536 -2.2678
 5155TIP3   OH236955   5.476   3.433   4.547 -0.6884  0.7200 -0.1913
 5155TIP3    H136956   5.545   3.486   4.507 -1.8749  0.8818 -2.0360
 5155TIP3    H236957   5.499   3.343   4.525 -2.5923  0.9386 -3.3191
 5156TIP3   OH236958   5.009   2.576  17.162 -0.2004  0.4779 -0.1356
 5156TIP3    H136959   5.004   2.508  17.095  0.6465 -0.0474  0.3323
 5156TIP3    H236960   5.065   2.539  17.230  1.2020  2.0734 -0.3950
 5157TIP3   OH236961   3.121   0.707  13.619 -0.6606 -0.3819  0.2366
 5157TIP3    H136962   3.209   0.724  13.651 -0.5548 -1.0248  0.2898
 5157TIP3    H236963   3.072   0.680  13.696 -1.2135  1.1107  0.4319
 5158TIP3   OH236964   0.533   1.687  11.215 -0.3146 -0.5632 -0.2207
 5158TIP3    H136965   0.548   1.698  11.121 -0.5870  1.3416 -0.0538
 5158TIP3    H236966   0.574   1.763  11.255 -1.7111 -0.4499  1.0431
 5159TIP3   OH236967   0.696   1.012  15.009  0.3653 -0.3639 -0.2006
 5159TIP3    H136968   0.789   1.016  15.029  0.3390  0.0443 -0.1481
 5159TIP3    H236969   0.653   1.026  15.093  0.2579 -0.7519 -0.1925
 5160TIP3   OH236970   3.466   3.265   6.246  0.0547  0.6099 -0.0508
 5160TIP3    H136971   3.511   3.297   6.168  0.1638 -0.0063 -0.2471
 5160TIP3    H236972   3.529   3.279   6.317  0.7367 -0.6344 -0.3912
 5161TIP3   OH236973   4.459   0.501  15.233  0.7315  0.4510 -0.0830
 5161TIP3    H136974   4.481   0.507  15.140  0.6222  1.8613 -0.0204
 5161TIP3    H236975   4.453   0.591  15.263 -1.1194  0.0535  0.8611
 5162TIP3   OH236976   4.627   5.048  16.939 -0.4995  0.2880 -0.9006
 5162TIP3    H136977   4.670   5.106  16.876 -0.0335  0.3372 -0.5383
 5162TIP3    H236978   4.536   5.075  16.938 -0.4422  0.4663 -1.3631
 5163TIP3   OH236979   3.254   0.576   3.403  0.1442  0.1340  0.2072
 5163TIP3    H136980   3.161   0.592   3.419 -0.0083  0.2705 -0.8177
 5163TIP3    H236981   3.270   0.609   3.315  1.5696  1.8198  1.0358
 5164TIP3   OH236982   4.925   5.077  12.567 -0.4740 -0.1019 -0.5696
 5164TIP3    H136983   4.833   5.058  12.549 -0.5686 -0.3401  0.1773
 5164TIP3    H236984   4.924   5.140  12.639  0.0013 -2.2646  1.4038
 5165TIP3   OH236985   6.381   4.314   0.175 -0.3526 -0.0152 -0.3221
 5165TIP3    H136986   6.326   4.283   0.103 -0.7440  0.9362 -0.4328
 5165TIP3    H236987   6.457   4.255   0.173 -2.4979 -2.9923  1.4367
 5166TIP3   OH236988   2.095   6.043  14.998 -0.7451  0.2577  0.3237
 5166TIP3    H136989   2.172   6.088  15.032 -1.1123  0.5532  0.7731
 5166TIP3    H236990   2.096   5.958  15.042 -1.3410  0.7240  1.2567
 5167TIP3   OH236991   1.513   6.672  11.522  0.4514  0.0785  0.3106
 5167TIP3    H136992   1.506   6.691  11.429 -1.0331 -1.4625  0.0856
 5167TIP3    H236993   1.595   6.713  11.549  0.6133  1.0144 -1.5434
 5168TIP3   OH236994   6.794   5.698   5.938  0.5694 -0.1787 -0.3181
 5168TIP3    H136995   6.820   5.777   5.984  1.0546 -0.3397 -0.3134
 5168TIP3    H236996   6.807   5.718   5.845  1.5337 -0.5529 -0.2675
 5169TIP3   OH236997   2.349   0.455  13.021  0.1490 -0.1275 -0.4078
 5169TIP3    H136998   2.403   0.527  12.989 -0.3673  0.8628  0.9440
 5169TIP3    H236999   2.260   0.478  12.997  0.1181 -0.9531 -1.1262
 5170TIP3   OH237000   3.881   1.362  11.576  1.1256 -0.1766 -0.0249
 5170TIP3    H137001   3.923   1.435  11.621  0.0398  0.5352 -0.1420
 5170TIP3    H237002   3.797   1.351  11.621  0.6510 -0.3892 -0.9512
 5171TIP3   OH237003   5.018   6.045  10.679 -0.2386  0.1045 -0.1103
 5171TIP3    H137004   4.990   6.116  10.622  0.8138  1.4110  0.9698
 5171TIP3    H237005   5.105   6.071  10.710  0.5446 -2.0527 -0.3699
 5172TIP3   OH237006   6.435   1.966   5.489  0.1276  0.1154  0.1846
 5172TIP3    H137007   6.365   2.027   5.470  0.2169  0.0167 -0.4579
 5172TIP3    H237008   6.452   1.921   5.406  0.1798 -0.6557  0.6092
 5173TIP3   OH237009   5.096   6.750  11.228  0.1775 -0.2132 -0.5497
 5173TIP3    H137010   5.039   6.803  11.283 -0.3635 -0.7145 -0.6187
 5173TIP3    H237011   5.082   6.784  11.139  0.2939 -0.0642 -0.5095
 5174TIP3   OH237012   5.591   3.356  14.430 -0.2491  0.1341  0.1053
 5174TIP3    H137013   5.635   3.287  14.480  0.2697 -1.0830 -1.9766
 5174TIP3    H237014   5.531   3.309  14.372 -0.9067  1.5256 -0.3684
 5175TIP3   OH237015   4.277   5.615  13.829  0.5091 -0.4852 -0.6444
 5175TIP3    H137016   4.213   5.666  13.779 -0.8989 -1.5015  0.0775
 5175TIP3    H237017   4.266   5.645  13.919  2.1548  0.4463 -0.7444
 5176TIP3   OH237018   0.141   4.130   2.927 -0.1159  0.0172  0.0496
 5176TIP3    H137019   0.108   4.061   2.984  1.1344  1.0559  2.0736
 5176TIP3    H237020   0.229   4.101   2.903 -0.4710 -0.2030 -1.0411
 5177TIP3   OH237021   5.132   6.716  10.753 -0.1903 -0.6840  0.5553
 5177TIP3    H137022   5.225   6.699  10.772  0.1138 -0.3603 -0.5975
 5177TIP3    H237023   5.086   6.639  10.788  0.5095 -0.8480  1.1302
 5178TIP3   OH237024   0.903   2.117   5.265 -0.6959 -0.2739  0.3733
 5178TIP3    H137025   0.884   2.135   5.358 -1.1567 -1.1538  0.4600
 5178TIP3    H237026   0.972   2.050   5.267  0.4982  0.9300  0.0637
 5179TIP3   OH237027   3.529   3.015   1.975 -0.1725  0.0461 -0.8047
 5179TIP3    H137028   3.514   2.930   2.016  1.1775  0.4442  0.5515
 5179TIP3    H237029   3.472   3.014   1.898  0.2017 -2.2912 -1.1091
 5180TIP3   OH237030   0.276   0.038   3.866  0.0086 -0.0933 -0.1735
 5180TIP3    H137031   0.308   0.048   3.956  1.9427 -0.2367 -0.8308
 5180TIP3    H237032   0.305   0.117   3.822 -0.5682 -0.2230 -0.7803
 5181TIP3   OH237033   2.948   2.278  11.726 -0.0766 -0.0474  0.3358
 5181TIP3    H137034   2.923   2.313  11.640  1.9565  0.6428 -0.0007
 5181TIP3    H237035   2.967   2.356  11.779  2.0295 -0.5397  0.3441
 5182TIP3   OH237036   4.339   6.139   5.574  0.5429 -0.0726 -0.4293
 5182TIP3    H137037   4.319   6.201   5.504  0.3658  0.2156 -0.1257
 5182TIP3    H237038   4.422   6.170   5.611 -0.1765  0.7240  0.5464
 5183TIP3   OH237039   3.453   1.496   4.135 -0.6815  0.6109 -0.0448
 5183TIP3    H137040   3.416   1.416   4.173  1.9887 -0.1808  0.9710
 5183TIP3    H237041   3.540   1.503   4.174 -0.1044  2.9309 -1.6739
 5184TIP3   OH237042   2.114   2.581  14.203 -0.3451  0.3722 -0.4185
 5184TIP3    H137043   2.193   2.619  14.165 -0.4850  0.2198 -0.8727
 5184TIP3    H237044   2.145   2.510  14.258 -0.1405  0.5577 -0.2968
 5185TIP3   OH237045   4.071   2.022  15.560 -0.1360  0.6343 -0.3741
 5185TIP3    H137046   4.101   1.933  15.573  0.1030  0.5651 -1.3633
 5185TIP3    H237047   4.150   2.072  15.537 -0.0419  1.3817  1.4677
 5186TIP3   OH237048   5.330   2.629  16.454 -0.4061  0.5449 -0.4507
 5186TIP3    H137049   5.378   2.618  16.372  0.4181 -0.3254  0.1358
 5186TIP3    H237050   5.253   2.574  16.444 -0.0776  0.0877 -0.4655
 5187TIP3   OH237051   3.234   2.399   1.273 -0.3664  0.1968  0.0377
 5187TIP3    H137052   3.270   2.478   1.313  0.5244 -0.2483  0.1321
 5187TIP3    H237053   3.239   2.333   1.342  1.0949 -0.5524 -0.7523
 5188TIP3   OH237054   6.676   1.581   2.457 -0.2394  0.0309 -0.0352
 5188TIP3    H137055   6.707   1.670   2.474 -1.1400  0.3791 -0.1846
 5188TIP3    H237056   6.590   1.577   2.499 -0.5682 -0.5009 -0.7343
 5189TIP3   OH237057   1.659   2.674  12.134  0.5943  0.0861 -0.1219
 5189TIP3    H137058   1.725   2.685  12.203 -1.3465  0.3515  1.7656
 5189TIP3    H237059   1.658   2.758  12.088  1.2624  0.2382  0.1381
 5190TIP3   OH237060   1.466   6.011   3.168 -0.1274 -0.4746  0.8047
 5190TIP3    H137061   1.535   6.065   3.209 -1.4120  0.7553  1.3764
 5190TIP3    H237062   1.418   5.974   3.242 -1.0380 -0.0977  0.3962
 5191TIP3   OH237063   0.080   2.568  14.049 -0.2281  0.3498  0.0564
 5191TIP3    H137064   0.075   2.553  14.143  1.2445 -1.5494 -0.1389
 5191TIP3    H237065  -0.010   2.561  14.019 -0.6389  0.4084  1.2487
 5192TIP3   OH237066   5.499   2.476  13.588  0.2277  0.3526  1.2449
 5192TIP3    H137067   5.443   2.553  13.594 -0.1627  0.1019  0.8406
 5192TIP3    H237068   5.490   2.446  13.498  1.1311  0.3997  1.1396
 5193TIP3   OH237069   4.910   3.058  13.598 -0.2880 -1.1567  0.1739
 5193TIP3    H137070   4.919   3.150  13.573  2.6520 -0.7442  2.4799
 5193TIP3    H237071   4.817   3.049  13.620 -0.8085  0.9925 -0.9477
 5194TIP3   OH237072   1.149   3.666   3.740  0.2567  0.6493 -0.3544
 5194TIP3    H137073   1.153   3.723   3.817  1.2009  0.7920 -0.5063
 5194TIP3    H237074   1.058   3.637   3.737  0.2397  0.5311  0.8952
 5195TIP3   OH237075   5.703   1.172   2.083 -0.2055  0.2797  0.5974
 5195TIP3    H137076   5.678   1.220   2.004 -2.6910  0.8708  1.6765
 5195TIP3    H237077   5.794   1.195   2.098  0.1872  0.4871 -1.8530
 5196TIP3   OH237078   4.630   4.612   4.192  0.3528  0.1846  0.5253
 5196TIP3    H137079   4.589   4.638   4.275 -1.9522 -1.0975 -0.1673
 5196TIP3    H237080   4.560   4.568   4.144  2.4478 -1.6464 -0.9182
 5197TIP3   OH237081   2.408   3.864  14.478 -0.6088  0.1740 -0.1401
 5197TIP3    H137082   2.410   3.787  14.535 -2.1816 -0.2882 -0.6671
 5197TIP3    H237083   2.408   3.938  14.538  1.9975 -0.1982  0.3445
 5198TIP3   OH237084   4.672   6.480   3.639  0.2983 -0.1818  0.2682
 5198TIP3    H137085   4.618   6.453   3.713 -0.9884  0.2025 -0.5184
 5198TIP3    H237086   4.749   6.521   3.679 -0.4297  0.1106  1.3902
 5199TIP3   OH237087   3.766   6.627  12.076 -0.2738 -0.6926  0.0356
 5199TIP3    H137088   3.684   6.644  12.031 -0.3116 -0.5633  0.1563
 5199TIP3    H237089   3.830   6.682  12.032 -0.5244  0.2577  0.8577
 5200TIP3   OH237090   5.012   1.231  15.496 -0.2459  0.1608  0.2883
 5200TIP3    H137091   4.999   1.150  15.544  0.9422 -0.2998 -0.1726
 5200TIP3    H237092   4.947   1.291  15.533  1.2317  0.1060  3.1018
 5201TIP3   OH237093   3.244   0.640  17.108 -0.3823 -0.0089  0.3171
 5201TIP3    H137094   3.317   0.661  17.051 -1.4245 -1.3603 -1.5655
 5201TIP3    H237095   3.197   0.570  17.063 -1.3558 -0.9837  2.7439
 5202TIP3   OH237096   1.886   3.649  16.350  0.0720 -0.8591 -0.3627
 5202TIP3    H137097   1.970   3.695  16.360 -0.1278 -0.4563 -0.5321
 5202TIP3    H237098   1.831   3.686  16.418 -0.3674 -0.2137 -1.0610
 5203TIP3   OH237099   0.675   5.927   2.697 -0.6232 -0.1879 -0.2504
 5203TIP3    H137100   0.634   5.856   2.648  2.4749 -2.7299  0.6621
 5203TIP3    H237101   0.728   5.974   2.633 -1.1038  0.0848 -0.4521
 5204TIP3   OH237102   2.197   4.968  13.207  0.0560  0.2587  0.7724
 5204TIP3    H137103   2.223   5.008  13.125 -1.7563 -0.5735 -0.2514
 5204TIP3    H237104   2.244   4.885  13.210 -0.6000 -0.1467  0.0903
 5205TIP3   OH237105   0.012   1.231  10.808  0.2191  0.3263 -0.0263
 5205TIP3    H137106   0.069   1.307  10.797  0.3533  0.1448 -0.6323
 5205TIP3    H237107  -0.013   1.233  10.900  1.0109  0.5501  0.1942
 5206TIP3   OH237108   1.835   5.329   2.254  0.2119  0.3525 -0.2016
 5206TIP3    H137109   1.930   5.316   2.257  0.1010 -0.6070 -0.8246
 5206TIP3    H237110   1.802   5.279   2.329  0.2842  1.5971  0.6885
 5207TIP3   OH237111   0.928   3.552  15.880  0.2675 -0.2875  0.2110
 5207TIP3    H137112   0.935   3.458  15.866  0.1585 -0.3082  0.2970
 5207TIP3    H237113   0.848   3.577  15.835  0.5845 -0.1451 -0.2794
 5208TIP3   OH237114   5.774   3.153  13.545  0.2008 -0.2442 -0.2779
 5208TIP3    H137115   5.679   3.153  13.548  0.1918 -0.5212 -0.5951
 5208TIP3    H237116   5.800   3.065  13.573  0.3639 -0.1797 -0.2189
 5209TIP3   OH237117   3.984   4.568  11.522 -0.0080  0.4530 -0.3669
 5209TIP3    H137118   3.899   4.531  11.544 -0.3708  1.5072  0.0147
 5209TIP3    H237119   4.047   4.512  11.569 -0.5057 -0.0724 -0.3188
 5210TIP3   OH237120   5.439   5.734   6.092 -0.2012 -0.3651 -0.7553
 5210TIP3    H137121   5.366   5.785   6.057 -1.8292 -1.7350  0.6092
 5210TIP3    H237122   5.452   5.769   6.180 -0.7712 -1.7281 -0.1289
 5211TIP3   OH237123   0.577   3.046   0.628 -0.0618  0.2282 -0.2893
 5211TIP3    H137124   0.665   3.023   0.600 -0.1812  0.9636 -1.3099
 5211TIP3    H237125   0.568   3.006   0.714  0.8030 -0.9532 -0.7243
 5212TIP3   OH237126   4.416   5.924  13.160 -0.2732  0.1188  0.4749
 5212TIP3    H137127   4.489   5.921  13.221 -0.9820 -0.1038  1.3347
 5212TIP3    H237128   4.386   6.015  13.163  0.0304  0.2342  0.0446
 5213TIP3   OH237129   5.563   6.006   6.020  0.0532 -0.1798 -0.5551
 5213TIP3    H137130   5.557   6.099   6.041  0.1045 -0.0479 -1.1284
 5213TIP3    H237131   5.480   5.969   6.051  0.6738 -0.2329  1.1016
 5214TIP3   OH237132   1.818   3.975  12.720  0.0068  0.1251  0.0587
 5214TIP3    H137133   1.877   4.050  12.721  0.8746 -0.5135 -1.6669
 5214TIP3    H237134   1.792   3.966  12.628 -1.5285 -0.5682  0.5423
 5215TIP3   OH237135   0.708   4.000   3.220  0.6231 -0.1372  0.9255
 5215TIP3    H137136   0.673   4.071   3.274 -1.7155 -0.5727  0.0169
 5215TIP3    H237137   0.719   3.927   3.282 -2.7005 -0.8496  0.7384
 5216TIP3   OH237138   0.773   6.576  12.350 -0.2270 -1.1343 -0.1844
 5216TIP3    H137139   0.850   6.583  12.294  0.6863  0.4686  1.2188
 5216TIP3    H237140   0.783   6.647  12.413 -2.8363 -0.9594  0.0638
 5217TIP3   OH237141   2.796   3.488  12.772 -0.1845  0.3670 -0.0031
 5217TIP3    H137142   2.726   3.423  12.779 -0.5645  0.6242 -1.3596
 5217TIP3    H237143   2.844   3.463  12.694  0.7928  0.6468  0.5002
 5218TIP3   OH237144   0.638   4.395   2.401  0.2541 -0.3023  0.2613
 5218TIP3    H137145   0.591   4.339   2.338  3.2678 -1.1305 -1.3571
 5218TIP3    H237146   0.653   4.477   2.353 -0.0537  0.1950  0.9996
 5219TIP3   OH237147   2.059   6.244  15.331 -0.4841 -0.0990  0.2320
 5219TIP3    H137148   2.033   6.170  15.277 -2.2783  1.6927 -1.4351
 5219TIP3    H237149   2.125   6.290  15.280 -0.6663  0.4254  0.4563
 5220TIP3   OH237150   0.576   0.148   0.843 -0.3783  0.7085 -0.3717
 5220TIP3    H137151   0.661   0.186   0.822  0.3275 -0.7347 -0.2339
 5220TIP3    H237152   0.561   0.173   0.934  1.0289 -0.9883  0.3666
 5221TIP3   OH237153   0.275   6.720  12.171 -0.2542 -0.1320 -0.2302
 5221TIP3    H137154   0.198   6.704  12.116 -0.4692  0.7149 -0.1819
 5221TIP3    H237155   0.285   6.815  12.172  1.3515 -0.2684 -1.0021
 5222TIP3   OH237156   3.501   0.127  14.687  0.0656  0.0772  0.2801
 5222TIP3    H137157   3.495   0.222  14.694 -0.9574 -0.1378  3.1053
 5222TIP3    H237158   3.582   0.104  14.733  0.0002 -0.4734  0.1266
 5223TIP3   OH237159   4.719   2.616   5.524  0.3168  0.2416  0.3326
 5223TIP3    H137160   4.716   2.637   5.618 -0.6443 -0.7478  0.5369
 5223TIP3    H237161   4.811   2.601   5.507  0.7386  2.1969  0.7055
 5224TIP3   OH237162   5.838   1.961   3.956 -0.0159  0.7176 -0.6153
 5224TIP3    H137163   5.782   1.887   3.976 -0.4544  1.2012 -0.0548
 5224TIP3    H237164   5.779   2.036   3.952  0.6534  1.3213  0.5130
 5225TIP3   OH237165   0.440   1.732   3.040 -0.5367 -0.5407  0.0840
 5225TIP3    H137166   0.426   1.653   3.093  2.4353 -0.0060  1.7568
 5225TIP3    H237167   0.423   1.804   3.100  2.5772  0.0790  0.2793
 5226TIP3   OH237168   5.042   4.988  15.719 -0.0673 -0.0195  0.5033
 5226TIP3    H137169   5.115   4.981  15.657 -0.7481 -0.1672 -0.2910
 5226TIP3    H237170   5.073   5.050  15.784  0.7016  0.0676  0.0702
 5227TIP3   OH237171   1.810   5.921  12.234 -0.1675  0.5952 -0.5888
 5227TIP3    H137172   1.779   5.879  12.314 -0.9366 -0.1333 -1.2570
 5227TIP3    H237173   1.886   5.869  12.207  0.2992  1.0482 -0.1471
 5228TIP3   OH237174   0.147   1.927   5.773 -0.0481  0.0714 -0.3667
 5228TIP3    H137175   0.180   1.898   5.858 -1.3127 -0.7425 -0.1519
 5228TIP3    H237176   0.115   1.847   5.731 -3.6868  1.1337  0.2821
 5229TIP3   OH237177   0.431   2.092  16.229 -0.2401  0.0568 -0.6412
 5229TIP3    H137178   0.417   2.027  16.160  0.8760 -0.6283 -0.2389
 5229TIP3    H237179   0.521   2.076  16.259 -0.4827  0.7862  0.5064
 5230TIP3   OH237180   4.339   4.238   2.505  0.7478 -0.5824 -0.0276
 5230TIP3    H137181   4.319   4.273   2.418  2.8370 -1.2069 -0.7965
 5230TIP3    H237182   4.369   4.314   2.555  1.5052 -0.5599 -0.5003
 5231TIP3   OH237183   6.732   3.163  16.703 -0.3473 -0.2342  0.5706
 5231TIP3    H137184   6.793   3.227  16.738 -0.9393  1.3081 -1.1424
 5231TIP3    H237185   6.786   3.104  16.651 -0.0898  0.1143  0.4399
 5232TIP3   OH237186   5.207   6.060   4.421  0.5903  0.8511 -0.3902
 5232TIP3    H137187   5.157   6.139   4.402 -0.1380  0.3009 -0.7938
 5232TIP3    H237188   5.296   6.081   4.393  0.8009  2.1605  1.1964
 5233TIP3   OH237189   4.338   6.580   3.785 -0.3402  0.4366 -0.3382
 5233TIP3    H137190   4.260   6.598   3.837 -0.2031  1.1176 -0.3529
 5233TIP3    H237191   4.307   6.530   3.710 -0.4908 -0.7946  0.5478
 5234TIP3   OH237192   3.695   0.379  16.948  0.4594 -0.1584 -0.2677
 5234TIP3    H137193   3.608   0.347  16.971  0.4243 -0.0080 -0.1948
 5234TIP3    H237194   3.728   0.315  16.884  0.3285 -0.2610 -0.2349
 5235TIP3   OH237195   1.649   5.922   0.239 -0.5721 -0.1931  0.8734
 5235TIP3    H137196   1.555   5.908   0.251 -1.3652  2.4189 -1.6124
 5235TIP3    H237197   1.670   5.997   0.294 -0.3964  0.4733 -0.0864
 5236TIP3   OH237198   1.926   1.677   5.626 -0.5030  0.6474 -0.4321
 5236TIP3    H137199   1.898   1.762   5.659  1.0744  1.1766 -0.4123
 5236TIP3    H237200   1.903   1.615   5.695 -1.2191  1.1307 -0.2356
 5237TIP3   OH237201   0.158   2.980   1.888 -0.0385  0.5059  0.0756
 5237TIP3    H137202   0.127   3.019   1.806 -1.3818 -0.1688  0.2475
 5237TIP3    H237203   0.187   3.055   1.941 -0.4795  1.0694 -0.4750
 5238TIP3   OH237204   2.963   1.564   5.104 -0.0821  0.3627 -0.2363
 5238TIP3    H137205   2.900   1.544   5.035  0.3803 -0.4419 -0.4251
 5238TIP3    H237206   3.043   1.587   5.058 -0.2127  1.3233  0.0057
 5239TIP3   OH237207   5.152   2.044  12.161 -0.3605  0.5027 -0.4180
 5239TIP3    H137208   5.151   2.007  12.250 -2.8716 -0.7153 -0.9031
 5239TIP3    H237209   5.244   2.050  12.138  0.2302 -2.2147  1.0514
 5240TIP3   OH237210   3.074   2.449  15.521 -0.0133  0.2019 -0.0726
 5240TIP3    H137211   3.013   2.392  15.476  0.7800 -0.5364 -0.2294
 5240TIP3    H237212   3.159   2.429  15.482  0.3774  0.9670  0.3777
 5241TIP3   OH237213   3.692   1.703   6.758  0.5387 -0.0055 -0.4766
 5241TIP3    H137214   3.770   1.650   6.746  1.4089  0.8317  1.3451
 5241TIP3    H237215   3.712   1.786   6.714  0.1207 -0.2871 -1.2129
 5242TIP3   OH237216   3.496   2.876  11.304  0.4770 -0.2353 -0.1772
 5242TIP3    H137217   3.578   2.905  11.345  0.8192 -1.6932  0.1969
 5242TIP3    H237218   3.521   2.799  11.253 -0.1105  1.0488 -2.4531
 5243TIP3   OH237219   2.104   3.705  14.621  0.3309  0.0009 -0.1669
 5243TIP3    H137220   2.037   3.636  14.624 -0.1647  0.4727 -0.2567
 5243TIP3    H237221   2.173   3.669  14.565 -0.8254  0.3505 -1.8710
 5244TIP3   OH237222   4.061   2.660   5.344  0.6718 -0.1786  0.4303
 5244TIP3    H137223   4.111   2.741   5.355 -0.3202  0.1560  2.6293
 5244TIP3    H237224   4.002   2.657   5.419  1.0290 -3.2026  0.6680
 5245TIP3   OH237225   2.968   4.883   1.783 -0.4284 -0.1832 -0.3218
 5245TIP3    H137226   2.958   4.842   1.697 -1.2250 -1.5390  0.3985
 5245TIP3    H237227   3.062   4.894   1.794 -0.2228 -1.6285 -0.6309
 5246TIP3   OH237228   4.421   4.551   5.840 -0.4884  0.3667 -0.3526
 5246TIP3    H137229   4.418   4.461   5.872  1.1279  0.6178  0.5842
 5246TIP3    H237230   4.513   4.577   5.851 -0.9852  2.2020 -0.3839
 5247TIP3   OH237231   0.792   4.299   3.021 -0.2844 -0.6133 -0.3863
 5247TIP3    H137232   0.831   4.211   3.027 -0.0156 -0.4990 -0.4843
 5247TIP3    H237233   0.698   4.283   3.017 -0.2457 -0.8916 -0.2207
 5248TIP3   OH237234   6.340   0.254   4.344  0.7296  0.0768  0.1005
 5248TIP3    H137235   6.271   0.264   4.409 -0.1914 -0.8126 -0.7195
 5248TIP3    H237236   6.377   0.168   4.360  0.8986  0.0975 -0.1685
 5249TIP3   OH237237   4.913   1.424   0.929  0.0622  0.6767  0.0662
 5249TIP3    H137238   4.959   1.350   0.969  0.8455  1.5669  0.8080
 5249TIP3    H237239   4.858   1.459   0.998  1.3891  2.1946  0.3926
 5250TIP3   OH237240   5.575   6.233  16.938  0.5149 -0.2039  0.5193
 5250TIP3    H137241   5.576   6.157  16.997  0.8774 -0.3621  0.3115
 5250TIP3    H237242   5.610   6.305  16.990  2.4575 -0.7371 -0.0229
 5251TIP3   OH237243   5.257   4.791   5.855 -0.1350  0.2884  0.1443
 5251TIP3    H137244   5.334   4.771   5.802  0.5377 -0.2230  1.2786
 5251TIP3    H237245   5.264   4.885   5.873  0.2840  0.2272  0.3229
 5252TIP3   OH237246   2.556   6.473  15.520  0.2774 -0.2724  0.5263
 5252TIP3    H137247   2.650   6.485  15.505 -0.0063 -1.2439 -2.5033
 5252TIP3    H237248   2.550   6.429  15.604  2.3240  2.8848  2.4013
 5253TIP3   OH237249   1.969   5.319   5.655  0.0360  0.3996  0.3965
 5253TIP3    H137250   1.913   5.365   5.717 -1.8632 -0.9856 -0.2285
 5253TIP3    H237251   2.045   5.376   5.643 -1.6810  2.7796  0.5514
 5254TIP3   OH237252   3.716   1.597   2.195  0.0570 -0.1865  0.1846
 5254TIP3    H137253   3.704   1.539   2.120  1.7805 -1.8594  1.1646
 5254TIP3    H237254   3.680   1.550   2.269  0.9921  0.2000  0.9005
 5255TIP3   OH237255   2.769   0.818  11.495  0.4178  0.2268 -0.4172
 5255TIP3    H137256   2.765   0.904  11.535  0.8468  0.3287 -0.5886
 5255TIP3    H237257   2.837   0.826  11.428  1.6075 -0.6903  0.6646
 5256TIP3   OH237258   6.215   3.632   6.251  0.0067  0.1445  0.2973
 5256TIP3    H137259   6.206   3.680   6.334  1.0471 -1.3470  1.2981
 5256TIP3    H237260   6.157   3.556   6.261  0.1978 -0.0824 -0.3105
 5257TIP3   OH237261   5.245   0.958  13.045  0.5785  0.3066  0.4181
 5257TIP3    H137262   5.334   0.951  13.013  0.7215  1.6335  0.5083
 5257TIP3    H237263   5.238   0.890  13.112  0.7722 -1.3716 -1.2260
 5258TIP3   OH237264   5.604   4.848  17.218 -0.1581  0.1874 -0.1511
 5258TIP3    H137265   5.519   4.803  17.219  0.5809 -1.2430 -0.2819
 5258TIP3    H237266   5.582   4.941  17.211 -1.7783  0.0130  2.0767
 5259TIP3   OH237267   1.225   1.527   5.192 -0.1396 -0.7511  0.0610
 5259TIP3    H137268   1.183   1.441   5.201 -1.3710 -0.3078 -1.1704
 5259TIP3    H237269   1.197   1.575   5.270 -1.6413 -0.5977 -0.5417
 5260TIP3   OH237270   5.107   0.943   3.941  0.1850  0.2694 -0.3480
 5260TIP3    H137271   5.184   0.990   3.976 -0.5346  0.5822  0.8491
 5260TIP3    H237272   5.124   0.936   3.847  0.7392  2.1442 -0.4127
 5261TIP3   OH237273   2.046   1.188  13.584 -0.5691  0.3750  0.1668
 5261TIP3    H137274   2.102   1.199  13.661 -0.3464  1.0508 -0.0890
 5261TIP3    H237275   2.106   1.186  13.510 -0.7972 -0.1032 -0.0102
 5262TIP3   OH237276   1.684   0.746  17.214  0.2468 -0.1512 -0.6003
 5262TIP3    H137277   1.704   0.838  17.197  3.7098 -1.2044 -2.6371
 5262TIP3    H237278   1.697   0.736  17.309  0.2256  1.3478 -0.4222
 5263TIP3   OH237279   0.753   3.263   1.835 -0.1171  0.4684 -0.3872
 5263TIP3    H137280   0.814   3.216   1.892  0.4371  0.9485 -0.5861
 5263TIP3    H237281   0.733   3.201   1.765 -0.2524  0.1294 -0.0483
 5264TIP3   OH237282   5.696   0.689   4.715  0.3471  0.2389 -0.4348
 5264TIP3    H137283   5.757   0.722   4.649  0.3691  1.3515  0.1255
 5264TIP3    H237284   5.617   0.741   4.701 -0.0148 -0.2833 -0.2976
 5265TIP3   OH237285   1.422   6.024  16.930  0.7719 -0.2791 -0.5402
 5265TIP3    H137286   1.403   6.068  16.847 -0.8462  0.9186  0.4347
 5265TIP3    H237287   1.502   6.067  16.962  0.1383  0.8273 -0.4083
 5266TIP3   OH237288   5.328   6.222  16.772  0.4460  0.4461  0.5122
 5266TIP3    H137289   5.379   6.251  16.847  2.3597 -1.0222 -0.1789
 5266TIP3    H237290   5.298   6.134  16.796  1.2676 -0.1304 -0.5084
 5267TIP3   OH237291   6.594   3.987   1.081 -0.2943 -0.5718 -0.1593
 5267TIP3    H137292   6.616   3.947   1.164 -0.6064 -0.5857 -0.0829
 5267TIP3    H237293   6.584   4.080   1.101  1.5990 -0.2657 -0.5569
 5268TIP3   OH237294   3.835   0.712   6.406  0.5623  0.0576  0.0384
 5268TIP3    H137295   3.892   0.736   6.333  1.9474  2.4313  1.8269
 5268TIP3    H237296   3.775   0.647   6.370  1.6584  0.6835 -3.0140
 5269TIP3   OH237297   2.794   4.554   0.758 -0.0015  0.2763  0.1644
 5269TIP3    H137298   2.805   4.462   0.738 -0.8537  0.2363 -0.1584
 5269TIP3    H237299   2.734   4.555   0.833  0.1547  0.5551  0.2869
 5270TIP3   OH237300   3.306   3.249   1.890 -0.5062 -0.4493  0.3427
 5270TIP3    H137301   3.394   3.275   1.918 -0.4484 -1.3671  1.0181
 5270TIP3    H237302   3.269   3.330   1.854  1.0841 -0.3686 -1.1984
 5271TIP3   OH237303   0.861   6.129   3.700 -0.0350  0.3206  0.0606
 5271TIP3    H137304   0.838   6.052   3.648 -0.9116  1.2955 -1.0113
 5271TIP3    H237305   0.816   6.117   3.783  0.7714 -0.8784  0.3427
 5272TIP3   OH237306   5.125   4.281  13.105 -0.4420  0.8765 -0.2688
 5272TIP3    H137307   5.108   4.274  13.011  1.5921 -3.1250 -0.4629
 5272TIP3    H237308   5.195   4.345  13.112  0.7181 -0.1676 -1.7391
 5273TIP3   OH237309   4.526   2.406   3.421 -0.0161 -0.1301 -0.0806
 5273TIP3    H137310   4.586   2.439   3.488 -0.0070 -0.5701  0.1290
 5273TIP3    H237311   4.439   2.428   3.454 -0.0743 -1.3334  0.6306
 5274TIP3   OH237312   0.151   5.432   1.452  0.4388 -0.2023  0.0486
 5274TIP3    H137313   0.160   5.430   1.547  1.5064 -0.1024 -0.0504
 5274TIP3    H237314   0.086   5.364   1.433 -0.4113  0.3507  0.9116
 5275TIP3   OH237315   4.489   6.566  15.356 -0.2421 -0.0984 -0.6853
 5275TIP3    H137316   4.567   6.547  15.408  0.3438 -1.8124 -2.1144
 5275TIP3    H237317   4.416   6.556  15.417  0.6441  1.5715  0.6842
 5276TIP3   OH237318   5.193   3.598  12.584  0.0914 -0.5733 -0.4203
 5276TIP3    H137319   5.145   3.677  12.558  0.3355 -0.8559 -1.7564
 5276TIP3    H237320   5.249   3.627  12.656  0.1405  0.4613 -0.8574
 5277TIP3   OH237321   3.030   1.940   2.256 -0.4006 -0.6546  0.2222
 5277TIP3    H137322   3.100   1.954   2.320 -0.8680 -0.8989  0.7961
 5277TIP3    H237323   2.950   1.960   2.304 -0.7075 -0.1047 -0.5169
 5278TIP3   OH237324   3.170   5.257   2.282 -0.1923  0.1816 -0.3654
 5278TIP3    H137325   3.233   5.220   2.220  0.9917  0.4759  0.6295
 5278TIP3    H237326   3.214   5.250   2.367 -1.3605  0.7426  0.2933
 5279TIP3   OH237327   6.651   6.169   0.628  0.1204 -0.5600 -0.0440
 5279TIP3    H137328   6.656   6.247   0.572  1.3666 -2.3037 -2.4799
 5279TIP3    H237329   6.644   6.096   0.566  0.4452 -2.4981  2.1453
 5280TIP3   OH237330   4.371   0.140   3.640 -0.5210  0.0645  0.2660
 5280TIP3    H137331   4.457   0.098   3.645 -0.1809  0.9529  1.9023
 5280TIP3    H237332   4.389   0.231   3.618 -1.0860  0.1461  0.1247
 5281TIP3   OH237333   2.201   0.973  14.323  0.9051  0.1231 -0.0483
 5281TIP3    H137334   2.291   0.959  14.295  1.1479  1.6942 -0.0657
 5281TIP3    H237335   2.154   0.994  14.242  1.0287  1.7810  0.2977
 5282TIP3   OH237336   5.243   5.671  15.992 -0.2118 -0.0282 -0.4002
 5282TIP3    H137337   5.164   5.717  16.019 -0.0238 -1.0025  1.8903
 5282TIP3    H237338   5.269   5.714  15.910 -1.3581  2.3582  0.4478
 5283TIP3   OH237339   0.322   1.587   0.526 -0.3723 -0.0984  0.7038
 5283TIP3    H137340   0.400   1.536   0.506 -1.0434 -0.7212 -0.4012
 5283TIP3    H237341   0.346   1.677   0.502  0.4770 -0.0486  1.7221
 5284TIP3   OH237342   4.106   0.242  15.566  0.4305  0.0454  0.6213
 5284TIP3    H137343   4.180   0.211  15.514  1.3861  1.6194  0.9827
 5284TIP3    H237344   4.079   0.324  15.523 -2.0183 -1.2064 -0.3238
 5285TIP3   OH237345   2.614   4.517  15.176 -0.5322 -0.1333  0.0298
 5285TIP3    H137346   2.631   4.432  15.134  2.8608  0.6932 -0.3618
 5285TIP3    H237347   2.661   4.580  15.123 -0.1542  1.5652  2.3375
 5286TIP3   OH237348   1.466   0.201   1.451 -0.4646  0.7973  0.7376
 5286TIP3    H137349   1.541   0.145   1.429 -1.0420 -0.6106  2.2385
 5286TIP3    H237350   1.406   0.191   1.378 -0.5391 -0.5211  0.9685
 5287TIP3   OH237351   1.192   1.507  16.753 -0.3589  0.1394 -0.2875
 5287TIP3    H137352   1.233   1.592  16.768 -0.5938 -0.1019  1.9106
 5287TIP3    H237353   1.099   1.527  16.742 -0.4801  0.1361  0.6888
 5288TIP3   OH237354   3.306   3.016   3.322 -0.0619 -0.1527  0.4869
 5288TIP3    H137355   3.237   2.994   3.384 -0.5243  3.3292  1.3370
 5288TIP3    H237356   3.365   3.073   3.372  1.4563 -0.1365 -1.2720
 5289TIP3   OH237357   0.371   3.623   0.396 -0.2816  0.4934  0.3249
 5289TIP3    H137358   0.443   3.684   0.408  0.4683 -0.2711 -0.2604
 5289TIP3    H237359   0.337   3.608   0.485  0.6310  0.4293  0.6649
 5290TIP3   OH237360   6.594   6.055   1.408  0.0619  0.0801  0.0832
 5290TIP3    H137361   6.687   6.052   1.385  0.2061  1.8083  0.3849
 5290TIP3    H237362   6.549   6.016   1.333  0.9206  0.7570 -0.7968
 5291TIP3   OH237363   6.521   0.434   4.448 -0.4903 -0.0328  0.7928
 5291TIP3    H137364   6.452   0.413   4.385  0.6121 -2.4996  0.3525
 5291TIP3    H237365   6.481   0.499   4.506 -4.1740 -3.2925  2.1939
 5292TIP3   OH237366   1.791   4.264   3.024 -0.7846 -0.5505 -0.1088
 5292TIP3    H137367   1.717   4.226   3.071 -1.3507  0.6772  0.0138
 5292TIP3    H237368   1.867   4.240   3.076 -1.2579 -0.4340  0.6451
 5293TIP3   OH237369   5.965   5.266  12.626  0.2232 -0.5928 -0.5191
 5293TIP3    H137370   5.995   5.355  12.606 -2.5897 -0.3279 -3.9550
 5293TIP3    H237371   6.024   5.209  12.576  2.3791 -0.7978  2.1149
 5294TIP3   OH237372   3.730   3.247   4.878  0.4343  0.3582  0.3495
 5294TIP3    H137373   3.729   3.189   4.954  2.0655  1.1157  0.9633
 5294TIP3    H237374   3.696   3.330   4.910  1.1933  0.7005  0.2663
 5295TIP3   OH237375   2.931   6.515  16.563  0.0479  0.0339 -0.0868
 5295TIP3    H137376   2.842   6.537  16.538  0.6257  2.9694  0.2814
 5295TIP3    H237377   2.979   6.597  16.557  2.5450 -1.3219  0.5406
 5296TIP3   OH237378   2.741   6.367  13.996  0.7523 -0.0812 -0.5412
 5296TIP3    H137379   2.743   6.303  14.068 -1.8250  1.4370  0.9611
 5296TIP3    H237380   2.705   6.446  14.036 -0.2655  0.9467 -3.4116
 5297TIP3   OH237381   6.780   4.297   4.402 -0.3308  0.3236  0.7542
 5297TIP3    H137382   6.707   4.280   4.460 -0.2754  0.7928  0.9576
 5297TIP3    H237383   6.800   4.211   4.363 -1.1334  0.2435  0.5154
 5298TIP3   OH237384   2.025   2.844   6.216 -0.3142  0.0811 -0.5081
 5298TIP3    H137385   2.104   2.867   6.264 -0.2322  1.0439 -1.0951
 5298TIP3    H237386   2.031   2.749   6.206  1.2321  0.2490 -1.3529
 5299TIP3   OH237387   5.233   2.720  11.966 -0.0846 -0.0354 -0.0327
 5299TIP3    H137388   5.315   2.725  11.917  0.0278 -0.0102  0.1560
 5299TIP3    H237389   5.180   2.792  11.933  0.1757  0.2716  0.2203
 5300TIP3   OH237390   5.775   0.770   3.719  0.0471 -0.1531 -0.2597
 5300TIP3    H137391   5.822   0.686   3.721  1.8024  0.8076 -0.9260
 5300TIP3    H237392   5.766   0.791   3.626 -0.5490  0.3279 -0.0983
 5301TIP3   OH237393   6.298   0.399  12.375  0.6695 -0.3422  0.8199
 5301TIP3    H137394   6.211   0.387  12.413  0.2983 -2.0587 -0.5127
 5301TIP3    H237395   6.300   0.491  12.349 -0.0504  0.1714  2.5431
 5302TIP3   OH237396   2.354   0.829  15.561 -0.0747 -0.0715  0.0673
 5302TIP3    H137397   2.364   0.878  15.479 -1.1022  0.5483  0.3050
 5302TIP3    H237398   2.408   0.876  15.624 -0.5349  0.3628  0.1333
 5303TIP3   OH237399   5.966   5.278  12.917  0.1706 -0.3024  0.3564
 5303TIP3    H137400   5.896   5.333  12.882  0.8143  1.4700  1.7580
 5303TIP3    H237401   5.997   5.228  12.842 -1.5856 -0.0035 -0.5903
 5304TIP3   OH237402   5.871   5.450  14.172 -0.1211 -0.0974  0.7465
 5304TIP3    H137403   5.912   5.498  14.244  1.1131  0.1538 -0.1143
 5304TIP3    H237404   5.826   5.517  14.120  0.3710 -0.0651  0.3643
 5305TIP3   OH237405   6.628   3.404   4.196  0.4084  0.3296  0.4914
 5305TIP3    H137406   6.700   3.439   4.144  0.5492  0.4256  0.7550
 5305TIP3    H237407   6.549   3.438   4.153  0.5759  2.8836  2.0866
 5306TIP3   OH237408   5.549   6.130  11.633 -0.4591 -0.0171  0.2791
 5306TIP3    H137409   5.474   6.188  11.624 -1.0291 -0.7302  0.3774
 5306TIP3    H237410   5.549   6.104  11.725 -0.1447 -0.0901  0.2617
 5307TIP3   OH237411   3.736   1.824   3.295  0.9276 -0.2022 -0.3105
 5307TIP3    H137412   3.727   1.897   3.233 -1.9024  0.9307  1.3481
 5307TIP3    H237413   3.660   1.769   3.278  0.8855 -0.6172  1.2078
 5308TIP3   OH237414   1.826   5.823  13.443 -0.5533 -0.5149  0.2818
 5308TIP3    H137415   1.815   5.775  13.525  3.1913 -0.8328  0.6936
 5308TIP3    H237416   1.896   5.886  13.462 -1.1294  0.9065 -2.0656
 5309TIP3   OH237417   3.410   3.213   5.596  0.2278 -0.9190  0.2216
 5309TIP3    H137418   3.342   3.145   5.601 -0.1164 -1.0892 -4.8542
 5309TIP3    H237419   3.490   3.164   5.580  0.7340 -0.3941  1.1510
 5310TIP3   OH237420   6.208   4.054  14.927 -0.3368 -0.4261  0.2576
 5310TIP3    H137421   6.177   3.964  14.917  0.1765 -0.3718 -1.9098
 5310TIP3    H237422   6.303   4.048  14.919 -0.0659  0.0116  2.5596
 5311TIP3   OH237423   4.452   3.108  14.970 -0.2858 -0.1409 -0.3103
 5311TIP3    H137424   4.401   3.186  14.949  0.3076  0.5090  0.5844
 5311TIP3    H237425   4.412   3.074  15.051 -0.0727 -0.3278 -0.2817
 5312TIP3   OH237426   3.756   6.173   3.271 -0.8192 -0.4052 -0.0939
 5312TIP3    H137427   3.849   6.194   3.279 -0.6371 -0.0979 -2.5210
 5312TIP3    H237428   3.751   6.079   3.287 -0.5936  0.1143  3.3730
 5313TIP3   OH237429   6.690   0.713  12.481  0.3924  0.0748  0.7852
 5313TIP3    H137430   6.662   0.678  12.396  0.2403  0.2869  0.7479
 5313TIP3    H237431   6.775   0.754  12.463 -0.4827  1.7718  0.3245
 5314TIP3   OH237432   4.066   6.654  16.725 -0.3022  0.0476  0.4819
 5314TIP3    H137433   4.152   6.616  16.740 -0.6040 -1.3514 -1.1976
 5314TIP3    H237434   4.079   6.748  16.736  1.7345 -0.0178 -1.0919
 5315TIP3   OH237435   5.141   1.966   5.823  0.2629 -0.4671 -0.0032
 5315TIP3    H137436   5.157   1.946   5.731 -2.1048  1.9088 -1.0154
 5315TIP3    H237437   5.197   2.041   5.842  0.0073 -0.3264  0.2051
 5316TIP3   OH237438   1.049   1.920  14.026 -0.0278  0.0553 -0.2176
 5316TIP3    H137439   1.078   2.012  14.022 -0.0342  0.0622 -0.1037
 5316TIP3    H237440   1.085   1.881  13.946 -1.1149  0.4686 -0.9126
 5317TIP3   OH237441   2.511   4.891   1.683  0.4632  0.7951  0.7039
 5317TIP3    H137442   2.467   4.818   1.726  1.4999 -0.5974 -0.5597
 5317TIP3    H237443   2.443   4.932   1.630  0.2274 -0.1736  0.2519
 5318TIP3   OH237444   6.427   1.935   4.683  0.3314 -0.0858 -0.7113
 5318TIP3    H137445   6.396   1.848   4.656  0.2734 -0.1432 -0.4617
 5318TIP3    H237446   6.519   1.921   4.707  0.1764 -0.1866 -0.1639
 5319TIP3   OH237447   3.306   5.050  12.024 -0.2281 -0.3645 -0.0881
 5319TIP3    H137448   3.218   5.016  12.041 -0.2476 -0.0066  0.5302
 5319TIP3    H237449   3.365   4.984  12.061 -0.2226 -0.7396 -0.7470
 5320TIP3   OH237450   6.007   2.838  11.989  0.3697 -0.1093  0.3697
 5320TIP3    H137451   5.950   2.803  12.057  0.0485 -1.1387 -0.4225
 5320TIP3    H237452   5.963   2.815  11.907  0.8845  0.8889 -0.1997
 5321TIP3   OH237453   0.086   0.937   3.215 -0.3479 -0.0261  0.2211
 5321TIP3    H137454   0.082   0.853   3.261  0.6124  0.7401  1.7776
 5321TIP3    H237455   0.086   1.002   3.286 -2.1239  1.3291 -0.9931
 5322TIP3   OH237456   0.739   3.100   1.617 -0.1524  0.2117  0.0679
 5322TIP3    H137457   0.779   3.160   1.555  0.1950  0.6845  0.7422
 5322TIP3    H237458   0.705   3.028   1.563  0.0386  0.6745 -0.6704
 5323TIP3   OH237459   0.904   4.422   1.341  0.1870 -0.0056  0.4872
 5323TIP3    H137460   0.956   4.364   1.286 -1.8458 -3.1908  1.8096
 5323TIP3    H237461   0.961   4.443   1.415  0.4488 -1.4509  0.6937
 5324TIP3   OH237462   0.774   6.375  14.901  0.3140  0.6759 -0.1384
 5324TIP3    H137463   0.752   6.431  14.975 -0.5609  0.1131  0.0330
 5324TIP3    H237464   0.711   6.399  14.834  2.2244  2.4808 -1.3839
 5325TIP3   OH237465   1.429   3.444   5.303  0.3015 -0.0098  0.2804
 5325TIP3    H137466   1.437   3.456   5.398  0.2309  0.9179  0.1698
 5325TIP3    H237467   1.502   3.493   5.266 -0.0005  0.0947 -0.1822
 5326TIP3   OH237468   4.072   4.780  11.332  0.6801 -0.2153  0.0363
 5326TIP3    H137469   4.162   4.750  11.318  0.6754 -1.0696  1.6734
 5326TIP3    H237470   4.027   4.704  11.370 -0.4578  0.5275  0.2102
 5327TIP3   OH237471   4.430   2.848  16.697  0.2732  0.4226 -0.2134
 5327TIP3    H137472   4.480   2.808  16.768 -1.7398 -1.2874  0.3021
 5327TIP3    H237473   4.393   2.928  16.735  1.3169  0.8865 -0.1468
 5328TIP3   OH237474   3.906   4.819   6.440  0.1488  0.0137  0.5338
 5328TIP3    H137475   3.855   4.740   6.423  1.1988 -0.5256 -0.1798
 5328TIP3    H237476   3.842   4.883   6.469 -0.7690 -0.9908  0.7782
 5329TIP3   OH237477   3.505   6.333   2.031  0.5707  0.0986  0.0037
 5329TIP3    H137478   3.562   6.276   1.978  1.0659  0.4622  0.1506
 5329TIP3    H237479   3.565   6.381   2.088  0.0254 -0.3574  0.9656
 5330TIP3   OH237480   0.899   0.540   4.720 -0.1751 -0.0457  0.2373
 5330TIP3    H137481   0.921   0.452   4.689 -1.2533  0.0029 -0.6851
 5330TIP3    H237482   0.820   0.564   4.672  0.8901  2.0049 -0.5864
 5331TIP3   OH237483   1.806   4.998   2.679  0.0279  0.0007  0.1622
 5331TIP3    H137484   1.793   4.904   2.696  0.5370 -0.3045 -1.1132
 5331TIP3    H237485   1.885   5.020   2.728  2.7763 -1.3840 -3.4412
 5332TIP3   OH237486   5.614   3.826   4.721 -0.2523 -0.0977  0.2822
 5332TIP3    H137487   5.650   3.895   4.665  0.9238 -1.3994 -0.5903
 5332TIP3    H237488   5.561   3.873   4.785  2.9298  1.8753  1.5475
 5333TIP3   OH237489   6.335   2.692  12.440  0.9488 -0.0254 -0.1432
 5333TIP3    H137490   6.318   2.760  12.376  0.1491 -0.8325 -0.8019
 5333TIP3    H237491   6.249   2.651  12.455  1.7293 -2.1411 -1.2090
 5334TIP3   OH237492   0.671   6.783   5.569 -0.0533 -0.0960 -0.5570
 5334TIP3    H137493   0.720   6.714   5.614  0.4015  0.7145  0.1867
 5334TIP3    H237494   0.579   6.764   5.590  0.2574  1.6667  2.7805
 5335TIP3   OH237495   6.526   3.214  13.294  0.3169 -0.3337  0.0290
 5335TIP3    H137496   6.550   3.301  13.328 -1.5356  0.7877 -1.4058
 5335TIP3    H237497   6.487   3.233  13.208  0.7542 -2.6855 -0.7094
 5336TIP3   OH237498   1.757   1.175   3.406 -0.1477  0.1722  0.2609
 5336TIP3    H137499   1.706   1.122   3.467 -0.6016  1.4505  1.0012
 5336TIP3    H237500   1.695   1.202   3.339  0.0994 -0.2912 -0.1564
 5337TIP3   OH237501   0.541   4.635   1.119  0.6442  0.0299  0.0214
 5337TIP3    H137502   0.613   4.668   1.065  1.0425  0.1723  0.6366
 5337TIP3    H237503   0.562   4.666   1.207  1.5878 -2.7573  0.8060
 5338TIP3   OH237504   0.560   5.069  12.722  0.0375 -0.0062  0.1954
 5338TIP3    H137505   0.651   5.098  12.726 -0.1340  0.4648  0.6952
 5338TIP3    H237506   0.516   5.134  12.668  0.3053 -1.0669 -1.3505
 5339TIP3   OH237507   4.554   2.047  14.999  0.5393  0.5052 -0.4005
 5339TIP3    H137508   4.459   2.036  15.000  0.5068  0.6832 -1.2492
 5339TIP3    H237509   4.585   1.985  14.933  0.9129  1.1870 -0.8763
 5340TIP3   OH237510   5.131   1.932   4.024 -0.0512  0.1519 -0.3721
 5340TIP3    H137511   5.192   1.968   4.088 -1.1190  1.3872 -0.0273
 5340TIP3    H237512   5.166   1.960   3.939  0.0926  0.5010 -0.1985
 5341TIP3   OH237513   1.587   1.781   2.267 -0.6225 -0.3314 -0.1639
 5341TIP3    H137514   1.630   1.833   2.335 -0.9488 -0.5663  0.2236
 5341TIP3    H237515   1.517   1.735   2.313 -0.7479 -0.6089 -0.6323
 5342TIP3   OH237516   5.988   3.417   0.161  0.2734  0.4880  0.3098
 5342TIP3    H137517   6.041   3.353   0.114 -1.3453 -1.5579  1.1960
 5342TIP3    H237518   5.932   3.456   0.093  0.4606  0.1310 -0.0505
 5343TIP3   OH237519   4.327   2.051  13.189  0.2488 -0.0409 -0.2987
 5343TIP3    H137520   4.376   2.097  13.258 -1.2149  1.4171 -0.1978
 5343TIP3    H237521   4.263   1.998  13.236  2.6372 -3.1505 -0.3614
 5344TIP3   OH237522   5.865   2.918  13.666  0.0734 -0.2527  0.6244
 5344TIP3    H137523   5.893   2.921  13.758  0.7017 -0.3296  0.4433
 5344TIP3    H237524   5.931   2.862  13.624  0.6475  0.9937 -0.1661
 5345TIP3   OH237525   4.890   3.878   5.908 -0.0456 -0.2737  0.4513
 5345TIP3    H137526   4.890   3.876   6.004  0.2142  0.5914  0.4743
 5345TIP3    H237527   4.801   3.851   5.884 -0.1564 -0.3483  0.9348
 5346TIP3   OH237528   2.735   2.244   5.222 -0.3757  0.1905  0.3785
 5346TIP3    H137529   2.665   2.226   5.285 -0.1900  1.3932  0.9547
 5346TIP3    H237530   2.812   2.202   5.259 -1.2847 -3.4053 -1.5496
 5347TIP3   OH237531   2.660   6.466   1.409  0.4778  0.0287 -0.0141
 5347TIP3    H137532   2.740   6.440   1.453 -0.4725  1.5550  2.7176
 5347TIP3    H237533   2.594   6.405   1.442 -0.0362  0.5271 -0.1176
 5348TIP3   OH237534   5.217   1.147  12.696  0.0922 -0.0733  0.1739
 5348TIP3    H137535   5.215   1.231  12.650  0.6711 -0.0328  0.2224
 5348TIP3    H237536   5.310   1.125  12.702 -0.0071 -0.3139  0.8976
 5349TIP3   OH237537   1.441   2.449   4.901 -0.1371 -0.2566  0.6983
 5349TIP3    H137538   1.357   2.457   4.856 -0.1216 -0.3448  0.6519
 5349TIP3    H237539   1.505   2.440   4.830 -0.2563 -1.6993  0.7605
 5350TIP3   OH237540   4.227   1.889   2.995 -0.2913  0.0170 -0.2110
 5350TIP3    H137541   4.202   1.797   2.992  1.9034 -0.7623  2.9378
 5350TIP3    H237542   4.321   1.888   2.978 -0.1779  1.6560  0.2710
 5351TIP3   OH237543   6.637   2.286  16.772  0.6012 -0.4906 -0.4186
 5351TIP3    H137544   6.639   2.265  16.678 -1.2672 -1.8463 -0.1793
 5351TIP3    H237545   6.646   2.201  16.815 -0.0594 -0.0304  0.6305
 5352TIP3   OH237546   6.353   6.603  13.177 -0.7299  0.0460 -0.2773
 5352TIP3    H137547   6.295   6.628  13.106  0.0453 -1.6369 -1.5573
 5352TIP3    H237548   6.304   6.538  13.227 -0.2277 -0.9126 -0.9957
 5353TIP3   OH237549   5.188   1.349   3.813  0.0596  0.4297 -0.0027
 5353TIP3    H137550   5.108   1.346   3.865 -0.8329  1.0764 -1.3154
 5353TIP3    H237551   5.175   1.423   3.754  1.0284 -0.3450 -1.2039
 5354TIP3   OH237552   5.023   6.782  13.721  0.3219  0.4932  0.0028
 5354TIP3    H137553   5.086   6.776  13.650  1.2489  0.6785  0.8052
 5354TIP3    H237554   4.962   6.710  13.706  3.4523 -2.6804  1.8964
 5355TIP3   OH237555   0.036   2.948  12.940 -0.2535  0.1760  0.2910
 5355TIP3    H137556  -0.044   2.994  12.916 -1.7721 -2.1883  0.6220
 5355TIP3    H237557   0.079   3.005  13.004  0.0667  3.0282 -2.3703
 5356TIP3   OH237558   4.678   2.099  15.694 -0.2752  0.0200 -0.2081
 5356TIP3    H137559   4.587   2.127  15.696 -0.1085  0.5093  0.8667
 5356TIP3    H237560   4.686   2.036  15.766 -0.1915 -1.3780 -1.4277
 5357TIP3   OH237561   2.156   2.770  13.434 -0.3177 -0.1249 -0.4348
 5357TIP3    H137562   2.189   2.795  13.521  0.6477 -1.5494 -0.3658
 5357TIP3    H237563   2.221   2.806  13.374  0.0940 -0.8881 -0.4440
 5358TIP3   OH237564   2.575   5.662   2.732 -0.7496 -0.0274 -0.4911
 5358TIP3    H137565   2.638   5.691   2.798 -3.9605  0.4166  2.5130
 5358TIP3    H237566   2.539   5.743   2.696 -1.4552 -0.2474 -0.2978
 5359TIP3   OH237567   3.817   1.985   0.776 -0.4825  0.1745  0.4570
 5359TIP3    H137568   3.766   2.063   0.751 -2.6648 -1.9389 -1.9899
 5359TIP3    H237569   3.757   1.932   0.828  0.5142 -0.5213  0.9119
 5360TIP3   OH237570   5.507   0.660  17.280 -0.1152  0.2668  0.2072
 5360TIP3    H137571   5.568   0.676  17.208 -0.3294  2.7310  0.5549
 5360TIP3    H237572   5.559   0.672  17.359 -0.3486 -0.5689  0.5004
 5361TIP3   OH237573   2.375   3.188   1.278 -0.8774 -0.0863  0.0506
 5361TIP3    H137574   2.382   3.227   1.365 -0.6779 -0.2428  0.1063
 5361TIP3    H237575   2.451   3.221   1.231 -2.0288  1.5562 -0.6965
 5362TIP3   OH237576   6.388   0.043  16.536 -0.0540  0.4751  0.3230
 5362TIP3    H137577   6.390   0.118  16.476  1.5629  0.7536  0.7097
 5362TIP3    H237578   6.422  -0.030  16.485 -0.2267  0.3382  0.4025
 5363TIP3   OH237579   5.818   1.697   0.332  0.2918 -0.6171  0.3987
 5363TIP3    H137580   5.867   1.654   0.262  0.2797  0.4721 -0.2898
 5363TIP3    H237581   5.728   1.702   0.300  0.1506 -0.7338  0.7755
 5364TIP3   OH237582   5.095   4.985   5.243 -0.0271  0.0185  0.0606
 5364TIP3    H137583   5.043   4.913   5.279  1.3543 -1.0041  0.0137
 5364TIP3    H237584   5.049   5.009   5.162  1.0385 -2.6574 -1.3742
 5365TIP3   OH237585   3.090   3.606   5.696  0.0483 -0.5260  0.0369
 5365TIP3    H137586   3.004   3.581   5.729 -0.3436 -0.1302 -0.6709
 5365TIP3    H237587   3.145   3.612   5.774 -0.4423 -1.2668  0.4379
 5366TIP3   OH237588   3.242   6.551  11.286  0.1910  0.0700  0.4373
 5366TIP3    H137589   3.217   6.530  11.196  0.9728  1.2423 -0.0702
 5366TIP3    H237590   3.167   6.599  11.322  0.2274  0.3544  0.1301
 5367TIP3   OH237591   0.319   5.871   5.140  0.1678  0.5506 -0.1544
 5367TIP3    H137592   0.365   5.953   5.121  1.4156 -0.8750 -3.6322
 5367TIP3    H237593   0.382   5.819   5.189  1.6733 -0.6239 -3.2024
 5368TIP3   OH237594   4.465   3.428   6.336  0.3945  0.4134 -0.2610
 5368TIP3    H137595   4.523   3.354   6.318 -0.5287 -0.1534 -0.9689
 5368TIP3    H237596   4.443   3.420   6.429  2.2568  1.2266  0.2669
 5369TIP3   OH237597   2.992   4.923   1.142 -0.2699  0.1918 -0.0280
 5369TIP3    H137598   2.979   4.833   1.111  0.6312 -0.0678  0.3080
 5369TIP3    H237599   2.904   4.957   1.155 -0.6410 -1.3251  1.7338
 5370TIP3   OH237600   0.452   5.426   4.344  0.1922 -0.0319 -0.1508
 5370TIP3    H137601   0.467   5.371   4.267  0.9136  1.2455 -0.9297
 5370TIP3    H237602   0.426   5.364   4.413  0.7688 -1.3199 -1.0770
 5371TIP3   OH237603   3.734   2.352  14.877  0.0418  0.1268 -0.3500
 5371TIP3    H137604   3.731   2.429  14.821 -0.1725 -1.1651 -2.1482
 5371TIP3    H237605   3.826   2.345  14.903 -0.1158  1.5467  0.6503
 5372TIP3   OH237606   6.798   4.206   5.347 -0.2200  0.4854  0.1472
 5372TIP3    H137607   6.883   4.216   5.305 -0.3985 -1.5249 -0.7508
 5372TIP3    H237608   6.781   4.291   5.388  0.1469  2.4877 -3.5354
 5373TIP3   OH237609   4.333   1.773   4.814 -0.5728  0.6559  0.4764
 5373TIP3    H137610   4.355   1.762   4.906 -1.1544  0.0884  0.5457
 5373TIP3    H237611   4.239   1.793   4.814 -0.6880  0.1036 -0.0369
 5374TIP3   OH237612   4.893   4.295  15.944  0.2721  0.7848  0.0044
 5374TIP3    H137613   4.911   4.208  15.979  1.2850  1.3925  1.0648
 5374TIP3    H237614   4.980   4.328  15.918  0.0064  1.7826  0.3646
 5375TIP3   OH237615   4.220   4.451  11.715  0.2991 -0.3181 -0.6249
 5375TIP3    H137616   4.253   4.517  11.654  0.0854  0.2419 -0.1381
 5375TIP3    H237617   4.257   4.476  11.799  1.2197 -1.5304 -0.6568
 5376TIP3   OH237618   2.758   2.531   6.991  0.6017 -0.2385  0.3762
 5376TIP3    H137619   2.763   2.462   6.925  1.0883 -0.1363  0.3078
 5376TIP3    H237620   2.738   2.610   6.941  2.6380  0.1618  0.1350
 5377TIP3   OH237621   0.997   6.569   4.018 -0.2474 -0.3885 -0.0237
 5377TIP3    H137622   0.985   6.485   3.973  0.9674 -0.7089  0.2358
 5377TIP3    H237623   1.031   6.627   3.951  0.2326 -0.4804  0.1436
 5378TIP3   OH237624   0.012   1.180   3.741  0.5858 -0.1847  0.1907
 5378TIP3    H137625  -0.063   1.171   3.799  1.1459  0.0588  0.9527
 5378TIP3    H237626  -0.014   1.134   3.661  0.0653 -1.0860  0.8696
 5379TIP3   OH237627   2.546   0.570   0.735 -0.0525  0.5525 -0.1167
 5379TIP3    H137628   2.626   0.574   0.682  0.9873 -0.3866  1.3578
 5379TIP3    H237629   2.558   0.493   0.791 -1.7832  0.6850  0.4577
 5380TIP3   OH237630   1.355   4.782  14.727 -0.6124 -0.0025  0.2834
 5380TIP3    H137631   1.262   4.765  14.714 -0.4039 -1.4573  0.6002
 5380TIP3    H237632   1.361   4.815  14.817 -0.8801  0.5989  0.0825
 5381TIP3   OH237633   5.534   5.405  16.857 -0.2577  0.4061 -0.5771
 5381TIP3    H137634   5.539   5.498  16.834 -0.5894  1.0681  1.8921
 5381TIP3    H237635   5.616   5.388  16.904 -1.3373  0.1300  1.2603
 5382TIP3   OH237636   0.829   0.599   0.918 -0.2769 -0.5674 -0.4450
 5382TIP3    H137637   0.798   0.618   1.006 -1.5484  1.6042 -1.3114
 5382TIP3    H237638   0.750   0.604   0.863  0.1178 -3.8636 -1.4643
 5383TIP3   OH237639   4.064   4.817   1.627  0.4404  0.2783 -0.1030
 5383TIP3    H137640   4.093   4.870   1.553  1.1461  0.9670  0.6563
 5383TIP3    H237641   3.972   4.839   1.638  0.5240  0.7445 -0.3077
 5384TIP3   OH237642   2.266   1.923  13.341 -0.5467 -0.1819  0.2714
 5384TIP3    H137643   2.327   1.855  13.310 -1.3300 -0.9597  0.4327
 5384TIP3    H237644   2.267   1.913  13.436 -0.2007  0.4434  0.3376
 5385TIP3   OH237645   3.841   3.471  16.297  0.1773 -0.4563 -0.2864
 5385TIP3    H137646   3.759   3.483  16.345  0.2384 -0.1402 -0.2556
 5385TIP3    H237647   3.855   3.376  16.296  1.1676 -0.3790  2.0451
 5386TIP3   OH237648   3.507   5.748   3.190  0.9386  0.6214 -0.1465
 5386TIP3    H137649   3.490   5.809   3.118 -0.9094  0.3591  0.0410
 5386TIP3    H237650   3.420   5.716   3.215  1.9298 -2.6195 -0.6850
 5387TIP3   OH237651   2.886   5.682  13.851 -0.3368 -0.1108  0.4634
 5387TIP3    H137652   2.843   5.736  13.785 -3.5181 -1.4017  1.3937
 5387TIP3    H237653   2.941   5.622  13.801  0.1649  1.3453 -0.7797
 5388TIP3   OH237654   3.143   0.206   1.155 -0.3244 -0.2393 -0.2639
 5388TIP3    H137655   3.059   0.244   1.132 -0.9073 -0.4761  1.3876
 5388TIP3    H237656   3.127   0.112   1.157 -0.7447 -0.1406  2.7095
 5389TIP3   OH237657   6.347   4.184   0.650 -0.4442  0.0768  0.0324
 5389TIP3    H137658   6.343   4.279   0.644  1.2977  0.2646  1.3966
 5389TIP3    H237659   6.275   4.153   0.596 -1.4080  2.1876  0.0772
 5390TIP3   OH237660   3.093   4.566   2.590 -0.8543 -0.2805  0.6114
 5390TIP3    H137661   3.048   4.485   2.565  0.1280 -0.3657 -0.9338
 5390TIP3    H237662   3.184   4.539   2.606 -1.1092  0.0602  2.7231
 5391TIP3   OH237663   0.388   2.767  14.750 -0.5343  0.3247  0.6368
 5391TIP3    H137664   0.325   2.704  14.715 -0.6761  0.1929  1.1111
 5391TIP3    H237665   0.458   2.770  14.686 -1.8195  1.7436 -0.7452
 5392TIP3   OH237666   5.977   4.926  16.397  0.1397  0.2055  0.0607
 5392TIP3    H137667   5.967   4.863  16.469 -0.3082  0.6283  0.3699
 5392TIP3    H237668   5.962   5.011  16.438 -1.8090  0.3285 -0.8765
 5393TIP3   OH237669   2.266   3.057  11.298 -0.4094 -0.2022  0.3743
 5393TIP3    H137670   2.251   3.126  11.363 -2.4801 -1.7100  1.5494
 5393TIP3    H237671   2.316   2.990  11.345  0.9750  0.1609 -0.5600
 5394TIP3   OH237672   0.674   3.174  14.831  0.2712  0.1686 -0.1930
 5394TIP3    H137673   0.612   3.244  14.810 -1.4819 -1.0822  0.6999
 5394TIP3    H237674   0.639   3.097  14.788  0.6990 -0.7651  1.1045
 5395TIP3   OH237675   1.929   1.027   2.915 -0.4648  0.2956 -0.1448
 5395TIP3    H137676   1.991   1.094   2.941  0.2810 -0.9704  1.4077
 5395TIP3    H237677   1.874   1.012   2.992 -0.3848 -1.1073 -0.3314
 5396TIP3   OH237678   2.953   1.325   4.796 -0.1945  0.5906  0.3549
 5396TIP3    H137679   2.906   1.393   4.844 -1.1672 -0.2824  0.6522
 5396TIP3    H237680   2.886   1.262   4.771  0.6082  0.0302 -0.4344
 5397TIP3   OH237681   2.694   0.269  15.135 -0.1388 -0.6112  0.1117
 5397TIP3    H137682   2.781   0.277  15.174 -0.6523  1.1946  0.9611
 5397TIP3    H237683   2.704   0.205  15.065  1.6897 -0.9954  0.7102
 5398TIP3   OH237684   1.198   4.375  16.875  0.5129 -0.1927  0.5934
 5398TIP3    H137685   1.195   4.437  16.947 -2.6027  1.5320 -0.9097
 5398TIP3    H237686   1.225   4.427  16.799  2.0116 -1.5834  0.1469
 5399TIP3   OH237687   3.880   2.913  14.063  0.2137 -0.0239  0.3328
 5399TIP3    H137688   3.923   2.842  14.016 -0.3119 -0.4855  0.5358
 5399TIP3    H237689   3.859   2.875  14.149  0.1842  0.4671  0.5426
 5400TIP3   OH237690   3.055   3.694   3.935  0.0642  0.0058  0.1416
 5400TIP3    H137691   3.065   3.775   3.885 -0.8963  0.2321  0.3097
 5400TIP3    H237692   3.035   3.723   4.024  1.4467 -0.3992  0.5995
 5401TIP3   OH237693   2.775   2.616   2.961  1.0175 -0.0764 -0.3064
 5401TIP3    H137694   2.716   2.542   2.975 -0.5828  0.9528 -1.5604
 5401TIP3    H237695   2.842   2.605   3.029 -1.5974 -0.2457  2.3312
 5402TIP3   OH237696   4.438   3.286  13.096 -0.2023  0.0939 -0.5460
 5402TIP3    H137697   4.526   3.264  13.064 -0.1273 -2.3674  1.2233
 5402TIP3    H237698   4.392   3.317  13.018  1.7123 -0.2295 -1.8502
 5403TIP3   OH237699   2.627   1.279  13.762  0.1966 -0.0508 -0.8399
 5403TIP3    H137700   2.711   1.278  13.716  2.4395  0.3936  3.0251
 5403TIP3    H237701   2.589   1.193  13.743  2.2178 -0.8499 -1.4651
 5404TIP3   OH237702   1.501   3.607   5.947  0.0326  0.3750 -0.1132
 5404TIP3    H137703   1.417   3.587   5.988  0.0058  0.9133  0.1064
 5404TIP3    H237704   1.536   3.522   5.919 -0.8918  0.2250 -0.8040
 5405TIP3   OH237705   6.341   2.302  12.973 -0.0378  0.0750 -1.0114
 5405TIP3    H137706   6.279   2.375  12.975 -0.9131 -0.6661  0.7211
 5405TIP3    H237707   6.298   2.236  12.918 -0.8496 -0.4479  0.2074
 5406TIP3   OH237708   2.646   0.314  16.868  0.2811 -0.6824 -0.3064
 5406TIP3    H137709   2.642   0.236  16.813 -0.4337  0.0424 -1.2874
 5406TIP3    H237710   2.594   0.292  16.945 -0.0417 -1.1076 -0.6454
 5407TIP3   OH237711   1.144   1.211   5.920 -0.4710 -0.1848 -0.3773
 5407TIP3    H137712   1.179   1.256   5.843  0.9791  1.2311  1.0952
 5407TIP3    H237713   1.132   1.120   5.891  0.1094  0.3105 -2.2410
 5408TIP3   OH237714   0.994   5.672  10.826  0.2800 -0.0325 -0.0003
 5408TIP3    H137715   0.986   5.589  10.778  0.0746 -0.4704  0.7789
 5408TIP3    H237716   1.076   5.665  10.874  1.6262  1.3348 -2.0210
 5409TIP3   OH237717   5.422   4.052  12.552  0.2177  0.2730 -0.1102
 5409TIP3    H137718   5.384   4.005  12.626 -0.2018  1.8233  0.6922
 5409TIP3    H237719   5.423   3.988  12.481 -1.5785 -0.5523  0.5589
 5410TIP3   OH237720   6.429   1.511   5.187  0.0147 -0.0798 -0.2627
 5410TIP3    H137721   6.446   1.417   5.195 -0.8000 -0.2240 -0.2478
 5410TIP3    H237722   6.394   1.536   5.273  0.2583  0.2492 -0.2558
 5411TIP3   OH237723   4.820   0.101   4.232 -0.1747 -0.2909 -0.2937
 5411TIP3    H137724   4.751   0.121   4.168  0.3841 -0.2495 -0.8841
 5411TIP3    H237725   4.787   0.025   4.280 -0.4622 -0.5083 -0.8321
 5412TIP3   OH237726   2.861   3.162  13.865  0.4005 -0.1135 -0.0774
 5412TIP3    H137727   2.819   3.118  13.939 -0.1146 -0.0465 -0.3269
 5412TIP3    H237728   2.841   3.106  13.790  0.6940 -0.0398 -0.2112
 5413TIP3   OH237729   2.738   1.129  13.441 -0.0986  0.3579 -0.2350
 5413TIP3    H137730   2.715   1.049  13.489  2.0485 -0.4823 -0.5412
 5413TIP3    H237731   2.707   1.200  13.497 -1.9506 -0.6607  0.0911
 5414TIP3   OH237732   5.773   4.053  11.915  0.2525 -0.0006 -0.4484
 5414TIP3    H137733   5.867   4.040  11.901  0.4038 -1.1157  1.4458
 5414TIP3    H237734   5.766   4.136  11.961  0.2410  0.4092 -1.1734
 5415TIP3   OH237735   4.332   0.938   4.208 -0.1669  0.0770  0.1020
 5415TIP3    H137736   4.401   0.992   4.171  0.3617 -0.9757 -0.4569
 5415TIP3    H237737   4.303   0.987   4.285  1.1401  0.5542  0.3063
 5416TIP3   OH237738   4.281   3.017   0.467 -0.6000 -0.0717  0.3854
 5416TIP3    H137739   4.272   3.098   0.517  1.2329  0.0409  0.5756
 5416TIP3    H237740   4.216   3.025   0.397 -1.1726  1.0678  1.0271
 5417TIP3   OH237741   0.118   0.094   2.150  0.0376  0.1309 -0.5231
 5417TIP3    H137742   0.067   0.015   2.134 -0.8586  0.5562  0.2163
 5417TIP3    H237743   0.058   0.154   2.193  0.5300  1.4556 -1.6336
 5418TIP3   OH237744   5.533   5.358  13.003  0.2363 -0.0729  0.1607
 5418TIP3    H137745   5.528   5.449  12.975  0.9188 -0.3376 -0.8683
 5418TIP3    H237746   5.450   5.341  13.047 -0.3851  0.6908 -0.7051
 5419TIP3   OH237747   4.092   6.398   5.619  0.3156 -0.0698  0.1780
 5419TIP3    H137748   4.077   6.392   5.525  1.3170 -0.0838  0.0084
 5419TIP3    H237749   4.046   6.322   5.656 -1.2024  0.6714 -0.1449
 5420TIP3   OH237750   6.292   4.065   2.766 -0.6791 -0.2665  0.4476
 5420TIP3    H137751   6.272   4.144   2.715 -1.1832  0.5883  1.9141
 5420TIP3    H237752   6.229   4.067   2.838  0.4050 -1.1168  1.4378
 5421TIP3   OH237753   5.175   0.841  11.816 -0.0738 -0.0499  0.4265
 5421TIP3    H137754   5.208   0.771  11.760  1.0609  1.2373 -0.5455
 5421TIP3    H237755   5.249   0.862  11.873  0.1427  1.4655 -0.3930
 5422TIP3   OH237756   6.206   0.852   0.595  0.2982  0.2762 -0.3001
 5422TIP3    H137757   6.158   0.915   0.541 -2.1045 -0.2888  1.0915
 5422TIP3    H237758   6.194   0.768   0.551 -0.6443  0.0097  0.4584
 5423TIP3   OH237759   0.452   2.404  11.897  0.0189  0.0650  0.3080
 5423TIP3    H137760   0.436   2.324  11.946 -0.5840 -1.5148 -2.3659
 5423TIP3    H237761   0.539   2.433  11.925  1.2468 -2.8269 -0.3581
 5424TIP3   OH237762   0.084   2.999   0.200  0.1150  0.1522 -0.4688
 5424TIP3    H137763   0.043   2.953   0.127 -0.4359  0.2368 -0.2139
 5424TIP3    H237764   0.070   3.092   0.180 -0.2981  0.1703 -0.1096
 5425TIP3   OH237765   4.315   3.453   2.373 -0.1225 -0.3878  0.3058
 5425TIP3    H137766   4.221   3.449   2.361 -0.1426  1.9638 -0.5470
 5425TIP3    H237767   4.346   3.364   2.353 -1.9031 -0.5866 -1.7527
 5426TIP3   OH237768   5.890   1.430   1.014 -0.3580 -0.0376 -0.2617
 5426TIP3    H137769   5.840   1.350   1.024 -0.0610 -0.0184  1.7777
 5426TIP3    H237770   5.969   1.415   1.066 -0.0181  1.3314 -0.3605
 5427TIP3   OH237771   6.008   5.300  16.073  0.6075 -0.0650 -0.1302
 5427TIP3    H137772   5.956   5.224  16.046 -0.4329  1.0072 -1.1937
 5427TIP3    H237773   6.038   5.278  16.162  0.0292 -1.5543 -0.2845
 5428TIP3   OH237774   3.810   3.575  13.036 -0.3797 -0.2486 -1.1264
 5428TIP3    H137775   3.873   3.648  13.034 -0.8574  0.1401 -2.0048
 5428TIP3    H237776   3.843   3.514  12.970  0.8308 -1.5186  0.6076
 5429TIP3   OH237777   5.717   4.738  11.989 -0.4825 -0.3810 -0.0418
 5429TIP3    H137778   5.677   4.712  12.072  0.1179 -1.4560 -0.0824
 5429TIP3    H237779   5.768   4.662  11.962 -1.4217 -0.3886 -1.8785
 5430TIP3   OH237780   4.732   6.451   0.043  0.4704  0.1185 -0.2410
 5430TIP3    H137781   4.765   6.380   0.098 -1.8492 -1.8950 -1.3839
 5430TIP3    H237782   4.683   6.507   0.103 -0.3572 -0.9801  0.1232
 5431TIP3   OH237783   1.878   3.072  11.877 -0.4267 -0.5848 -0.2784
 5431TIP3    H137784   1.912   3.159  11.859  0.0709 -0.5801  0.6411
 5431TIP3    H237785   1.847   3.040  11.792  0.3084  0.0831 -0.8071
 5432TIP3   OH237786   2.176   4.511   1.348 -0.1488  0.2560 -0.2326
 5432TIP3    H137787   2.127   4.448   1.400 -0.3699  0.4733 -0.1795
 5432TIP3    H237788   2.149   4.495   1.258 -0.2650  0.3302 -0.2104
 5433TIP3   OH237789   3.558   5.496  11.798  0.0736 -0.4689 -0.4923
 5433TIP3    H137790   3.544   5.422  11.857 -2.5724  1.6864  1.6756
 5433TIP3    H237791   3.537   5.462  11.711  0.3933 -2.6722  0.2710
 5434TIP3   OH237792   4.587   3.782  17.040  0.7667 -0.2453 -0.2197
 5434TIP3    H137793   4.551   3.710  17.093  2.2081  0.7455  2.1674
 5434TIP3    H237794   4.529   3.785  16.963  0.1501 -3.3749  0.0149
 5435TIP3   OH237795   1.103   6.406  15.265 -0.0133 -0.2037 -0.4036
 5435TIP3    H137796   1.126   6.341  15.332  2.3977  0.8336 -0.1992
 5435TIP3    H237797   1.092   6.354  15.185 -0.1786 -1.1119  0.1978
 5436TIP3   OH237798   1.825   5.128  15.706  0.4166 -0.5049 -0.1327
 5436TIP3    H137799   1.831   5.184  15.628 -0.9634  0.9313  0.7507
 5436TIP3    H237800   1.915   5.121  15.737  0.6679  1.0213 -0.4426
 5437TIP3   OH237801   2.842   2.611  15.057 -0.2829 -0.0708  0.1630
 5437TIP3    H137802   2.891   2.676  15.108 -0.4212  0.7023 -0.6747
 5437TIP3    H237803   2.752   2.618  15.089 -0.0400 -0.7900  1.0049
 5438TIP3   OH237804   5.707   4.879   2.052 -0.1158 -0.1521 -0.6194
 5438TIP3    H137805   5.653   4.847   1.980  0.6864 -1.5986 -0.6068
 5438TIP3    H237806   5.722   4.802   2.107  0.3719  0.6431  0.3849
 5439TIP3   OH237807   5.357   5.109   5.235  0.1399  0.2796 -0.4751
 5439TIP3    H137808   5.392   5.075   5.317 -1.0670  3.1157  1.2902
 5439TIP3    H237809   5.282   5.052   5.215  1.0510 -1.0466 -0.1856
 5440TIP3   OH237810   0.232   0.966   0.145 -0.2229  0.5346 -0.4671
 5440TIP3    H137811   0.268   0.905   0.082  0.4867  0.0100  0.4302
 5440TIP3    H237812   0.137   0.963   0.131 -0.0425  0.7451 -1.7764
 5441TIP3   OH237813   5.839   1.039  12.728  0.6685  0.2879  0.0205
 5441TIP3    H137814   5.820   1.050  12.821  3.3524  1.1332  0.5005
 5441TIP3    H237815   5.823   1.125  12.690 -2.5143 -0.5747 -0.7411
 5442TIP3   OH237816   1.904   1.612   1.655  0.4420 -0.2366 -0.0644
 5442TIP3    H137817   1.840   1.587   1.722 -0.1447  0.1282 -0.4855
 5442TIP3    H237818   1.949   1.531   1.632 -0.0223 -0.5278  0.0683
 5443TIP3   OH237819   4.400   5.203  14.096 -0.6164 -0.0104 -0.9242
 5443TIP3    H137820   4.484   5.239  14.068 -0.8296  0.9283 -0.3621
 5443TIP3    H237821   4.411   5.187  14.189 -1.0125 -0.0331 -0.8806
 5444TIP3   OH237822   6.149   4.339  12.868 -0.4623 -0.6641 -0.0085
 5444TIP3    H137823   6.220   4.380  12.917  0.8055 -0.0668 -2.2838
 5444TIP3    H237824   6.152   4.247  12.894  2.6515 -1.1164 -1.7843
 5445TIP3   OH237825   1.731   0.138   4.408  0.2860 -0.0910  0.1739
 5445TIP3    H137826   1.649   0.184   4.426  0.8324  1.4290 -1.1158
 5445TIP3    H237827   1.714   0.089   4.328  0.2003 -0.8719  0.6713
 5446TIP3   OH237828   6.224   4.106   4.763 -0.3473  0.4279  0.1364
 5446TIP3    H137829   6.168   4.161   4.819  0.4390  2.3643 -0.9393
 5446TIP3    H237830   6.171   4.091   4.685 -0.3284  0.1502  0.1774
 5447TIP3   OH237831   4.151   2.972   2.872  0.2458  0.3789  0.7998
 5447TIP3    H137832   4.136   2.885   2.837  2.1460  0.0191  0.8645
 5447TIP3    H237833   4.101   3.030   2.814 -1.0998 -0.7283  0.8090
 5448TIP3   OH237834   6.042   6.525   2.990  0.1489  0.1926  0.6494
 5448TIP3    H137835   5.972   6.566   3.041 -1.2302 -0.8635 -0.3360
 5448TIP3    H237836   6.053   6.439   3.030  1.0063  0.4180  0.9013
 5449TIP3   OH237837   2.392   1.478   0.971 -0.3158  0.0534  0.5568
 5449TIP3    H137838   2.350   1.562   0.986  1.3813  0.7075  1.8165
 5449TIP3    H237839   2.486   1.496   0.981  0.1720 -1.6589 -0.7457
 5450TIP3   OH237840   0.352   6.235  15.943 -0.4367  0.3364 -0.7842
 5450TIP3    H137841   0.405   6.200  16.014 -1.4077 -0.1399 -0.2846
 5450TIP3    H237842   0.415   6.278  15.885  0.7032 -1.6107 -1.0395
 5451TIP3   OH237843   5.386   1.860  13.580 -0.3876 -0.0277  0.3606
 5451TIP3    H137844   5.302   1.878  13.538 -1.3715  0.8416  2.6539
 5451TIP3    H237845   5.447   1.923  13.541 -0.9216 -0.2570 -0.8541
 5452TIP3   OH237846   5.218   1.023  10.649  0.6805  0.0653 -0.0214
 5452TIP3    H137847   5.226   0.971  10.569 -0.0635  2.2409 -1.5559
 5452TIP3    H237848   5.302   1.068  10.657 -0.1366  1.8466 -1.0592
 5453TIP3   OH237849   3.998   4.250   0.651 -0.3994 -0.7798 -0.3125
 5453TIP3    H137850   4.046   4.196   0.714  1.3584  0.2758 -0.7283
 5453TIP3    H237851   4.032   4.339   0.664 -1.2256 -0.2530 -1.6041
 5454TIP3   OH237852   5.075   5.620  14.035 -0.1337  0.5990 -0.6976
 5454TIP3    H137853   5.145   5.559  14.061  0.3586  0.4201 -2.3898
 5454TIP3    H237854   5.087   5.696  14.092  0.0838 -0.3280  0.5125
 5455TIP3   OH237855   0.566   2.386   0.285 -0.0499 -0.1176  0.1738
 5455TIP3    H137856   0.640   2.421   0.236  0.1897 -1.1483 -0.1969
 5455TIP3    H237857   0.503   2.359   0.218 -0.9285  1.0983  0.4910
 5456TIP3   OH237858   3.911   0.307  11.863 -0.0594 -1.5510  0.4334
 5456TIP3    H137859   3.896   0.339  11.774 -1.0882 -2.9974  0.0760
 5456TIP3    H237860   3.851   0.233  11.873  0.9681 -2.2264  1.8725
 5457TIP3   OH237861   5.322   6.059  14.716 -0.2051  0.2598 -0.7023
 5457TIP3    H137862   5.308   5.971  14.750  0.3537  1.0952  1.7504
 5457TIP3    H237863   5.235   6.090  14.692 -0.8372  0.2224  1.4548
 5458TIP3   OH237864   0.782   6.295   1.652  0.5957 -0.4408  0.1594
 5458TIP3    H137865   0.717   6.358   1.621  1.1849  0.9490  1.6526
 5458TIP3    H237866   0.814   6.252   1.572 -1.9467 -0.9933 -0.6146
 5459TIP3   OH237867   5.339   6.803  11.417 -0.0373  0.2402  0.0906
 5459TIP3    H137868   5.329   6.809  11.322 -1.1677  2.3329  0.3168
 5459TIP3    H237869   5.304   6.717  11.439 -0.6171  0.1039 -1.2943
 5460TIP3   OH237870   5.430   1.450  16.981 -0.1550  0.9520  0.5087
 5460TIP3    H137871   5.450   1.543  16.989 -0.7059  1.2366 -1.2543
 5460TIP3    H237872   5.509   1.411  16.944 -0.4507  0.9590 -0.1292
 5461TIP3   OH237873   2.216   4.500  14.664  0.0423  0.0326  0.5124
 5461TIP3    H137874   2.225   4.574  14.725 -0.5474  0.9441 -0.4801
 5461TIP3    H237875   2.122   4.488  14.654  0.0608  1.7732 -2.3942
 5462TIP3   OH237876   3.099   3.331   2.431 -0.0144  0.2605 -0.3748
 5462TIP3    H137877   3.123   3.414   2.390 -0.0232  1.2739  1.5989
 5462TIP3    H237878   3.119   3.343   2.524 -0.6870 -1.7044  0.0602
 5463TIP3   OH237879   0.173   1.268  17.109  0.0289  0.1244  0.1945
 5463TIP3    H137880   0.240   1.200  17.117 -0.1418  0.0262  0.7863
 5463TIP3    H237881   0.106   1.243  17.172 -1.5195 -0.8768 -1.7844
 5464TIP3   OH237882   2.659   0.090   5.926 -0.7183  0.0819 -0.0462
 5464TIP3    H137883   2.570   0.058   5.911 -1.0883  1.4388 -0.8458
 5464TIP3    H237884   2.714   0.031   5.875 -0.9296 -2.0593  2.1114
 5465TIP3   OH237885   2.889   1.209   3.581 -0.1041  0.4648 -0.9358
 5465TIP3    H137886   2.974   1.177   3.612 -0.9644 -0.1166  0.9102
 5465TIP3    H237887   2.908   1.247   3.495  2.1886  1.1909 -0.1609
 5466TIP3   OH237888   3.748   6.617   3.152 -0.1209 -0.1819  0.4737
 5466TIP3    H137889   3.780   6.671   3.224  1.1661  2.0028 -1.6617
 5466TIP3    H237890   3.696   6.677   3.098  0.0365 -1.4286 -1.1152
 5467TIP3   OH237891   4.287   3.883   0.339  0.3782 -0.4593 -0.1951
 5467TIP3    H137892   4.211   3.831   0.366  0.8083 -0.7572  0.4437
 5467TIP3    H237893   4.263   3.917   0.252 -0.2697 -0.9805 -0.2248
 5468TIP3   OH237894   4.454   1.063   1.882 -0.6730 -0.5201  0.2490
 5468TIP3    H137895   4.462   1.158   1.884 -0.1592 -0.5867  1.4244
 5468TIP3    H237896   4.361   1.047   1.865 -0.4611  0.1826 -1.7797
 5469TIP3   OH237897   0.674   4.212  12.850 -0.1033 -0.4166  0.4808
 5469TIP3    H137898   0.749   4.268  12.831  0.1017 -0.6822  0.5084
 5469TIP3    H237899   0.697   4.127  12.812  0.3709 -0.9964  2.0544
 5470TIP3   OH237900   2.335   1.660  16.350  0.2633  0.2680 -0.5031
 5470TIP3    H137901   2.311   1.669  16.442  0.1759  1.3363 -0.6258
 5470TIP3    H237902   2.254   1.679  16.302  0.4690  0.3685 -0.8152
 5471TIP3   OH237903   3.924   1.387   1.106 -0.2544 -0.4417 -0.6003
 5471TIP3    H137904   3.886   1.469   1.077  1.5591  0.1761 -1.3216
 5471TIP3    H237905   3.952   1.403   1.196 -1.8177 -0.9614  0.0039
 5472TIP3   OH237906   1.079   3.161   2.686  0.0911  0.4479  0.9372
 5472TIP3    H137907   1.056   3.243   2.642 -1.7485 -0.3105  0.4274
 5472TIP3    H237908   1.032   3.165   2.770  1.0995  0.5059  1.5157
 5473TIP3   OH237909   0.497   3.320  13.075 -0.0013 -0.1435 -0.2859
 5473TIP3    H137910   0.496   3.235  13.030 -1.0767 -0.1781 -0.2220
 5473TIP3    H237911   0.459   3.301  13.161 -1.6832  0.6786 -0.8107
 5474TIP3   OH237912   5.998   1.310  12.855 -0.0501  0.5003  0.5806
 5474TIP3    H137913   6.028   1.222  12.878 -1.1951 -0.2594 -0.7090
 5474TIP3    H237914   5.946   1.297  12.776 -0.8469  2.2454  0.7964
 5475TIP3   OH237915   2.355   2.281  13.600 -0.2219 -0.1201 -0.4348
 5475TIP3    H137916   2.370   2.375  13.589 -0.9945 -0.1732 -2.0257
 5475TIP3    H237917   2.280   2.262  13.544 -1.3632 -1.3113  1.4840
 5476TIP3   OH237918   3.917   4.493   4.947  0.0567 -0.4300  0.2371
 5476TIP3    H137919   3.959   4.489   5.033  0.2528 -1.3526  0.1102
 5476TIP3    H237920   3.824   4.502   4.966  0.1902  0.2804  0.5368
 5477TIP3   OH237921   4.880   3.260   0.669 -0.1581 -0.5201  0.0985
 5477TIP3    H137922   4.795   3.288   0.636 -0.8692 -2.9401 -0.2240
 5477TIP3    H237923   4.879   3.165   0.661  2.4248 -0.6272  0.4881
 5478TIP3   OH237924   6.309   5.784  16.043 -0.1609  0.1760 -0.8504
 5478TIP3    H137925   6.229   5.832  16.066 -0.3215 -0.0578 -0.9250
 5478TIP3    H237926   6.289   5.693  16.064  0.0889  0.1177 -0.8636
 5479TIP3   OH237927   1.383   5.522  13.277  0.3643 -0.4471  0.1556
 5479TIP3    H137928   1.383   5.435  13.238  1.6170  0.1101 -1.1178
 5479TIP3    H237929   1.381   5.582  13.202  0.3909  0.6274  0.9964
 5480TIP3   OH237930   1.147   0.910   3.821 -0.4827 -0.4240  0.4140
 5480TIP3    H137931   1.062   0.888   3.859 -1.0356 -0.0437 -0.5827
 5480TIP3    H237932   1.180   0.980   3.878 -1.4921  0.4372 -0.0326
 5481TIP3   OH237933   0.525   3.961   1.624  0.1895 -0.6289 -0.2366
 5481TIP3    H137934   0.553   3.976   1.714  0.3685 -1.7304 -0.0933
 5481TIP3    H237935   0.437   3.924   1.632  0.0899 -0.4553 -0.5281
 5482TIP3   OH237936   5.721   2.689   4.848  0.3331 -0.0394 -0.3398
 5482TIP3    H137937   5.670   2.610   4.829  1.3016 -0.9388  0.6614
 5482TIP3    H237938   5.686   2.722   4.930  0.4116  0.1510 -0.3814
 5483TIP3   OH237939   5.744   1.127   4.479 -0.2768 -0.2178  0.1494
 5483TIP3    H137940   5.817   1.073   4.507 -0.9388 -1.2196 -0.0228
 5483TIP3    H237941   5.765   1.215   4.511  1.5789 -0.2344 -0.9523
 5484TIP3   OH237942   3.179   1.243   6.583 -0.2417 -0.1776 -0.6803
 5484TIP3    H137943   3.256   1.202   6.623  0.1198  0.4784 -0.6969
 5484TIP3    H237944   3.170   1.326   6.629 -1.5196 -0.6707 -0.0060
 5485TIP3   OH237945   5.498   6.264   6.497 -0.0550  0.5261 -0.0916
 5485TIP3    H137946   5.494   6.169   6.499  0.2398  0.4503 -2.0360
 5485TIP3    H237947   5.583   6.285   6.536  0.8707 -0.1453 -1.6685
 5486TIP3   OH237948   6.063   2.416  15.830 -0.3066  0.3100  0.2564
 5486TIP3    H137949   5.999   2.456  15.771 -1.5596  0.4048  1.6371
 5486TIP3    H237950   6.030   2.328  15.845  0.9016 -0.2771 -0.4945
 5487TIP3   OH237951   5.569   3.929   6.026  0.0439 -0.3503  0.3255
 5487TIP3    H137952   5.543   4.019   6.045  0.7561 -0.2671  0.9039
 5487TIP3    H237953   5.487   3.879   6.030  0.1881 -0.4058  3.9948
 5488TIP3   OH237954   1.037   5.961   4.426 -0.5112  0.3811  0.5621
 5488TIP3    H137955   1.062   6.031   4.365 -0.3691  1.1865  1.5303
 5488TIP3    H237956   0.944   5.978   4.445 -1.1141 -1.0697 -1.0048
 5489TIP3   OH237957   3.541   0.997   2.542  0.3335  0.2089  0.2486
 5489TIP3    H137958   3.518   1.082   2.504 -0.8568 -0.8366 -1.4663
 5489TIP3    H237959   3.472   0.981   2.607  0.1866  0.2766  0.1110
 5490TIP3   OH237960   1.641   1.088   1.629  0.3174 -0.1152 -0.2369
 5490TIP3    H137961   1.713   1.079   1.566 -1.1112  1.0314 -2.0883
 5490TIP3    H237962   1.676   1.144   1.698  1.6378 -0.6711 -0.4519
 5491TIP3   OH237963   0.476   3.222   1.837  0.1760  0.2455  0.1959
 5491TIP3    H137964   0.425   3.281   1.782  0.2102  1.4845  1.4509
 5491TIP3    H237965   0.559   3.268   1.851  0.5610 -0.5084  0.4320
 5492TIP3   OH237966   4.505   1.162  17.009 -0.1861  0.4187  0.0854
 5492TIP3    H137967   4.480   1.247  16.971  2.0127  0.2835 -1.7929
 5492TIP3    H237968   4.449   1.099  16.964  0.2491  0.5873 -0.7125
 5493TIP3   OH237969   3.809   6.410   1.804  0.3523 -0.1303 -0.5555
 5493TIP3    H137970   3.718   6.439   1.816  0.1998 -0.4482 -0.9251
 5493TIP3    H237971   3.854   6.487   1.770  0.1411 -0.0772 -0.7143
 5494TIP3   OH237972   0.400   5.700   0.671  0.2989  0.4252 -0.0787
 5494TIP3    H137973   0.444   5.615   0.669 -1.0845 -0.2900 -0.9222
 5494TIP3    H237974   0.337   5.692   0.743 -0.5567  0.3592 -0.8292
 5495TIP3   OH237975   2.633   5.809   1.887  0.1416 -0.4028  0.0435
 5495TIP3    H137976   2.592   5.744   1.829 -0.8474 -0.3851  0.7119
 5495TIP3    H237977   2.590   5.891   1.864  2.1365  0.2342 -1.5391
 5496TIP3   OH237978   4.233   1.990  11.617  0.2211 -0.0618 -0.5441
 5496TIP3    H137979   4.203   1.911  11.573 -2.0500  1.3758 -1.7085
 5496TIP3    H237980   4.153   2.041  11.631  1.8230  2.7573 -1.3366
 5497TIP3   OH237981   6.640   3.184   0.045 -0.2779  0.0072  0.0678
 5497TIP3    H137982   6.610   3.171   0.135  0.6056  2.1489  0.6984
 5497TIP3    H237983   6.719   3.238   0.054  0.6486 -0.9888 -1.9062
 5498TIP3   OH237984   2.483   6.462  16.647 -0.9331 -0.3440  0.1221
 5498TIP3    H137985   2.567   6.506  16.659 -1.3731 -0.1925  2.7914
 5498TIP3    H237986   2.428   6.495  16.718 -3.1708 -0.6660 -1.4178
 5499TIP3   OH237987   5.064   1.838   2.176 -0.7284 -0.0034 -0.2405
 5499TIP3    H137988   5.149   1.809   2.208 -0.5905 -0.1393 -0.7286
 5499TIP3    H237989   5.012   1.851   2.255  0.4887  2.4146  0.2127
 5500TIP3   OH237990   0.160   2.900   6.144 -0.4927 -0.0439 -0.4872
 5500TIP3    H137991   0.081   2.850   6.165 -0.6474 -0.0313 -1.0172
 5500TIP3    H237992   0.141   2.989   6.173 -0.1575 -0.3125  0.6001
 5501TIP3   OH237993   3.750   1.490  16.033  0.1510  0.2902  0.2078
 5501TIP3    H137994   3.803   1.422  16.075  0.3791  0.1056 -0.3826
 5501TIP3    H237995   3.806   1.567  16.032 -0.2408  0.6031  1.2147
 5502TIP3   OH237996   1.349   0.323  10.790 -0.3244 -0.0806 -0.1778
 5502TIP3    H137997   1.394   0.255  10.740  0.2604  0.9550 -1.0717
 5502TIP3    H237998   1.395   0.326  10.874 -1.8744 -2.4488  0.8112
 5503TIP3   OH237999   4.748   4.470   2.467 -0.3054 -0.0538  0.2536
 5503TIP3    H138000   4.684   4.525   2.421  1.6073  0.6902 -1.5613
 5503TIP3    H238001   4.737   4.383   2.428 -0.4447 -0.0172  0.2099
 5504TIP3   OH238002   6.156   5.140  14.352  0.4754  0.4436  0.0522
 5504TIP3    H138003   6.248   5.111  14.350  1.0819  2.2788  0.2239
 5504TIP3    H238004   6.161   5.234  14.332 -1.4319  0.4297 -0.5468
 5505TIP3   OH238005   5.395   0.555   4.260  0.0516 -0.0718  0.0025
 5505TIP3    H138006   5.404   0.482   4.198 -0.1584 -0.1677  0.0867
 5505TIP3    H238007   5.349   0.517   4.335  0.3976  0.0171  0.2620
 5506TIP3   OH238008   4.902   4.338  10.726  0.1527 -0.3689 -0.4970
 5506TIP3    H138009   4.937   4.423  10.752 -0.5261  0.0721 -1.0018
 5506TIP3    H238010   4.807   4.348  10.732  0.0630 -1.0421 -0.7088
 5507TIP3   OH238011   6.393   3.927  13.896 -0.2547 -0.3798  0.5730
 5507TIP3    H138012   6.363   3.968  13.977 -1.1748 -1.6476  0.8942
 5507TIP3    H238013   6.482   3.897  13.915  0.1312  0.7648  0.5787
 5508TIP3   OH238014   4.504   2.197   5.236 -0.0388 -0.0326  0.3386
 5508TIP3    H138015   4.502   2.104   5.257 -0.7057 -0.5484 -1.8817
 5508TIP3    H238016   4.479   2.240   5.317 -0.1239 -1.8002  1.2850
 5509TIP3   OH238017   0.362   2.088   4.857 -1.2472  0.0368 -0.0486
 5509TIP3    H138018   0.303   2.163   4.862 -0.6477  0.5223 -0.1182
 5509TIP3    H238019   0.366   2.054   4.946 -0.5179  0.8858  0.2540
 5510TIP3   OH238020   4.409   5.412  13.480 -0.8701 -0.2619  0.2743
 5510TIP3    H138021   4.319   5.403  13.511 -0.9833  2.5973  0.9571
 5510TIP3    H238022   4.401   5.455  13.395 -0.1121  2.6834  1.6109
 5511TIP3   OH238023   2.716   6.183   6.484 -0.8945  0.0156  0.1291
 5511TIP3    H138024   2.662   6.250   6.526 -2.1626  0.0418 -1.4955
 5511TIP3    H238025   2.749   6.130   6.557  0.3208  2.5248  1.4539
 5512TIP3   OH238026   4.572   3.913   0.078 -0.8972 -0.6174 -0.5315
 5512TIP3    H138027   4.620   3.949   0.004 -0.1922  1.2294  0.7846
 5512TIP3    H238028   4.484   3.948   0.069 -1.0970 -1.2252 -1.0347
 5513TIP3   OH238029   0.279   4.900   3.471 -0.1759 -0.3158 -0.3794
 5513TIP3    H138030   0.296   4.807   3.485 -1.3609 -0.4107  0.5355
 5513TIP3    H238031   0.320   4.944   3.545  2.4014  0.1300 -2.0101
 5514TIP3   OH238032   4.633   2.469  12.468 -0.5601  0.0312  0.3413
 5514TIP3    H138033   4.664   2.461  12.378  1.4549  1.7689  0.8524
 5514TIP3    H238034   4.611   2.380  12.494  1.7554 -0.9160 -0.8432
 5515TIP3   OH238035   3.950   1.461   2.192  0.4416  0.7455  0.1073
 5515TIP3    H138036   3.998   1.481   2.273  0.1784  0.2477  0.3905
 5515TIP3    H238037   3.885   1.532   2.186  0.3858  0.7234  0.3974
 5516TIP3   OH238038   2.060   5.846  11.298  0.2220 -0.1222 -0.2590
 5516TIP3    H138039   1.993   5.816  11.237 -1.4381 -0.3509  1.6302
 5516TIP3    H238040   2.063   5.941  11.284  1.5895 -0.4515 -2.3753
 5517TIP3   OH238041   2.963   2.510  12.283 -0.2131  0.2147  0.0657
 5517TIP3    H138042   3.054   2.525  12.258 -0.2888  0.8234  0.1594
 5517TIP3    H238043   2.927   2.597  12.300 -0.8523 -0.0072 -0.1040
 5518TIP3   OH238044   5.888   4.241  16.185 -0.3303 -0.0255  0.6283
 5518TIP3    H138045   5.810   4.218  16.236 -1.8662  0.8385 -1.2674
 5518TIP3    H238046   5.869   4.208  16.097  1.8199 -0.5559  0.3499
 5519TIP3   OH238047   4.862   2.031   3.057  0.1797  0.4454 -0.1144
 5519TIP3    H138048   4.939   2.081   3.085  0.2793 -0.0349  0.4820
 5519TIP3    H238049   4.850   1.965   3.126 -0.5654  0.3062 -0.3736
 5520TIP3   OH238050   0.441   3.650   4.386 -0.4689 -0.7127 -0.2729
 5520TIP3    H138051   0.466   3.559   4.368 -1.4369 -1.4302  1.8482
 5520TIP3    H238052   0.363   3.664   4.333 -0.4711 -1.2132 -0.4035
 5521TIP3   OH238053   2.240   1.272   2.639  0.5315 -0.3336  0.0444
 5521TIP3    H138054   2.186   1.342   2.674  2.0057  1.2929 -0.8383
 5521TIP3    H238055   2.181   1.222   2.583 -0.6529 -0.0893  1.0591
 5522TIP3   OH238056   6.105   6.766   2.097 -0.0800  0.2386 -0.1782
 5522TIP3    H138057   6.164   6.714   2.042 -0.5496  0.3956 -0.8348
 5522TIP3    H238058   6.018   6.746   2.064 -0.3456  0.5168  0.3590
 5523TIP3   OH238059   6.788   1.148  17.252  0.0788  0.4993  0.1789
 5523TIP3    H138060   6.721   1.198  17.206  1.5391  2.6205  0.2802
 5523TIP3    H238061   6.762   1.057  17.241 -1.7632  1.1835 -1.4070
 5524TIP3   OH238062   1.291   0.966   2.460  0.2606 -0.0386 -0.2446
 5524TIP3    H138063   1.299   0.938   2.551 -0.3511 -0.0988 -0.2096
 5524TIP3    H238064   1.307   1.061   2.463 -3.0552  0.5603  0.4085
 5525TIP3   OH238065   1.948   1.049   5.290 -0.7472  0.2070  0.6507
 5525TIP3    H138066   2.018   1.064   5.353  0.0459 -0.6330 -0.0293
 5525TIP3    H238067   1.949   0.954   5.275  0.3565  0.6264 -2.1114
 5526TIP3   OH238068   0.621   0.208  17.055  1.0482 -0.0206 -0.2102
 5526TIP3    H138069   0.529   0.193  17.076  0.2822  0.8134 -2.8272
 5526TIP3    H238070   0.651   0.270  17.121  0.0781 -1.1983  1.3775
 5527TIP3   OH238071   3.477   4.302   1.851 -0.5730  0.3894  0.0357
 5527TIP3    H138072   3.448   4.347   1.931  0.2318  2.1961 -0.6761
 5527TIP3    H238073   3.553   4.352   1.821  0.5779 -1.6701 -0.5840
 5528TIP3   OH238074   1.756   4.769   6.025 -0.5246 -0.2484 -0.9916
 5528TIP3    H138075   1.733   4.708   6.095  0.3998  1.6195  1.0032
 5528TIP3    H238076   1.809   4.717   5.964 -1.6302 -1.9811 -0.5191
 5529TIP3   OH238077   2.292   6.751  16.457 -0.2201 -0.0638 -0.1982
 5529TIP3    H138078   2.368   6.702  16.426 -0.1932 -0.5934  0.6793
 5529TIP3    H238079   2.285   6.825  16.398  1.2049  0.1951 -0.0626
 5530TIP3   OH238080   0.395   6.187  14.797 -0.1705 -0.5858  0.4775
 5530TIP3    H138081   0.450   6.141  14.734 -0.9293 -0.2362 -0.4541
 5530TIP3    H238082   0.346   6.118  14.842 -0.9602 -0.7172 -0.5840
 5531TIP3   OH238083   5.198   5.002  10.770  0.1487  0.0739  0.5919
 5531TIP3    H138084   5.113   4.962  10.749  0.1291 -0.4411  1.6429
 5531TIP3    H238085   5.262   4.935  10.747  0.4757  1.3540 -2.5740
 5532TIP3   OH238086   3.424   5.343   2.537  0.1557  0.1760  0.0441
 5532TIP3    H138087   3.395   5.413   2.479 -0.6999 -1.1027 -1.0793
 5532TIP3    H238088   3.519   5.356   2.544  0.0847  1.0875 -0.6181
 5533TIP3   OH238089   3.729   5.875   3.848 -0.5879  0.1688 -0.5297
 5533TIP3    H138090   3.769   5.824   3.778  2.0198  2.3923 -0.7386
 5533TIP3    H238091   3.769   5.840   3.928  2.1892  2.5948 -0.7592
 5534TIP3   OH238092   4.131   2.163  12.042 -0.3416 -0.3284 -0.2225
 5534TIP3    H138093   4.112   2.250  12.078 -0.4892  0.0207 -1.1310
 5534TIP3    H238094   4.077   2.104  12.094 -0.0939  0.0980  0.5308
 5535TIP3   OH238095   5.994   1.695   1.945 -0.0632  0.3791 -0.0557
 5535TIP3    H138096   6.050   1.618   1.957  1.9594  1.6251 -1.1903
 5535TIP3    H238097   6.055   1.769   1.945 -1.6531  1.7245 -2.0013
 5536TIP3   OH238098   6.429   3.018   2.612  0.7924 -0.7796  0.6706
 5536TIP3    H138099   6.423   3.035   2.519  2.6571  1.9561  1.0008
 5536TIP3    H238100   6.346   2.975   2.634 -1.0402  1.4175 -1.6462
 5537TIP3   OH238101   0.648   6.107   3.457  0.2598 -0.6592  0.1376
 5537TIP3    H138102   0.569   6.106   3.402  1.6652  0.8160 -1.9977
 5537TIP3    H238103   0.629   6.172   3.524  0.0988  0.6101 -1.1056
 5538TIP3   OH238104   3.999   1.430  16.406 -0.1096  0.1498 -0.1354
 5538TIP3    H138105   3.969   1.512  16.445  0.9986 -0.1232  1.3297
 5538TIP3    H238106   3.939   1.364  16.440  0.3113  0.0424  0.4008
 5539TIP3   OH238107   1.173   0.939  15.323  0.2006 -0.3484 -0.3983
 5539TIP3    H138108   1.233   0.890  15.380 -0.4623  0.2429  0.8264
 5539TIP3    H238109   1.226   1.013  15.291  0.3223 -0.1758  0.1840
 5540TIP3   OH238110   3.896   5.089  15.482  0.3676  0.5762 -0.4863
 5540TIP3    H138111   3.820   5.089  15.424  0.9648 -1.1136 -1.3128
 5540TIP3    H238112   3.860   5.101  15.569 -0.7890  0.5278 -0.9567
 5541TIP3   OH238113   5.224   6.303  12.110 -0.7292 -0.0445  0.1585
 5541TIP3    H138114   5.275   6.334  12.035  1.1873 -0.9403  1.0543
 5541TIP3    H238115   5.216   6.209  12.097  1.3366 -0.5366  2.0241
 5542TIP3   OH238116   3.035   3.721   0.905  0.3107 -0.1770 -0.2272
 5542TIP3    H138117   3.029   3.806   0.861  0.4804 -0.3506 -0.5917
 5542TIP3    H238118   3.057   3.743   0.996  1.8446  0.1241 -0.6475
 5543TIP3   OH238119   2.905   1.960  16.583 -0.3341 -0.4749  0.1436
 5543TIP3    H138120   2.959   1.881  16.593 -0.8005 -0.5103  3.0048
 5543TIP3    H238121   2.952   2.013  16.520  0.4142 -2.6828 -1.2346
 5544TIP3   OH238122   1.458   3.121   0.739  1.1596 -0.2174 -0.4181
 5544TIP3    H138123   1.468   3.042   0.686  1.3070 -0.6014  0.1806
 5544TIP3    H238124   1.490   3.096   0.826  1.6675  0.6439 -0.3543
 5545TIP3   OH238125   0.064   3.915   1.235  0.3864  0.5993  0.0857
 5545TIP3    H138126  -0.020   3.915   1.281  1.2830  1.6379  1.8081
 5545TIP3    H238127   0.075   3.825   1.205 -0.9573  0.2587  0.5483
 5546TIP3   OH238128   4.751   1.207   1.799 -0.5673 -0.3897  0.1259
 5546TIP3    H138129   4.838   1.199   1.760  0.4834 -0.0441  2.3100
 5546TIP3    H238130   4.723   1.295   1.775 -1.6835 -1.5524 -3.1730
 5547TIP3   OH238131   4.899   4.806   1.194  0.5988  0.2863  0.3644
 5547TIP3    H138132   4.829   4.776   1.137  1.9045 -1.3483 -0.4373
 5547TIP3    H238133   4.860   4.810   1.281 -0.6603  0.0602 -0.1909
 5548TIP3   OH238134   3.660   3.384   5.616  0.6480 -0.7887  0.1868
 5548TIP3    H138135   3.569   3.353   5.621  1.3090 -2.6791  0.9368
 5548TIP3    H238136   3.661   3.462   5.672 -0.5036 -0.7576  0.1899
 5549TIP3   OH238137   0.126   4.291  12.459  0.0632  0.3427  0.1302
 5549TIP3    H138138   0.167   4.206  12.442  0.1215  0.6667 -1.4287
 5549TIP3    H238139   0.055   4.271  12.520  2.3062 -0.2655  2.5885
 5550TIP3   OH238140   3.003   5.968   4.585 -0.2789  0.0209  0.3209
 5550TIP3    H138141   2.949   6.027   4.638 -0.2680 -0.6371  1.0697
 5550TIP3    H238142   3.007   5.887   4.636  1.0481 -0.0868  0.0622
 5551TIP3   OH238143   4.745   5.195   5.450  0.1793 -0.7269  0.2355
 5551TIP3    H138144   4.682   5.183   5.522  2.0873 -1.3242  1.8554
 5551TIP3    H238145   4.722   5.127   5.387  0.1314 -1.9465  1.5273
 5552TIP3   OH238146   1.495   6.626  17.115  0.5861  0.1372 -0.6845
 5552TIP3    H138147   1.451   6.636  17.199  0.6775 -0.7084 -0.5411
 5552TIP3    H238148   1.478   6.709  17.070 -1.0439 -0.1081 -0.5713
 5553TIP3   OH238149   4.387   1.506   6.525  0.7478 -0.5795 -0.2024
 5553TIP3    H138150   4.401   1.507   6.620 -1.6247  1.0675  0.1773
 5553TIP3    H238151   4.427   1.424   6.496  1.9017 -0.8978  2.1537
 5554TIP3   OH238152   2.562   1.578  12.875  0.1325  0.2241 -0.0224
 5554TIP3    H138153   2.523   1.498  12.838  1.3199 -0.9382  1.2153
 5554TIP3    H238154   2.487   1.636  12.889 -0.7643 -0.7224 -0.7809
 5555TIP3   OH238155   3.633   2.295  11.729 -0.3690  0.0301 -0.4734
 5555TIP3    H138156   3.591   2.239  11.663  0.9250 -0.9387 -0.5044
 5555TIP3    H238157   3.711   2.329  11.685 -0.1262  0.3152  0.1757
 5556TIP3   OH238158   1.238   5.769  12.687 -0.0631  0.1170 -0.0669
 5556TIP3    H138159   1.309   5.826  12.656 -0.1601  0.9116  1.1522
 5556TIP3    H238160   1.265   5.681  12.659  1.4638  0.3885  0.4835
 5557TIP3   OH238161   6.563   2.470  11.982 -0.2934  0.0091 -0.6345
 5557TIP3    H138162   6.597   2.409  12.047  0.4215  0.6853 -0.3686
 5557TIP3    H238163   6.629   2.473  11.913  0.0910  1.1459 -0.2278
 5558TIP3   OH238164   2.036   6.403   0.377  0.2649  0.5959  0.2573
 5558TIP3    H138165   2.025   6.420   0.283  0.4009  0.8126  0.2826
 5558TIP3    H238166   1.963   6.345   0.399 -0.5087  1.5776  0.2950
 5559TIP3   OH238167   6.040   2.786  12.895 -0.8695 -0.2855 -0.6213
 5559TIP3    H138168   6.068   2.829  12.814 -1.8362 -1.6058 -1.6786
 5559TIP3    H238169   5.981   2.850  12.936  2.2565  1.7881  0.7727
 5560TIP3   OH238170   0.088   1.102  16.288 -0.2793 -0.1337  0.2425
 5560TIP3    H138171   0.148   1.127  16.217 -1.0542 -0.9623 -0.7174
 5560TIP3    H238172   0.010   1.156  16.273  0.1614  0.8659  1.4297
 5561TIP3   OH238173   0.445   2.881   2.819 -0.7272  0.0699 -0.2561
 5561TIP3    H138174   0.413   2.939   2.888  1.6017  1.3336 -0.1802
 5561TIP3    H238175   0.367   2.857   2.769 -2.2461  0.1781  2.0270
 5562TIP3   OH238176   1.520   3.069  15.525  0.0306 -0.0440  0.6004
 5562TIP3    H138177   1.600   3.020  15.508  0.5440  1.7324 -2.4089
 5562TIP3    H238178   1.451   3.002  15.525  0.9593 -1.0576 -1.4374
 5563TIP3   OH238179   4.866   5.290   1.972 -0.2001 -0.4255 -0.2241
 5563TIP3    H138180   4.793   5.307   1.913 -0.1065  0.9666  0.0259
 5563TIP3    H238181   4.830   5.301   2.060  0.8146  2.7494 -0.1230
 5564TIP3   OH238182   4.860   4.019   2.904 -0.1264  0.1724  0.0068
 5564TIP3    H138183   4.844   4.093   2.847 -1.8225  0.1682  0.4264
 5564TIP3    H238184   4.803   3.950   2.870 -0.4456 -0.1282  1.1207
 5565TIP3   OH238185   1.265   2.525  12.835  0.1669  0.2623  0.1451
 5565TIP3    H138186   1.308   2.586  12.895  0.4003 -0.5177  0.7753
 5565TIP3    H238187   1.335   2.468  12.803  0.2609  1.4733 -1.8622
 5566TIP3   OH238188   0.823   6.704   4.272 -0.6326  0.1368  0.1366
 5566TIP3    H138189   0.788   6.673   4.356  0.3739 -0.6884  0.2530
 5566TIP3    H238190   0.862   6.789   4.292  3.0151 -1.7070  1.3522
 5567TIP3   OH238191   6.174   2.068  16.023 -0.0529 -0.3670 -0.9511
 5567TIP3    H138192   6.115   2.143  16.024 -1.1838 -1.2414 -0.1049
 5567TIP3    H238193   6.259   2.103  16.051 -1.2970  0.0557  2.6283
 5568TIP3   OH238194   5.073   1.609  16.539 -0.0662  0.2969 -0.3286
 5568TIP3    H138195   5.084   1.566  16.454  1.9409  2.6984 -1.3311
 5568TIP3    H238196   5.147   1.578  16.592  0.6609  1.5184 -0.6292
 5569TIP3   OH238197   1.875   4.413  16.692 -0.2005  0.0280 -0.0048
 5569TIP3    H138198   1.783   4.420  16.717 -0.9018 -1.6929 -1.9943
 5569TIP3    H238199   1.915   4.362  16.762 -1.2376 -1.1246 -0.2432
 5570TIP3   OH238200   5.631   0.147  16.422 -0.0887  0.2282  0.4919
 5570TIP3    H138201   5.625   0.226  16.368 -0.5796  0.2525  0.5817
 5570TIP3    H238202   5.709   0.102  16.389 -1.6282 -0.8864 -1.8060
 5571TIP3   OH238203   2.571   3.275   3.884  0.2558 -0.9435 -0.1225
 5571TIP3    H138204   2.574   3.210   3.954  3.4470 -1.4217 -0.6056
 5571TIP3    H238205   2.604   3.229   3.807 -1.6665  0.0238 -1.5669
 5572TIP3   OH238206   0.414   3.663  12.405 -0.2878  0.0191  0.0143
 5572TIP3    H138207   0.452   3.658  12.318  0.0224  0.5125  0.1218
 5572TIP3    H238208   0.336   3.718  12.394 -1.2419 -1.3688 -0.2979
 5573TIP3   OH238209   3.074   6.041   1.961  0.4383  0.0254  0.0521
 5573TIP3    H138210   3.050   6.122   1.916  1.7871 -0.9879 -2.6189
 5573TIP3    H238211   3.146   6.065   2.019  0.5191  0.8098 -0.3744
 5574TIP3   OH238212   0.717   6.703  16.485 -0.3314 -0.2087 -0.3730
 5574TIP3    H138213   0.642   6.755  16.513 -1.3497 -1.0973 -1.4390
 5574TIP3    H238214   0.745   6.656  16.564 -1.9436 -1.1624 -0.3585
 5575TIP3   OH238215   5.445   6.737  13.698  0.2576  0.3985  0.3897
 5575TIP3    H138216   5.386   6.707  13.767  0.8174 -1.7814 -0.0638
 5575TIP3    H238217   5.416   6.826  13.679 -2.7644 -0.5654  0.3096
 5576TIP3   OH238218   4.069   1.004   4.406  0.1718  0.1012 -0.0827
 5576TIP3    H138219   4.111   1.079   4.364  0.3493  0.9974  1.6564
 5576TIP3    H238220   4.044   0.947   4.333 -0.4038  2.0632 -1.4728
 5577TIP3   OH238221   6.786   2.957   2.109 -0.4864 -0.4288  1.0039
 5577TIP3    H138222   6.811   3.046   2.134 -1.5707 -0.2655  1.5422
 5577TIP3    H238223   6.801   2.953   2.015 -1.6406  0.7456  0.7554
 5578TIP3   OH238224   3.419   3.954   2.749 -0.3501 -0.3190  0.1908
 5578TIP3    H138225   3.513   3.959   2.768 -0.4769  0.2935  0.6806
 5578TIP3    H238226   3.410   3.989   2.661 -0.0349 -1.0218 -0.1249
 5579TIP3   OH238227   4.733   3.754  13.380 -0.3530  0.1052 -0.2936
 5579TIP3    H138228   4.646   3.750  13.420  0.2840  0.2915  1.1237
 5579TIP3    H238229   4.748   3.848  13.367 -1.3364 -0.0238 -2.7524
 5580TIP3   OH238230   4.043   4.234   2.734  0.3646  0.5059 -0.5263
 5580TIP3    H138231   3.996   4.236   2.818 -0.5477  0.3372 -1.0160
 5580TIP3    H238232   4.015   4.151   2.694  0.5307  0.7505 -1.1451
 5581TIP3   OH238233   5.643   4.393  10.760  0.4118 -0.5769 -0.7839
 5581TIP3    H138234   5.655   4.474  10.710 -0.9535  0.3901  0.3917
 5581TIP3    H238235   5.717   4.392  10.821  1.0766 -0.8217 -1.5870
 5582TIP3   OH238236   4.877   2.766   1.538  0.2350  0.7104  0.1281
 5582TIP3    H138237   4.831   2.812   1.608  0.5091  1.8220 -0.4034
 5582TIP3    H238238   4.966   2.801   1.541  0.5073  0.0485 -0.1407
 5583TIP3   OH238239   3.928   0.431   0.357 -0.2829 -0.6091  0.0587
 5583TIP3    H138240   4.008   0.417   0.408 -0.8660 -1.9945  0.6528
 5583TIP3    H238241   3.874   0.488   0.412  1.5487  2.9980 -1.7491
 5584TIP3   OH238242   3.566   6.775  13.816  0.2225 -0.1771 -0.4152
 5584TIP3    H138243   3.543   6.843  13.880  1.3181  0.1487 -0.3496
 5584TIP3    H238244   3.554   6.693  13.863 -1.5594 -0.0596 -0.6364
 5585TIP3   OH238245   4.378   6.341  12.515 -0.3896 -0.0349  0.1599
 5585TIP3    H138246   4.405   6.306  12.600  0.4561 -0.8315 -0.4250
 5585TIP3    H238247   4.396   6.270  12.453  0.4657  1.0936 -0.9087
 5586TIP3   OH238248   2.283   2.550  11.690 -0.2117 -0.1679 -0.2077
 5586TIP3    H138249   2.202   2.521  11.731 -0.6026  1.4664  0.1966
 5586TIP3    H238250   2.332   2.469  11.674 -1.4815 -1.0813  0.4437
 5587TIP3   OH238251   0.114   4.222  11.445  0.0870  0.5945  0.2185
 5587TIP3    H138252   0.200   4.196  11.481  0.1440  0.6942  0.1537
 5587TIP3    H238253   0.078   4.282  11.510 -0.1849  0.1030  0.5235
 5588TIP3   OH238254   0.587   4.777   1.353 -0.4448 -0.0046  0.2508
 5588TIP3    H138255   0.669   4.825   1.367 -0.6845  0.4929 -0.0327
 5588TIP3    H238256   0.569   4.735   1.437  1.3695 -2.1019 -0.3648
 5589TIP3   OH238257   4.590   2.775   3.332  0.6041  0.5632 -0.0966
 5589TIP3    H138258   4.561   2.831   3.404 -1.1449  0.8868 -1.0313
 5589TIP3    H238259   4.676   2.809   3.308 -0.5073  3.0194 -0.7863
 5590TIP3   OH238260   6.051   2.396  11.763 -0.0479  0.4697 -0.2087
 5590TIP3    H138261   6.115   2.351  11.818 -0.4768  0.3505  0.2010
 5590TIP3    H238262   6.084   2.385  11.674 -0.1605 -0.6712 -0.1178
 5591TIP3   OH238263   3.403   2.506   1.886 -0.0232  0.1702  0.0566
 5591TIP3    H138264   3.397   2.411   1.876  0.6596  0.3284 -1.9201
 5591TIP3    H238265   3.351   2.524   1.964 -1.3512 -1.6599 -0.3626
 5592TIP3   OH238266   5.716   1.727  11.137 -0.4072  0.1535  0.0837
 5592TIP3    H138267   5.694   1.785  11.064  0.2110 -0.0789 -0.2986
 5592TIP3    H238268   5.633   1.688  11.163 -1.0806  2.3675  1.3544
 5593TIP3   OH238269   4.076   2.189  11.749  0.3276 -0.2036 -0.0881
 5593TIP3    H138270   3.998   2.149  11.786  0.6101 -0.6308  0.0487
 5593TIP3    H238271   4.145   2.172  11.813  1.2446 -2.5461 -1.5967
 5594TIP3   OH238272   1.945   2.025  12.636  0.4616  0.4511  0.4465
 5594TIP3    H138273   2.003   2.062  12.569  0.3750  1.4475  0.9154
 5594TIP3    H238274   1.910   2.101  12.682 -0.6905 -0.1739  0.6155
 5595TIP3   OH238275   6.405   4.215  13.501  0.3430 -0.1997  0.0835
 5595TIP3    H138276   6.407   4.284  13.435 -0.6084  0.6752  0.9551
 5595TIP3    H238277   6.431   4.258  13.582 -1.9553 -0.4481  0.9831
 5596TIP3   OH238278   5.311   1.531   4.126  0.4220  0.3756 -0.0270
 5596TIP3    H138279   5.246   1.598   4.109 -0.7413 -0.9613 -0.9922
 5596TIP3    H238280   5.366   1.530   4.048  1.4436  1.3161  0.6711
 5597TIP3   OH238281   4.496   2.638   1.377 -0.0953  0.2609 -0.5529
 5597TIP3    H138282   4.441   2.617   1.302 -0.8475 -0.0611  0.0769
 5597TIP3    H238283   4.586   2.624   1.346 -0.2037  3.0462 -2.3077
 5598TIP3   OH238284   2.574   6.363  16.986 -0.3186 -0.4855  0.1428
 5598TIP3    H138285   2.513   6.417  16.936 -0.5097  0.8404  1.7441
 5598TIP3    H238286   2.645   6.344  16.924 -0.5335  1.1255 -0.6426
 5599TIP3   OH238287   3.223   6.731   6.511 -0.5254 -0.6572  0.4718
 5599TIP3    H138288   3.143   6.714   6.460 -0.2575  0.2280 -0.2595
 5599TIP3    H238289   3.294   6.714   6.450 -0.1625 -1.0055  0.9925
 5600TIP3   OH238290   5.697   5.378   2.784  0.1765  0.2379 -0.0821
 5600TIP3    H138291   5.637   5.447   2.753  0.1649  0.0569 -0.4675
 5600TIP3    H238292   5.703   5.392   2.878 -0.4712  0.2672 -0.0420
 5601TIP3   OH238293   2.176   2.288   1.182 -0.3220  0.3770  0.2866
 5601TIP3    H138294   2.196   2.382   1.181 -0.6128  0.4341 -2.1085
 5601TIP3    H238295   2.260   2.245   1.166 -0.4907  0.2809 -0.3266
 5602TIP3   OH238296   3.070   6.545   4.126  0.3946 -0.2177  0.2426
 5602TIP3    H138297   3.040   6.618   4.072 -0.5744 -1.0640 -0.3733
 5602TIP3    H238298   3.026   6.556   4.210  1.8388  1.0532  0.8611
 5603TIP3   OH238299   3.625   2.769  12.883  0.3603 -0.0450  0.5556
 5603TIP3    H138300   3.665   2.687  12.853 -1.4637 -0.6585 -0.2591
 5603TIP3    H238301   3.658   2.781  12.972  2.0174 -0.7422  0.0521
 5604TIP3   OH238302   0.503   0.162  15.011  0.2295  0.5232 -0.4864
 5604TIP3    H138303   0.432   0.123  14.959  0.0178 -0.1399  0.2818
 5604TIP3    H238304   0.583   0.129  14.971  0.1176  1.5654 -1.5827
 5605TIP3   OH238305   2.617   0.940   5.033  0.3046 -0.3309  0.4267
 5605TIP3    H138306   2.584   1.029   5.047  1.7261  0.3315 -0.3093
 5605TIP3    H238307   2.635   0.908   5.122 -1.5347 -0.4276  0.7883
 5606TIP3   OH238308   0.454   6.332  16.846 -0.1751 -0.2148 -0.1342
 5606TIP3    H138309   0.367   6.296  16.830 -0.1272 -1.0667  1.3456
 5606TIP3    H238310   0.514   6.261  16.823  0.0053 -0.4855  1.1384
 5607TIP3   OH238311   6.058   5.805  12.349 -0.5245  0.0083 -0.1021
 5607TIP3    H138312   6.015   5.806  12.434 -0.5336  0.0733 -0.1072
 5607TIP3    H238313   5.990   5.778  12.288 -0.5574  0.1048 -0.1088
 5608TIP3   OH238314   6.722   2.080   0.369 -0.4007  0.1778 -0.1316
 5608TIP3    H138315   6.724   1.990   0.403 -0.5423  0.0620 -0.4279
 5608TIP3    H238316   6.733   2.135   0.446  0.8920 -0.1172 -0.0924
 5609TIP3   OH238317   5.781   5.569  16.017 -0.5821 -0.4528 -0.0968
 5609TIP3    H138318   5.849   5.501  16.019 -0.7799 -0.6367  1.0947
 5609TIP3    H238319   5.719   5.538  15.952 -0.8053 -1.5712  0.6306
 5610TIP3   OH238320   0.052   5.514   0.315  0.4205 -0.7094 -0.0420
 5610TIP3    H138321   0.099   5.453   0.371  0.4176 -0.9706 -0.3199
 5610TIP3    H238322   0.077   5.490   0.226  2.4565  1.3808 -0.0804
 5611TIP3   OH238323   6.077   5.378   3.886 -0.6420 -0.0904  0.2182
 5611TIP3    H138324   6.120   5.313   3.832  0.6293  1.4906 -0.7286
 5611TIP3    H238325   6.006   5.412   3.832  0.7573  1.6385 -0.6085
 5612TIP3   OH238326   1.931   6.521   0.905 -0.4510  0.0510  0.0112
 5612TIP3    H138327   1.913   6.476   0.822  0.0392  1.6277 -0.9935
 5612TIP3    H238328   1.874   6.598   0.903  1.7557  1.7411 -0.3031
 5613TIP3   OH238329   6.796   0.153  15.283  0.1466  0.1269 -0.0134
 5613TIP3    H138330   6.885   0.169  15.314  0.6840 -1.4725 -0.6765
 5613TIP3    H238331   6.744   0.224  15.321  1.8365  1.5289 -0.2555
 5614TIP3   OH238332   0.096   6.544   6.300 -0.7698  0.2106 -0.4590
 5614TIP3    H138333   0.111   6.628   6.343 -1.7001 -0.1834  0.6670
 5614TIP3    H238334   0.174   6.530   6.247 -0.1454  1.2949  0.1480
 5615TIP3   OH238335   2.298   3.896  12.679 -0.2687 -0.1805 -0.8547
 5615TIP3    H138336   2.283   3.802  12.676 -0.0428 -0.1983 -1.5950
 5615TIP3    H238337   2.367   3.912  12.615 -1.3023  0.6619 -1.8022
 5616TIP3   OH238338   4.150   1.653   1.942 -0.3102 -0.2927 -0.6327
 5616TIP3    H138339   4.112   1.713   2.006  1.9383 -0.1686  0.6399
 5616TIP3    H238340   4.148   1.702   1.860 -2.2393 -0.0507 -0.4678
 5617TIP3   OH238341   4.307   0.441   5.380  0.4346 -0.2333  0.1298
 5617TIP3    H138342   4.300   0.525   5.426  0.7270 -0.1973  0.1089
 5617TIP3    H238343   4.330   0.378   5.448  2.2797  0.0676 -0.1977
 5618TIP3   OH238344   2.548   6.155   3.507 -0.2142 -0.2918  0.5765
 5618TIP3    H138345   2.629   6.104   3.512  1.1537  1.6844 -0.7444
 5618TIP3    H238346   2.498   6.114   3.436 -1.1541 -2.5215  2.4534
 5619TIP3   OH238347   1.096   3.933  17.146 -0.6851  0.0481 -0.0222
 5619TIP3    H138348   1.143   4.001  17.194 -1.7808  1.4569 -0.9135
 5619TIP3    H238349   1.144   3.853  17.165  1.9266  1.4077 -0.7178
 5620TIP3   OH238350   5.066   1.294   6.585  0.0252 -0.4593 -0.1546
 5620TIP3    H138351   5.124   1.338   6.523 -0.5592 -0.3360 -0.6170
 5620TIP3    H238352   5.007   1.363   6.617  0.3091 -0.5237  0.5256
 5621TIP3   OH238353   0.289   0.072  12.744 -0.3995 -0.9950 -0.0824
 5621TIP3    H138354   0.314   0.103  12.831 -0.9356  0.1502 -0.3413
 5621TIP3    H238355   0.199   0.041  12.755 -0.6548 -0.3539 -0.3512
 5622TIP3   OH238356   4.689   3.801   3.814  0.1084 -0.6769  0.1267
 5622TIP3    H138357   4.744   3.772   3.742 -1.1118 -1.9649 -0.2944
 5622TIP3    H238358   4.681   3.725   3.871 -1.2041 -0.5023  0.1994
 5623TIP3   OH238359   0.672   1.220  13.405 -0.3393  0.0330  0.5039
 5623TIP3    H138360   0.625   1.232  13.488 -2.7626 -1.2324 -0.6375
 5623TIP3    H238361   0.640   1.291  13.349  1.0816  0.7163  0.5343
 5624TIP3   OH238362   5.564   6.153   1.841  0.0569 -0.2782 -0.2369
 5624TIP3    H138363   5.658   6.165   1.823 -0.2286 -0.6086 -2.0580
 5624TIP3    H238364   5.555   6.060   1.859 -0.1218 -0.4746 -1.3411
 5625TIP3   OH238365   5.001   2.782  12.654  0.0427 -0.1066  0.3451
 5625TIP3    H138366   4.985   2.860  12.707  0.5391  0.5615 -0.4800
 5625TIP3    H238367   4.916   2.762  12.614  0.3105  1.0740 -0.8570
 5626TIP3   OH238368   2.479   3.794   2.087 -0.1895  0.2482 -0.0051
 5626TIP3    H138369   2.395   3.833   2.062  0.9183  1.5030 -1.8416
 5626TIP3    H238370   2.523   3.862   2.138  0.7213  0.5059 -1.1180
 5627TIP3   OH238371   1.699   5.517  15.562 -0.0673 -0.4381 -0.3857
 5627TIP3    H138372   1.778   5.559  15.528 -0.5958  0.2888 -0.7377
 5627TIP3    H238373   1.628   5.578  15.540 -0.6004 -0.6344  0.7574
 5628TIP3   OH238374   0.354   3.415   6.456 -0.0648 -0.0785 -0.1492
 5628TIP3    H138375   0.359   3.364   6.537 -0.0168  0.6363  0.3123
 5628TIP3    H238376   0.264   3.449   6.455 -0.0405 -0.0192 -0.3488
 5629TIP3   OH238377   1.010   4.824  10.913  0.5036 -0.3846 -0.2093
 5629TIP3    H138378   0.981   4.764  10.981 -0.1994 -2.2342 -2.0812
 5629TIP3    H238379   1.103   4.804  10.901  0.6033 -0.1271  0.1272
 5630TIP3   OH238380   6.090   2.503  14.605  0.2826  0.1392 -0.1082
 5630TIP3    H138381   6.001   2.524  14.634  0.1699 -1.5506  0.8250
 5630TIP3    H238382   6.078   2.434  14.540  0.9083 -0.0125 -0.0619
 5631TIP3   OH238383   5.221   5.547   4.967 -0.1262  0.1464  0.7605
 5631TIP3    H138384   5.210   5.603   5.044  1.9571  0.5207  0.8084
 5631TIP3    H238385   5.159   5.475   4.981 -2.1551  1.9251  1.1464
 5632TIP3   OH238386   5.025   4.258  12.821  0.0943 -0.0059 -0.0354
 5632TIP3    H138387   5.091   4.252  12.752 -1.0925  0.1096 -1.1740
 5632TIP3    H238388   4.945   4.283  12.777 -0.8295 -0.5235  1.3050
 5633TIP3   OH238389   4.018   5.521   4.052  0.3614  0.3042 -0.1234
 5633TIP3    H138390   3.983   5.609   4.070  1.8293  0.7403  0.6665
 5633TIP3    H238391   4.007   5.474   4.135 -2.1992 -0.9015 -1.0892
 5634TIP3   OH238392   1.452   1.254   6.184 -0.5266 -0.0902  0.3495
 5634TIP3    H138393   1.402   1.298   6.115 -0.9967  0.4056  0.9911
 5634TIP3    H238394   1.393   1.185   6.215 -0.2641 -0.3970  0.1668
 5635TIP3   OH238395   5.313   3.272   5.971  0.4083 -0.2393  0.3277
 5635TIP3    H138396   5.288   3.333   6.040  0.7236  0.2229  0.0335
 5635TIP3    H238397   5.230   3.233   5.943  0.1004  0.6893 -0.0795
 5636TIP3   OH238398   2.187   3.131  17.238  0.2574 -0.1434  0.4779
 5636TIP3    H138399   2.159   3.199  17.177 -0.1094  0.4205  1.2611
 5636TIP3    H238400   2.267   3.095  17.199 -1.3928 -1.6129 -1.6830
 5637TIP3   OH238401   6.086   0.949   2.080  0.2078  0.1968 -0.1455
 5637TIP3    H138402   6.042   0.972   2.162  1.2943 -0.6679  0.6947
 5637TIP3    H238403   6.103   0.855   2.087 -3.0655 -0.7087 -3.0044
 5638TIP3   OH238404   6.481   5.965  13.713  0.1351 -0.0495 -0.4943
 5638TIP3    H138405   6.498   6.023  13.788  1.1686 -1.5942  0.5023
 5638TIP3    H238406   6.419   5.900  13.747  0.3429 -0.5541 -1.0724
 5639TIP3   OH238407   6.803   0.817  16.258 -0.2804  0.4239  1.0439
 5639TIP3    H138408   6.791   0.857  16.172 -0.9503  0.8025  1.3170
 5639TIP3    H238409   6.802   0.890  16.320  0.8405  0.2211  1.3187
 5640TIP3   OH238410   1.079   3.445   1.502 -0.3290 -0.2008 -0.3047
 5640TIP3    H138411   1.005   3.502   1.483  0.8285  1.4842  0.0785
 5640TIP3    H238412   1.153   3.486   1.458  0.3128 -2.1320 -1.1024
 5641TIP3   OH238413   0.626   6.611   5.230 -0.2002 -0.1538 -0.3696
 5641TIP3    H138414   0.661   6.676   5.291  1.4699  0.5030 -1.9689
 5641TIP3    H238415   0.558   6.566   5.279 -0.0836  1.5299  1.3994
 5642TIP3   OH238416   4.224   0.908   1.049 -0.1161  0.1024 -0.1946
 5642TIP3    H138417   4.271   0.955   1.118 -0.2363 -0.7140  0.4573
 5642TIP3    H238418   4.293   0.859   1.004 -0.4379 -1.8561  1.3758
 5643TIP3   OH238419   2.608   5.080   5.841  0.4631 -0.1705  0.4425
 5643TIP3    H138420   2.562   4.998   5.862 -0.2632  0.4881  1.4832
 5643TIP3    H238421   2.696   5.066   5.874  0.5565 -0.8093 -0.0528
 5644TIP3   OH238422   0.417   4.987  11.561  0.4330  0.1399 -0.0319
 5644TIP3    H138423   0.385   5.041  11.488  1.8340 -0.7507 -1.3516
 5644TIP3    H238424   0.342   4.976  11.618 -0.7424  0.7512 -1.4318
 5645TIP3   OH238425   2.066   5.747   2.938 -0.5021  0.5820 -0.0637
 5645TIP3    H138426   2.048   5.712   3.025 -2.7551  0.4628 -0.5235
 5645TIP3    H238427   2.146   5.702   2.910  0.6458  1.1570  2.2032
 5646TIP3   OH238428   0.356   1.301  11.164  0.2794 -0.5843  0.1284
 5646TIP3    H138429   0.333   1.349  11.085  0.1301  1.1479  1.1963
 5646TIP3    H238430   0.451   1.294  11.160  0.3363  0.1107  0.1207
 5647TIP3   OH238431   3.889   5.294  11.837 -0.3167  0.0172  0.0041
 5647TIP3    H138432   3.883   5.245  11.755  2.0135 -0.3705  0.0391
 5647TIP3    H238433   3.937   5.373  11.814  0.9409 -0.3987  1.0900
 5648TIP3   OH238434   0.955   2.347  12.374  0.6739  0.0493 -0.2568
 5648TIP3    H138435   1.017   2.297  12.427  0.6176 -0.6283 -0.8255
 5648TIP3    H238436   1.003   2.428  12.353  0.6891  0.3353  0.8263
 5649TIP3   OH238437   1.312   0.980  13.404  0.3971 -0.0757 -0.4266
 5649TIP3    H138438   1.326   1.073  13.425  0.3015 -0.1203 -0.1531
 5649TIP3    H238439   1.261   0.981  13.324  0.3944  0.1094 -0.4245
 5650TIP3   OH238440   5.754   0.379   3.828  0.0598  0.1172  0.2900
 5650TIP3    H138441   5.779   0.304   3.774 -0.3240 -0.3767  0.8015
 5650TIP3    H238442   5.687   0.424   3.777 -0.9684 -0.8675  0.7656
 5651TIP3   OH238443   2.887   0.570   3.807  0.6220 -0.3567  0.1005
 5651TIP3    H138444   2.842   0.636   3.755  3.0679 -0.0508 -1.6940
 5651TIP3    H238445   2.842   0.488   3.787 -1.9126  0.5747  1.7320
 5652TIP3   OH238446   2.738   0.563  15.202  0.7520 -0.1892 -0.2788
 5652TIP3    H138447   2.714   0.471  15.212 -1.2743  0.4015  0.4409
 5652TIP3    H238448   2.831   0.566  15.226  0.9568 -2.1191 -0.7846
 5653TIP3   OH238449   5.456   2.086  11.824 -0.1510  0.1761  0.0889
 5653TIP3    H138450   5.475   1.995  11.843  1.5414  0.5328  0.1694
 5653TIP3    H238451   5.438   2.088  11.730  0.0397 -0.1914  0.0451
 5654TIP3   OH238452   0.798   0.616   5.323  0.0852 -0.2383 -0.7608
 5654TIP3    H138453   0.873   0.628   5.381  0.3334 -0.6478 -0.9970
 5654TIP3    H238454   0.773   0.705   5.298 -0.1619 -0.0421  0.1418
 5655TIP3   OH238455   4.079   1.646  16.637 -0.1777  0.4895 -0.3418
 5655TIP3    H138456   3.986   1.670  16.636 -0.5338 -0.8040  0.2270
 5655TIP3    H238457   4.081   1.560  16.679  1.2479  0.3602 -0.6436
 5656TIP3   OH238458   6.304   6.596   3.022  0.1555  0.2510  0.0392
 5656TIP3    H138459   6.211   6.574   3.015 -0.1998  1.0435  1.9936
 5656TIP3    H238460   6.332   6.555   3.104  0.4550  3.6163  1.6981
 5657TIP3   OH238461   4.046   3.610   0.859  0.0425 -0.0211 -0.1837
 5657TIP3    H138462   4.052   3.585   0.767 -1.3910  0.6327 -0.4785
 5657TIP3    H238463   4.136   3.605   0.892  0.2195 -2.6462 -0.9742
 5658TIP3   OH238464   3.781   1.029  13.013 -0.4482  0.3117 -0.4415
 5658TIP3    H138465   3.872   1.041  12.987 -0.2675  0.2027  0.1282
 5658TIP3    H238466   3.737   1.002  12.933  0.1622 -0.3196 -0.5705
 5659TIP3   OH238467   3.533   0.049  13.198 -0.0440 -0.0937  0.9843
 5659TIP3    H138468   3.621   0.015  13.218  0.7881  0.6777 -1.1899
 5659TIP3    H238469   3.477  -0.029  13.201  1.5232 -1.4284 -2.0862
 5660TIP3   OH238470   2.766   0.388  15.898 -0.7637 -0.1661 -0.4013
 5660TIP3    H138471   2.795   0.369  15.809 -0.6624  0.4553 -0.5036
 5660TIP3    H238472   2.721   0.309  15.927 -0.8499 -0.3430 -1.0293
 5661TIP3   OH238473   5.140   4.866  13.398 -0.3734 -0.5666  0.3521
 5661TIP3    H138474   5.169   4.946  13.441  0.3968 -2.2203  3.0265
 5661TIP3    H238475   5.221   4.817  13.380 -0.9625 -1.7081  0.7332
 5662TIP3   OH238476   5.052   1.800   5.003  0.0415 -0.1788  0.3023
 5662TIP3    H138477   5.101   1.793   4.921  0.0006 -0.9660  0.3356
 5662TIP3    H238478   4.960   1.792   4.977 -0.0230  0.4596  0.3300
 5663TIP3   OH238479   3.608   5.975  11.799 -0.0831  0.2208  0.8002
 5663TIP3    H138480   3.628   5.886  11.771 -0.9493  0.1111  0.5066
 5663TIP3    H238481   3.692   6.020  11.800  0.1132 -0.1110 -0.7917
 5664TIP3   OH238482   2.930   2.342  10.459  0.7576 -0.0866 -0.1814
 5664TIP3    H138483   2.983   2.285  10.515  1.9803  1.5552  0.3514
 5664TIP3    H238484   2.905   2.415  10.516 -0.1108  0.3300 -1.0835
 5665TIP3   OH238485   5.152   2.488   3.363 -0.3849  0.4807 -0.4180
 5665TIP3    H138486   5.086   2.552   3.338 -0.3297 -0.1036 -2.1074
 5665TIP3    H238487   5.226   2.507   3.305 -0.1954 -0.7978 -0.5975
 5666TIP3   OH238488   4.494   0.645   6.128  0.0559 -0.5855  0.3724
 5666TIP3    H138489   4.415   0.683   6.089 -0.8949 -0.7603  2.0720
 5666TIP3    H238490   4.505   0.561   6.083 -2.0447 -1.5955  1.6293
 5667TIP3   OH238491   2.448   5.324  15.095 -0.7006  0.1132  0.1580
 5667TIP3    H138492   2.514   5.334  15.163  0.1009  0.8043 -0.6995
 5667TIP3    H238493   2.498   5.327  15.013 -1.9430  1.9993 -0.5571
 5668TIP3   OH238494   0.260   5.845  13.315 -0.2740  0.2844 -0.0312
 5668TIP3    H138495   0.170   5.818  13.296 -0.4158  1.3238 -0.9222
 5668TIP3    H238496   0.294   5.778  13.374 -1.8092  0.1670  0.7416
 5669TIP3   OH238497   0.767   3.484  12.711 -0.2196 -0.2095  0.5923
 5669TIP3    H138498   0.759   3.482  12.806 -0.8484 -0.7286  0.5342
 5669TIP3    H238499   0.861   3.482  12.694 -0.1319 -1.2118  1.1825
 5670TIP3   OH238500   2.368   0.706  12.242 -0.6589 -0.2693 -0.4447
 5670TIP3    H138501   2.435   0.772  12.224 -2.0185  1.6013  1.1185
 5670TIP3    H238502   2.312   0.707  12.165 -0.2646 -0.1019 -0.7297
 5671TIP3   OH238503   6.041   3.676   3.465 -0.1919  0.1593 -0.3335
 5671TIP3    H138504   5.962   3.716   3.500  1.1290  1.8112  0.8533
 5671TIP3    H238505   6.010   3.610   3.403 -2.4743  0.8146  0.0888
 5672TIP3   OH238506   5.127   2.664   0.676 -0.1900  0.5929  0.2908
 5672TIP3    H138507   5.165   2.748   0.653 -1.0141  0.7118 -0.6850
 5672TIP3    H238508   5.095   2.676   0.765  1.0247  0.8403  0.7003
 5673TIP3   OH238509   1.698   2.885   3.093 -0.2677  0.4360 -0.1322
 5673TIP3    H138510   1.745   2.832   3.029  1.7915  2.4343 -0.3625
 5673TIP3    H238511   1.633   2.932   3.041  1.9918  2.7354 -1.0046
 5674TIP3   OH238512   2.846   6.480  15.077  0.6469 -0.2773  0.1087
 5674TIP3    H138513   2.834   6.456  15.170  1.0641  0.6634  0.4070
 5674TIP3    H238514   2.934   6.449  15.055 -0.2855 -2.4931 -0.6092
 5675TIP3   OH238515   0.930   6.765   0.683  0.1471  0.3811  0.1587
 5675TIP3    H138516   0.938   6.853   0.720 -0.5210  0.6024 -0.2172
 5675TIP3    H238517   0.862   6.773   0.617 -0.8598 -0.7248  1.0483
 5676TIP3   OH238518   3.849   5.663   6.598 -0.3274  0.4134 -0.1935
 5676TIP3    H138519   3.827   5.663   6.691  0.5959  0.1347  0.0361
 5676TIP3    H238520   3.936   5.623   6.594 -0.5259  0.0571 -1.2204
 5677TIP3   OH238521   5.294   1.153   5.565  0.2916  0.6938  0.0670
 5677TIP3    H138522   5.330   1.114   5.485 -0.1978  0.4996 -0.0556
 5677TIP3    H238523   5.212   1.194   5.537  1.0712  2.3054  0.0750
 5678TIP3   OH238524   0.719   4.175   5.901 -0.0097 -0.1193  0.0719
 5678TIP3    H138525   0.723   4.102   5.963 -0.4187  0.6078  0.9636
 5678TIP3    H238526   0.783   4.238   5.933  0.2063  0.0095 -0.5899
 5679TIP3   OH238527   2.373   0.277   4.129  0.4993  0.0817  0.1445
 5679TIP3    H138528   2.323   0.212   4.081 -1.4132  1.3256  0.3993
 5679TIP3    H238529   2.375   0.353   4.071  0.8157  0.5500  0.7635
 5680TIP3   OH238530   3.640   4.687   2.422 -0.2683 -0.0006  0.4311
 5680TIP3    H138531   3.700   4.711   2.350 -1.4111  0.5636 -0.3475
 5680TIP3    H238532   3.644   4.591   2.425  0.8873  0.0476  0.5703
 5681TIP3   OH238533   4.512   2.873  14.272  0.3763 -0.2971 -0.3856
 5681TIP3    H138534   4.504   2.793  14.221  0.1646 -0.8110  0.4443
 5681TIP3    H238535   4.605   2.877  14.295  0.0404 -1.3742  1.2637
 5682TIP3   OH238536   0.223   0.819  13.349 -0.5295  0.2136  0.2320
 5682TIP3    H138537   0.140   0.789  13.312 -1.1529  0.9330  1.0156
 5682TIP3    H238538   0.199   0.858  13.433  0.4607  1.4459 -0.0405
 5683TIP3   OH238539   0.445   5.865   3.993 -0.4522  0.2286  0.3380
 5683TIP3    H138540   0.364   5.818   4.015  1.1397 -1.6712  2.4905
 5683TIP3    H238541   0.504   5.797   3.961  1.9491  0.6457  3.5926
 5684TIP3   OH238542   0.036   4.695   1.195 -0.9771  0.4785  0.2159
 5684TIP3    H138543   0.112   4.665   1.245  0.0169  1.9131 -0.3951
 5684TIP3    H238544   0.040   4.645   1.113 -0.1622  1.2068 -0.1934
 5685TIP3   OH238545   0.751   6.635   2.165  0.1050 -0.2885 -0.9193
 5685TIP3    H138546   0.686   6.582   2.120  1.7230  0.3233 -4.1558
 5685TIP3    H238547   0.703   6.714   2.192 -1.3494 -1.5477  0.2844
 5686TIP3   OH238548   0.705   1.987  13.950  0.6364 -0.4779  0.0251
 5686TIP3    H138549   0.644   1.966  13.880  1.2779 -0.5617 -0.5088
 5686TIP3    H238550   0.759   2.058  13.915  0.6545 -0.2075  0.5999
 5687TIP3   OH238551   0.071   1.033   1.959 -0.2143 -0.3048 -0.5780
 5687TIP3    H138552   0.090   1.087   1.882  0.3333  0.1314 -0.1415
 5687TIP3    H238553   0.147   0.975   1.966  0.8799  1.2792  1.0370
 5688TIP3   OH238554   4.675   0.925  16.757  0.0178  0.3777  0.1083
 5688TIP3    H138555   4.583   0.937  16.780 -0.0499 -0.0530  0.0550
 5688TIP3    H238556   4.674   0.890  16.668  0.2417  0.6350  0.0045
 5689TIP3   OH238557   2.891   5.375   3.346  0.2600  0.2594  0.2276
 5689TIP3    H138558   2.866   5.440   3.412  3.1042  1.3646  0.2877
 5689TIP3    H238559   2.970   5.334   3.381 -2.5399 -4.7467  1.1214
 5690TIP3   OH238560   1.004   4.415  12.307 -0.2852 -0.3620 -0.1324
 5690TIP3    H138561   0.944   4.397  12.380 -1.1877  2.2753 -0.1871
 5690TIP3    H238562   1.085   4.443  12.349 -0.6300  0.6342 -0.1253
 5691TIP3   OH238563   6.023   2.281  15.069  0.1046  0.6033 -0.6083
 5691TIP3    H138564   6.019   2.362  15.119 -2.2787  0.2337 -0.1474
 5691TIP3    H238565   6.110   2.245  15.089 -0.2326  1.1693  2.1935
 5692TIP3   OH238566   5.303   0.831  11.173 -0.2404  0.2047  0.1065
 5692TIP3    H138567   5.218   0.875  11.160  0.6614  1.7456 -0.7223
 5692TIP3    H238568   5.315   0.780  11.093  0.8121  2.0641 -0.9573
 5693TIP3   OH238569   2.886   5.327  16.967  0.1866  1.0352 -0.0752
 5693TIP3    H138570   2.897   5.248  16.915 -0.8961 -0.6748  2.2223
 5693TIP3    H238571   2.976   5.354  16.989  0.5201 -0.5112  0.5032
 5694TIP3   OH238572   1.008   2.061  15.929 -0.3310  0.4110  0.6204
 5694TIP3    H138573   0.963   2.146  15.935  0.9253  1.0241  1.4711
 5694TIP3    H238574   1.045   2.047  16.016 -0.9378 -1.2598  0.6388
 5695TIP3   OH238575   5.436   3.100   0.468  0.1946 -0.1484 -0.0606
 5695TIP3    H138576   5.343   3.118   0.455  0.1234 -0.3529  0.1662
 5695TIP3    H238577   5.439   3.045   0.546  0.5972  0.8158  0.6062
 5696TIP3   OH238578   6.641   2.313   2.762 -0.0461  0.1507  0.3935
 5696TIP3    H138579   6.563   2.337   2.812 -0.1109  1.0705 -0.1414
 5696TIP3    H238580   6.712   2.360   2.805  0.4448 -1.7248  1.7060
 5697TIP3   OH238581   5.424   3.554  14.565 -0.2543  0.1583  0.3105
 5697TIP3    H138582   5.461   3.466  14.555 -0.5374 -0.1336  1.6494
 5697TIP3    H238583   5.472   3.608  14.502 -0.3266 -1.0215 -0.7745
 5698TIP3   OH238584   5.310   0.530   2.019 -0.0290  0.4408 -0.3461
 5698TIP3    H138585   5.382   0.586   1.988  0.0231  0.9272  0.6427
 5698TIP3    H238586   5.337   0.502   2.106  0.6549 -2.4102 -1.4261
 5699TIP3   OH238587   3.339   4.160  17.015 -0.5815 -0.8137 -0.3522
 5699TIP3    H138588   3.364   4.088  17.073  0.3292 -0.4187 -0.2405
 5699TIP3    H238589   3.346   4.124  16.927 -0.2495 -0.8996 -0.2921
 5700TIP3   OH238590   0.159   4.368   2.515  0.4284  0.0917 -0.3362
 5700TIP3    H138591   0.116   4.290   2.480 -0.7364  1.4633 -2.0567
 5700TIP3    H238592   0.094   4.407   2.574  1.0892 -0.3357  0.6889
 5701TIP3   OH238593   1.673   3.881   5.007  0.4604 -0.0800 -0.3530
 5701TIP3    H138594   1.641   3.964   4.969  1.0549  0.6363  0.6973
 5701TIP3    H238595   1.756   3.866   4.963  0.0354 -0.4777 -1.0328
 5702TIP3   OH238596   2.294   2.458  15.503 -0.1925  0.5463 -0.2902
 5702TIP3    H138597   2.358   2.408  15.453 -0.6447  1.5532 -1.9082
 5702TIP3    H238598   2.209   2.430  15.467 -0.5278  1.1954 -0.0052
 5703TIP3   OH238599   0.522   3.148   3.609 -0.0373  0.5347 -0.3659
 5703TIP3    H138600   0.438   3.178   3.644 -0.0678 -2.1308  2.0861
 5703TIP3    H238601   0.500   3.072   3.556  0.6745  0.7807 -1.0229
 5704TIP3   OH238602   5.300   5.575   3.642  0.3469 -0.5235  0.0303
 5704TIP3    H138603   5.314   5.481   3.647  0.0148 -0.5043  1.5911
 5704TIP3    H238604   5.322   5.607   3.730 -2.3148  0.4590  0.3850
 5705TIP3   OH238605   2.126   3.975  14.585 -0.7406  0.9566  1.1492
 5705TIP3    H138606   2.175   3.893  14.590  0.6698  1.5720 -1.4950
 5705TIP3    H238607   2.160   4.028  14.656 -0.5759 -0.1794  1.9275
 5706TIP3   OH238608   1.555   3.046  12.316 -0.1325  0.3146 -0.5154
 5706TIP3    H138609   1.555   3.091  12.231 -0.7444 -0.7491 -1.0900
 5706TIP3    H238610   1.640   3.002  12.320  0.6073  1.7716  0.1963
 5707TIP3   OH238611   6.657   3.741   2.450 -0.0649 -0.1755  0.1954
 5707TIP3    H138612   6.741   3.740   2.494  0.0493 -0.3566 -0.0232
 5707TIP3    H238613   6.677   3.770   2.361 -0.1817 -0.5595  0.0412
 5708TIP3   OH238614   3.848   3.660   5.557 -0.1991  0.5428 -0.0815
 5708TIP3    H138615   3.862   3.587   5.617  0.0579  0.6912  0.0382
 5708TIP3    H238616   3.756   3.685   5.570 -0.2980  0.2142 -0.1537
 5709TIP3   OH238617   3.230   0.638  11.689  0.2377 -0.2484 -0.1209
 5709TIP3    H138618   3.136   0.655  11.694  0.1480 -0.7861 -0.0400
 5709TIP3    H238619   3.241   0.549  11.722  0.7495 -0.2632 -0.3239
 5710TIP3   OH238620   2.239   2.709  11.472 -0.2573  0.0729  0.7868
 5710TIP3    H138621   2.320   2.746  11.437 -0.5277  3.2934  3.3187
 5710TIP3    H238622   2.265   2.666  11.553 -0.7350 -1.0075  0.3761
 5711TIP3   OH238623   2.200   3.051   1.744  0.4174 -0.5172  0.1936
 5711TIP3    H138624   2.221   3.095   1.826  1.8684  0.2520 -0.5623
 5711TIP3    H238625   2.277   3.066   1.689 -0.2757 -1.5587 -1.0817
 5712TIP3   OH238626   2.371   6.074   4.940  0.3021 -0.2132 -0.2614
 5712TIP3    H138627   2.285   6.051   4.905  0.8671 -2.3728 -0.3218
 5712TIP3    H238628   2.433   6.033   4.880  1.4360  2.3173 -0.8935
 5713TIP3   OH238629   5.418   3.073  13.980 -0.1405 -0.4946  0.6187
 5713TIP3    H138630   5.416   3.135  13.907 -2.8712 -1.3783 -0.1075
 5713TIP3    H238631   5.511   3.054  13.993  0.5039  1.2070 -1.3248
 5714TIP3   OH238632   1.341   3.963  11.341  0.3937  0.3785 -0.2768
 5714TIP3    H138633   1.292   3.973  11.422 -0.0858  1.5956 -0.7018
 5714TIP3    H238634   1.333   4.048  11.297  2.3996  0.4259 -0.6135
 5715TIP3   OH238635   4.499   3.250   3.911  0.2347  0.0545  0.7868
 5715TIP3    H138636   4.491   3.222   4.003 -0.3227 -0.9200  0.4508
 5715TIP3    H238637   4.414   3.290   3.892  0.5006  0.6382  0.8151
 5716TIP3   OH238638   2.019   2.212  16.586 -0.7612  0.0622  0.4908
 5716TIP3    H138639   1.999   2.179  16.673 -1.1095 -0.4583  0.2220
 5716TIP3    H238640   1.969   2.155  16.527 -0.6984  0.5452 -0.0307
 5717TIP3   OH238641   2.873   6.131  11.582 -0.5008 -0.5142 -0.9844
 5717TIP3    H138642   2.938   6.131  11.512  0.8877  1.0091  0.2505
 5717TIP3    H238643   2.803   6.074  11.550  2.2106 -3.6532 -1.6469
 5718TIP3   OH238644   4.450   3.805  16.164  0.1008 -0.2172 -0.5259
 5718TIP3    H138645   4.379   3.860  16.131  0.3131 -0.7548 -1.9128
 5718TIP3    H238646   4.409   3.751  16.232 -0.6017  0.1151 -0.6756
 5719TIP3   OH238647   4.492   5.903   5.167 -0.6175 -0.3271 -0.0440
 5719TIP3    H138648   4.487   5.884   5.261 -1.4871 -1.8911 -0.3860
 5719TIP3    H238649   4.406   5.940   5.146 -0.7359 -0.7860 -0.3813
 5720TIP3   OH238650   1.355   0.150   0.214 -0.4673 -0.7492 -0.1581
 5720TIP3    H138651   1.361   0.244   0.196  0.3361 -0.7651 -0.0035
 5720TIP3    H238652   1.294   0.143   0.287 -0.9854 -0.3997 -0.5451
 5721TIP3   OH238653   1.055   5.725   0.235  0.0906  1.0527 -0.9262
 5721TIP3    H138654   0.961   5.737   0.247 -0.0476  2.1706 -2.9138
 5721TIP3    H238655   1.093   5.807   0.266  0.7617 -0.7089  3.2330
 5722TIP3   OH238656   4.856   2.983  12.080 -0.5687  0.2898 -0.1341
 5722TIP3    H138657   4.929   2.989  12.019 -0.0726  0.3501  0.4570
 5722TIP3    H238658   4.861   2.894  12.114 -0.9009  0.2259 -0.2489
 5723TIP3   OH238659   1.880   2.033   4.111  0.2749  0.2872  0.0846
 5723TIP3    H138660   1.924   2.104   4.064 -2.2444  1.9702  0.1907
 5723TIP3    H238661   1.862   1.967   4.044  2.0477  0.0060 -0.1385
 5724TIP3   OH238662   6.294   4.237   3.583 -0.3895 -0.4168 -0.2952
 5724TIP3    H138663   6.379   4.220   3.625 -0.3090  0.8829  0.0871
 5724TIP3    H238664   6.313   4.300   3.514 -0.8845 -0.8965 -0.8701
 5725TIP3   OH238665   4.174   1.889  16.792 -0.2755  0.1302  0.4055
 5725TIP3    H138666   4.170   1.951  16.720  1.4298 -0.6933 -0.4230
 5725TIP3    H238667   4.141   1.807  16.756  1.8473 -0.6401  0.1236
 5726TIP3   OH238668   3.606   2.807   0.438 -0.3824 -0.1789 -0.1357
 5726TIP3    H138669   3.686   2.817   0.489 -0.1130 -1.7019 -0.2467
 5726TIP3    H238670   3.635   2.784   0.350 -0.9206 -0.2378 -0.3033
 5727TIP3   OH238671   6.091   0.648  13.227  0.4660 -0.5606  0.1975
 5727TIP3    H138672   6.036   0.704  13.282  2.1289  0.5421  0.7486
 5727TIP3    H238673   6.146   0.709  13.178  2.2355 -1.6871  0.7371
 5728TIP3   OH238674   6.614   3.766  16.895 -0.4216  0.5296 -0.3477
 5728TIP3    H138675   6.572   3.719  16.823  0.0097  0.2775 -0.4301
 5728TIP3    H238676   6.558   3.747  16.971 -0.9316  0.8805 -0.6316
 5729TIP3   OH238677   4.764   5.703   0.463 -1.0205  0.7951 -0.0388
 5729TIP3    H138678   4.784   5.629   0.406 -2.2603 -1.1725  1.9756
 5729TIP3    H238679   4.669   5.697   0.476 -0.7656  1.1768  2.1870
 5730TIP3   OH238680   5.690   5.400   3.341 -0.1136 -0.2849 -0.4669
 5730TIP3    H138681   5.778   5.365   3.326  0.5102  1.4013 -0.7826
 5730TIP3    H238682   5.667   5.367   3.428  1.6807  0.9424  0.5198
 5731TIP3   OH238683   4.008   2.758  12.969 -0.1004  0.3614 -0.3877
 5731TIP3    H138684   3.972   2.728  13.053  0.8988  0.3350  0.0358
 5731TIP3    H238685   3.931   2.767  12.912 -0.6926 -0.4410  0.2723
 5732TIP3   OH238686   0.537   5.161   0.812 -0.1851  0.6075 -0.2063
 5732TIP3    H138687   0.483   5.103   0.759  0.1569 -1.3669  1.5422
 5732TIP3    H238688   0.622   5.118   0.817  0.2254  1.4858  0.7127
 5733TIP3   OH238689   2.627   2.126   6.467 -0.2127  0.0517 -0.0600
 5733TIP3    H138690   2.699   2.148   6.527  0.7457 -0.3388 -1.0479
 5733TIP3    H238691   2.586   2.210   6.447  0.4372  0.3790 -0.0552
 5734TIP3   OH238692   5.727   4.525  14.982 -0.1383  0.1744  0.2059
 5734TIP3    H138693   5.816   4.491  14.977 -0.3643 -0.4357  0.3153
 5734TIP3    H238694   5.671   4.448  14.977 -0.6813  0.6017 -0.4466
 5735TIP3   OH238695   6.429   5.717  16.595 -0.3682 -0.1420  0.1114
 5735TIP3    H138696   6.426   5.664  16.516 -1.1563 -0.2558  0.2142
 5735TIP3    H238697   6.446   5.806  16.564 -0.6272 -0.1944 -0.1749
 5736TIP3   OH238698   3.869   3.401  10.507 -0.0303  0.9399 -0.2091
 5736TIP3    H138699   3.916   3.319  10.523 -0.4552  0.8316  0.5122
 5736TIP3    H238700   3.929   3.453  10.454 -0.1716 -0.2279 -1.5195
 5737TIP3   OH238701   6.256   0.297   2.936  0.0259  0.4804 -0.2656
 5737TIP3    H138702   6.211   0.376   2.906  0.8430  0.5752 -1.2628
 5737TIP3    H238703   6.325   0.283   2.871  1.3000  0.2182  1.1353
 5738TIP3   OH238704   0.400   4.494   3.232  0.4182  0.6488 -0.3298
 5738TIP3    H138705   0.360   4.431   3.172  1.2263  0.1298 -0.3311
 5738TIP3    H238706   0.494   4.485   3.218  0.7313 -0.8557  2.3332
 5739TIP3   OH238707   1.113   4.699  16.477  0.1500  0.2919  0.1253
 5739TIP3    H138708   1.018   4.692  16.470  0.1339 -0.1569  0.7530
 5739TIP3    H238709   1.128   4.761  16.548  0.3259  0.1116  0.2467
 5740TIP3   OH238710   0.298   6.455   3.108  0.2840 -0.4094  0.0995
 5740TIP3    H138711   0.203   6.452   3.125  0.2738  0.1375  0.1573
 5740TIP3    H238712   0.322   6.365   3.087 -0.1491 -0.6602  0.6627
 5741TIP3   OH238713   6.125   0.859  15.622 -0.4095 -0.9803 -0.4401
 5741TIP3    H138714   6.096   0.949  15.609 -1.1194 -1.3681 -1.6383
 5741TIP3    H238715   6.046   0.812  15.649  0.1328 -1.0811  0.9934
 5742TIP3   OH238716   5.072   3.233   5.140  0.0695  0.1818  0.2821
 5742TIP3    H138717   5.092   3.141   5.157 -1.3249 -0.2286 -0.2387
 5742TIP3    H238718   5.011   3.231   5.066 -1.1102  1.4430  1.1946
 5743TIP3   OH238719   0.467   6.496   5.418 -0.1239 -0.0862  0.7326
 5743TIP3    H138720   0.475   6.400   5.418  0.8224 -0.0115  0.6284
 5743TIP3    H238721   0.492   6.522   5.506  0.3891  0.1185  0.5308
 5744TIP3   OH238722   3.011   0.443   3.564 -0.4533  0.1837 -0.0520
 5744TIP3    H138723   2.984   0.534   3.578  2.4707  1.2242 -0.6317
 5744TIP3    H238724   3.056   0.419   3.645  1.3894  0.3236 -0.9942
 5745TIP3   OH238725   3.806   4.235  11.516 -0.3594  0.0226 -0.0006
 5745TIP3    H138726   3.713   4.216  11.500  0.1100 -0.0976 -2.8586
 5745TIP3    H238727   3.809   4.331  11.520 -0.6509  0.0213  0.2668
 5746TIP3   OH238728   2.970   1.552  13.643 -0.1126 -0.2856 -0.3353
 5746TIP3    H138729   2.978   1.462  13.675  2.2989 -0.5168 -1.4938
 5746TIP3    H238730   2.968   1.544  13.548  1.7652  0.9417 -0.5217
 5747TIP3   OH238731   2.775   4.524  10.918  0.5068  0.7245 -0.0046
 5747TIP3    H138732   2.684   4.499  10.936  0.8830 -0.6754  0.0604
 5747TIP3    H238733   2.770   4.578  10.840 -0.5488  2.0716  0.9629
 5748TIP3   OH238734   1.820   3.153  15.770  0.3674 -0.4329  0.1494
 5748TIP3    H138735   1.751   3.217  15.784  0.1574 -0.9663  1.6210
 5748TIP3    H238736   1.901   3.204  15.767  0.2181 -0.1112  1.4870
 5749TIP3   OH238737   6.356   1.713   0.926  0.2584 -0.3166 -0.0179
 5749TIP3    H138738   6.309   1.789   0.961  0.1554 -1.3777  2.2535
 5749TIP3    H238739   6.300   1.680   0.856 -0.6113  0.5851  0.2472
 5750TIP3   OH238740   6.090   5.915   5.432  0.2243  0.0854 -0.0209
 5750TIP3    H138741   6.142   5.864   5.369  1.3562  0.4162  0.6340
 5750TIP3    H238742   6.154   5.948   5.495 -0.8411  0.1154  1.0702
 5751TIP3   OH238743   3.615   2.192   0.764 -0.4760  0.0075 -0.4316
 5751TIP3    H138744   3.579   2.273   0.800  1.0947  0.1218  0.8901
 5751TIP3    H238745   3.540   2.149   0.723 -1.6496  1.3442  0.2838
 5752TIP3   OH238746   5.350   3.241   0.957  0.2805  0.1782 -0.9352
 5752TIP3    H138747   5.291   3.175   0.920  0.4237  0.9221 -2.5580
 5752TIP3    H238748   5.310   3.325   0.933 -1.2630  0.7702  3.2845
 5753TIP3   OH238749   4.599   1.798  15.181  0.2406  0.4529 -0.2822
 5753TIP3    H138750   4.623   1.706  15.169 -2.9703 -0.2481 -1.8267
 5753TIP3    H238751   4.637   1.822  15.266  0.2770 -2.6128  0.6268
 5754TIP3   OH238752   0.287   3.233   2.917  0.2522  0.1856 -0.2766
 5754TIP3    H138753   0.267   3.175   2.843 -1.4497 -1.3643  1.3269
 5754TIP3    H238754   0.224   3.305   2.909 -1.1181 -0.8856  0.6095
 5755TIP3   OH238755   0.829   1.299   0.795 -0.0476 -0.1496  0.4586
 5755TIP3    H138756   0.765   1.323   0.727  0.9187 -1.8852 -1.1202
 5755TIP3    H238757   0.914   1.312   0.753  0.7181  2.6231  2.7023
 5756TIP3   OH238758   5.621   1.970   5.318 -0.1111 -0.4141 -0.3980
 5756TIP3    H138759   5.649   2.009   5.235  1.6832 -0.6515  0.0628
 5756TIP3    H238760   5.697   1.980   5.376 -0.3587 -2.6933  0.3744
 5757TIP3   OH238761   3.511   3.069   3.746 -0.5538 -0.5763  0.3043
 5757TIP3    H138762   3.434   3.038   3.794 -1.6841 -0.1509 -1.1758
 5757TIP3    H238763   3.560   3.121   3.810 -2.6791  1.0302  0.6840
 5758TIP3   OH238764   2.572   3.070   4.052  0.0382  0.4318 -0.5624
 5758TIP3    H138765   2.648   3.064   4.110  0.4353  0.7094 -1.0575
 5758TIP3    H238766   2.589   3.009   3.981 -0.3825  0.2041 -0.4713
 5759TIP3   OH238767   3.127   2.007  14.412  0.2804  0.2473  0.0119
 5759TIP3    H138768   3.200   2.030  14.469  2.6356 -1.1287 -2.3655
 5759TIP3    H238769   3.128   2.073  14.343  0.1031 -0.5485 -0.7573
 5760TIP3   OH238770   1.538   1.584   0.475 -0.3371  0.1948 -0.5727
 5760TIP3    H138771   1.511   1.578   0.383  2.5638 -2.4914 -1.3467
 5760TIP3    H238772   1.626   1.547   0.477  0.7253  2.5855  2.9054
 5761TIP3   OH238773   3.279   6.173  16.369 -0.2209 -0.3941 -0.5820
 5761TIP3    H138774   3.223   6.231  16.421  1.1720  0.1274  0.3670
 5761TIP3    H238775   3.256   6.085  16.399 -0.7777 -0.2132 -0.4601
 5762TIP3   OH238776   5.121   3.169   4.088  0.3193 -0.7907 -0.1243
 5762TIP3    H138777   5.141   3.217   4.168  0.3775  0.8231 -1.0940
 5762TIP3    H238778   5.036   3.127   4.106  0.1438 -0.1217  0.6362
 5763TIP3   OH238779   2.017   5.720   4.528  0.3401  0.1321  0.1965
 5763TIP3    H138780   2.106   5.694   4.553 -0.0138 -1.5014 -0.2104
 5763TIP3    H238781   1.995   5.663   4.455 -1.6378 -0.5465  1.3048
 5764TIP3   OH238782   1.342   2.309   0.220  0.3284  0.2612 -0.5081
 5764TIP3    H138783   1.357   2.240   0.285  2.4542 -1.2860 -2.5576
 5764TIP3    H238784   1.414   2.370   0.233 -0.8830  1.4937  0.5007
 5765TIP3   OH238785   2.975   4.724  11.632 -0.8540 -0.4728  0.8317
 5765TIP3    H138786   3.036   4.798  11.636  0.2313 -1.2510 -0.9233
 5765TIP3    H238787   3.030   4.647  11.646 -1.3218 -1.2247 -1.3105
 5766TIP3   OH238788   0.031   2.706  13.669 -0.0253 -0.3434 -0.5554
 5766TIP3    H138789   0.111   2.670  13.709  0.2761 -1.8161 -2.3958
 5766TIP3    H238790   0.012   2.646  13.597 -0.8747  1.9072 -2.2700
 5767TIP3   OH238791   2.939   4.865   4.465  0.1706  0.2429 -0.2854
 5767TIP3    H138792   2.980   4.809   4.531 -0.7089  1.0189  0.9340
 5767TIP3    H238793   2.846   4.844   4.471 -0.4041  2.9824  1.3407
 5768TIP3   OH238794   6.151   4.600   0.563 -0.3278  0.5895  0.5815
 5768TIP3    H138795   6.245   4.611   0.577 -0.2897  1.9095 -0.6361
 5768TIP3    H238796   6.142   4.588   0.469 -1.0370 -3.3959  1.0863
 5769TIP3   OH238797   6.124   1.235  14.680  0.1287 -0.7991 -0.0157
 5769TIP3    H138798   6.068   1.300  14.638  3.2428  2.1255  0.2110
 5769TIP3    H238799   6.122   1.257  14.773 -0.4763 -2.3947  0.3766
 5770TIP3   OH238800   3.782   1.109   1.485  0.6995 -0.1399 -0.2564
 5770TIP3    H138801   3.834   1.068   1.417  0.2720 -0.0644 -0.6317
 5770TIP3    H238802   3.732   1.038   1.524  3.2112 -0.7102  2.0578
 5771TIP3   OH238803   4.767   6.159   2.838 -0.1044  0.4127  0.2157
 5771TIP3    H138804   4.722   6.219   2.779 -0.3387  0.1029  0.0734
 5771TIP3    H238805   4.854   6.148   2.800  0.0827  0.9843  0.4711
 5772TIP3   OH238806   2.964   1.309  16.386  0.7158  0.4468  0.1389
 5772TIP3    H138807   2.902   1.346  16.448  0.6952 -2.5977  2.0196
 5772TIP3    H238808   3.050   1.322  16.426  0.8278 -0.2363  0.1266
 5773TIP3   OH238809   3.795   2.148   1.367  0.0626 -0.6370  0.5804
 5773TIP3    H138810   3.834   2.184   1.447  2.1133 -0.1818 -0.5704
 5773TIP3    H238811   3.703   2.136   1.388  0.6734 -1.0890  3.2105
 5774TIP3   OH238812   0.852   6.001   0.965  0.0178  0.0547 -0.4440
 5774TIP3    H138813   0.869   6.016   0.872 -0.0644  1.4191 -0.2464
 5774TIP3    H238814   0.808   5.915   0.967  0.0384 -0.0010 -1.6561
 5775TIP3   OH238815   0.754   3.411  14.521 -0.7803 -0.4660  0.2033
 5775TIP3    H138816   0.819   3.409  14.592 -0.3898 -0.0935 -0.1462
 5775TIP3    H238817   0.783   3.481  14.463 -1.1037 -0.7676 -0.3276
 5776TIP3   OH238818   5.415   4.482  12.501 -0.3319 -0.5550  0.2383
 5776TIP3    H138819   5.478   4.410  12.511  1.3876  0.8562 -0.0222
 5776TIP3    H238820   5.470   4.558  12.480 -2.2764  0.3874 -1.6225
 5777TIP3   OH238821   5.300   6.327  15.767 -0.2399 -0.0355  0.2302
 5777TIP3    H138822   5.227   6.326  15.705 -0.5593 -1.6734  0.5969
 5777TIP3    H238823   5.371   6.281  15.721 -0.0991 -0.2268  0.6353
 5778TIP3   OH238824   3.584   2.320  15.934 -0.4232  0.3799 -0.4593
 5778TIP3    H138825   3.660   2.278  15.893 -1.6603 -1.0461 -1.3482
 5778TIP3    H238826   3.575   2.275  16.018  1.3889  2.4773  0.8809
 5779TIP3   OH238827   3.734   3.706  15.786  0.0178 -0.0469  0.0192
 5779TIP3    H138828   3.657   3.654  15.765 -0.1715  0.4872 -0.6191
 5779TIP3    H238829   3.753   3.756  15.706 -0.0815  1.2114  0.7549
 5780TIP3   OH238830   3.266   0.344  11.812 -0.2087  0.1487  0.1812
 5780TIP3    H138831   3.228   0.383  11.891 -0.9240  1.3679 -0.7621
 5780TIP3    H238832   3.241   0.251  11.817 -1.5132  0.5122  0.6352
 5781TIP3   OH238833   5.737   0.215  12.232  0.5904  0.1063  0.0361
 5781TIP3    H138834   5.694   0.242  12.313  0.0623  0.1270 -0.2448
 5781TIP3    H238835   5.685   0.142  12.200  0.3699  0.5561 -0.6519
 5782TIP3   OH238836   2.170   2.238  14.797  1.3604 -0.2959 -0.2509
 5782TIP3    H138837   2.118   2.295  14.853  3.6564 -1.5133  3.2914
 5782TIP3    H238838   2.227   2.299  14.749 -0.9293  0.7854 -1.7165
 5783TIP3   OH238839   3.240   6.637   6.774  0.1450 -0.2495 -0.3591
 5783TIP3    H138840   3.225   6.560   6.719  2.6170 -0.7029 -0.4282
 5783TIP3    H238841   3.242   6.710   6.712 -0.2827 -0.3645 -0.5085
 5784TIP3   OH238842   1.560   3.004   4.038 -0.5058  1.0055 -0.1495
 5784TIP3    H138843   1.516   2.921   4.019 -0.2194  0.8651 -0.2080
 5784TIP3    H238844   1.491   3.060   4.073 -0.3929  0.2241  1.3817
 5785TIP3   OH238845   0.380   6.167   3.796  0.4097  0.4394  0.1054
 5785TIP3    H138846   0.468   6.202   3.784  0.6268  0.3510  1.4380
 5785TIP3    H238847   0.359   6.185   3.887  0.1840 -2.1101  0.5727
 5786TIP3   OH238848   0.692   6.255   2.875 -0.4902  0.1670 -0.1774
 5786TIP3    H138849   0.788   6.251   2.874 -0.5733 -3.0207 -1.1169
 5786TIP3    H238850   0.670   6.322   2.811  1.0989  1.4887  0.6046
 5787TIP3   OH238851   3.684   0.951  15.503  0.5774 -0.4753 -0.3677
 5787TIP3    H138852   3.594   0.945  15.471  0.5532 -1.5373 -0.1128
 5787TIP3    H238853   3.701   1.045  15.508  0.0835 -0.2637 -2.1103
 5788TIP3   OH238854   6.773   4.461  15.398 -0.0551 -0.4474 -0.1632
 5788TIP3    H138855   6.849   4.516  15.415 -0.8135  1.2444 -2.1054
 5788TIP3    H238856   6.807   4.372  15.402  1.3419  0.1221  2.2957
 5789TIP3   OH238857   6.544   1.914  17.195 -0.3083 -0.1812 -0.0694
 5789TIP3    H138858   6.520   1.889  17.285  1.6975 -0.2768  0.4738
 5789TIP3    H238859   6.464   1.902  17.144 -1.1477 -1.3149  1.4811
 5790TIP3   OH238860   1.402   2.754   4.128  0.0987  0.3360  0.1917
 5790TIP3    H138861   1.476   2.709   4.087 -0.8222 -0.4836 -0.5956
 5790TIP3    H238862   1.404   2.724   4.219  0.9226  0.5700  0.2592
 5791TIP3   OH238863   4.265   0.299  12.765 -0.2734 -0.1214 -0.1857
 5791TIP3    H138864   4.245   0.240  12.692 -1.2077  0.6714 -0.5806
 5791TIP3    H238865   4.208   0.270  12.836 -0.6345  0.2236 -0.3358
 5792TIP3   OH238866   6.600   0.417   3.315 -0.9300  0.4481 -0.8360
 5792TIP3    H138867   6.618   0.331   3.353 -1.2661  1.3904  1.5712
 5792TIP3    H238868   6.577   0.399   3.224 -2.1840 -2.1129 -0.0458
 5793TIP3   OH238869   1.288   2.531  15.108 -0.2463 -0.3167 -0.0014
 5793TIP3    H138870   1.278   2.615  15.154  0.8758 -0.3392  0.3033
 5793TIP3    H238871   1.344   2.479  15.166 -1.1593 -1.3902 -0.0506
 5794TIP3   OH238872   0.029   5.105   4.136 -0.3239  0.6425  0.3124
 5794TIP3    H138873  -0.020   5.175   4.093  1.3803  1.0426 -1.0022
 5794TIP3    H238874   0.061   5.145   4.217 -0.8319  0.8360  0.4234
 5795TIP3   OH238875   3.294   0.305   3.510 -0.4562 -0.1258  0.1809
 5795TIP3    H138876   3.322   0.344   3.427 -1.2433 -0.7139 -0.3698
 5795TIP3    H238877   3.199   0.317   3.512 -0.6008 -1.2045  0.4078
 5796TIP3   OH238878   4.850   1.481   2.013  0.3673  0.6774  0.3115
 5796TIP3    H138879   4.765   1.437   2.014  0.4833  0.4615  1.0171
 5796TIP3    H238880   4.860   1.513   1.923 -0.4656  0.7191  0.2343
 5797TIP3   OH238881   5.854   3.294   4.511  0.1092  0.2257 -0.1575
 5797TIP3    H138882   5.879   3.258   4.596  0.1364 -0.6199 -0.5202
 5797TIP3    H238883   5.766   3.261   4.495 -0.5120  1.6395  0.2354
 5798TIP3   OH238884   3.527   2.034  15.676  0.6359  0.5063 -0.0152
 5798TIP3    H138885   3.623   2.032  15.671  0.6388 -0.0424  0.2050
 5798TIP3    H238886   3.501   2.095  15.607  1.1106  0.1270 -0.5374
 5799TIP3   OH238887   6.240   4.899   4.697 -0.0149 -0.4253  0.4211
 5799TIP3    H138888   6.301   4.963   4.661  0.9262 -0.5811  1.7264
 5799TIP3    H238889   6.165   4.951   4.727  0.0536 -0.1022  0.0364
 5800TIP3   OH238890   0.461   0.566  14.187 -0.2306 -0.4833 -0.3022
 5800TIP3    H138891   0.502   0.560  14.274 -0.7605  1.5158  0.1046
 5800TIP3    H238892   0.527   0.607  14.132 -1.0009  1.1318 -0.0647
 5801TIP3   OH238893   2.495   2.509   2.122 -0.5847 -0.0224 -0.2366
 5801TIP3    H138894   2.564   2.487   2.060 -0.6654 -1.6723  0.2291
 5801TIP3    H238895   2.532   2.578   2.176 -0.1054  0.6367 -1.3835
 5802TIP3   OH238896   1.853   2.685   2.628 -0.3729  0.4000  0.0075
 5802TIP3    H138897   1.783   2.620   2.626  0.9881 -1.0698 -1.7206
 5802TIP3    H238898   1.830   2.747   2.559  0.1372 -0.2316 -0.7427
 5803TIP3   OH238899   4.465   2.989  11.131  0.1724  0.4591  0.1376
 5803TIP3    H138900   4.501   3.023  11.213  1.2223 -1.0744  0.3560
 5803TIP3    H238901   4.372   2.978  11.148  0.2975  0.6521  0.9669
 5804TIP3   OH238902   3.673   4.410   2.406  0.0651 -0.1850  0.1086
 5804TIP3    H138903   3.625   4.376   2.482  0.9343  1.4776  1.4343
 5804TIP3    H238904   3.761   4.372   2.415  0.5026  0.9167  0.5895
 5805TIP3   OH238905   3.244   1.767  15.574  0.1170  0.0121 -0.6611
 5805TIP3    H138906   3.285   1.731  15.652 -2.9274  0.3712  1.1730
 5805TIP3    H238907   3.266   1.861  15.577 -0.3932  0.1094  0.0130
 5806TIP3   OH238908   2.992   1.357   0.294 -0.0958  0.3329  0.4447
 5806TIP3    H138909   3.025   1.350   0.384  1.3535 -1.3375 -0.1860
 5806TIP3    H238910   2.897   1.361   0.304 -0.1182 -2.6037  1.9589
 5807TIP3   OH238911   4.299   6.770   1.266 -0.0954 -0.4484 -0.3620
 5807TIP3    H138912   4.300   6.818   1.349 -1.1984 -0.8948 -0.0797
 5807TIP3    H238913   4.366   6.703   1.277 -1.3324 -1.5273  0.7988
 5808TIP3   OH238914   0.027   6.159   1.013  0.1160 -0.3559 -0.5230
 5808TIP3    H138915   0.053   6.235   0.961  1.1543 -0.4635 -0.1701
 5808TIP3    H238916  -0.056   6.131   0.975 -0.6909  1.4417 -0.1425
 5809TIP3   OH238917   0.931   4.220  13.540 -0.2507 -0.2289 -0.4217
 5809TIP3    H138918   0.897   4.157  13.477  0.3673 -0.3279 -0.6636
 5809TIP3    H238919   1.025   4.222  13.524 -0.0160 -0.6314  0.8356
 5810TIP3   OH238920   0.838   3.120  11.787  0.4676 -0.6521  0.3423
 5810TIP3    H138921   0.804   3.031  11.774  1.0509 -0.7897 -0.2851
 5810TIP3    H238922   0.848   3.128  11.881 -1.9403 -0.3616  0.5960
 5811TIP3   OH238923   0.432   3.348  14.076  0.2181 -0.9710 -0.0640
 5811TIP3    H138924   0.453   3.356  14.169 -1.8889  0.2518  0.3487
 5811TIP3    H238925   0.372   3.274  14.072 -0.7449 -0.1886 -0.2535
 5812TIP3   OH238926   4.626   4.901  12.248  0.2925  0.5357  0.0168
 5812TIP3    H138927   4.682   4.823  12.246 -0.4093  0.0142  0.5401
 5812TIP3    H238928   4.657   4.955  12.175  1.8212  0.4939  0.6315
 5813TIP3   OH238929   4.833   6.423  16.443  0.7791  0.2111  0.4223
 5813TIP3    H138930   4.913   6.419  16.495  2.2983 -1.7901 -2.0014
 5813TIP3    H238931   4.811   6.331  16.425 -1.3893  0.7741  0.0249
 5814TIP3   OH238932   1.084   4.560   3.672 -0.0510 -0.1689 -0.4877
 5814TIP3    H138933   1.153   4.502   3.703 -0.2095  0.3376  0.8580
 5814TIP3    H238934   1.116   4.648   3.693 -1.2853  0.0465  0.5546
 5815TIP3   OH238935   0.615   1.103  13.935 -0.0845 -0.4481  0.2715
 5815TIP3    H138936   0.675   1.170  13.901 -0.2785  0.4416  1.6599
 5815TIP3    H238937   0.632   1.101  14.029 -1.6811 -0.7286  0.5626
 5816TIP3   OH238938   4.920   4.282  14.275 -0.1441 -0.0159  0.6159
 5816TIP3    H138939   4.858   4.347  14.242 -0.5480 -1.4874 -1.5930
 5816TIP3    H238940   4.882   4.254  14.359 -1.2451  0.7667  0.3871
 5817TIP3   OH238941   1.214   1.243   4.003  0.1171  0.0315 -0.4460
 5817TIP3    H138942   1.303   1.210   4.012  0.7458  1.3129 -1.6357
 5817TIP3    H238943   1.198   1.293   4.084  1.0010  0.9341 -0.8176
 5818TIP3   OH238944   5.007   1.668  14.546 -0.2335  0.0635 -0.2681
 5818TIP3    H138945   5.014   1.576  14.521 -1.0019 -0.2358  0.5927
 5818TIP3    H238946   4.915   1.679  14.571 -0.3966  1.3238 -1.3777
 5819TIP3   OH238947   3.074   2.690  13.958 -0.2575  0.0195  0.5420
 5819TIP3    H138948   3.114   2.649  14.034 -0.0092  0.1110  0.4616
 5819TIP3    H238949   3.133   2.669  13.885  1.0477  2.3458  0.8769
 5820TIP3   OH238950   0.888   4.860  16.202  0.1859 -0.0501 -0.3427
 5820TIP3    H138951   0.854   4.905  16.279 -1.2631  0.7211 -1.4231
 5820TIP3    H238952   0.825   4.789  16.186 -0.7659  1.1716 -2.1439
 5821TIP3   OH238953   0.151   6.115   3.161 -0.0033  0.0804 -0.1829
 5821TIP3    H138954   0.245   6.131   3.152  0.3510 -1.6463  0.2158
 5821TIP3    H238955   0.116   6.131   3.073  0.5169  1.6309 -0.1097
 5822TIP3   OH238956   4.573   6.730   3.776  0.2017  0.1796 -0.4713
 5822TIP3    H138957   4.485   6.707   3.744 -0.1232  1.7276 -0.7461
 5822TIP3    H238958   4.628   6.724   3.699  0.5944 -1.9761 -0.0573
 5823TIP3   OH238959   0.132   4.398  13.904  0.2763 -0.8478 -0.5691
 5823TIP3    H138960   0.227   4.400  13.899  0.2227  0.1792 -1.1469
 5823TIP3    H238961   0.110   4.305  13.894  1.1795 -1.0304 -0.9097
 5824TIP3   OH238962   1.713   2.118  13.168 -0.4712  0.5793 -0.3382
 5824TIP3    H138963   1.643   2.075  13.118 -0.0177  0.3126 -0.7415
 5824TIP3    H238964   1.776   2.146  13.101  2.2431 -3.5199  0.3612
 5825TIP3   OH238965   3.216   0.306  14.686  0.0287  0.1216  0.1645
 5825TIP3    H138966   3.153   0.322  14.756  0.5681 -0.9030  0.8958
 5825TIP3    H238967   3.184   0.226  14.644  0.3670  0.0782 -0.0063
 5826TIP3   OH238968   1.130   3.224   3.278  0.2092  0.4456  0.4652
 5826TIP3    H138969   1.196   3.216   3.209  0.1132  1.8850  0.1818
 5826TIP3    H238970   1.051   3.252   3.232 -0.3003 -0.1840  0.9520
 5827TIP3   OH238971   6.644   1.106   4.507  0.3114 -0.2898 -0.8330
 5827TIP3    H138972   6.583   1.177   4.526 -0.4276 -1.1015 -0.1271
 5827TIP3    H238973   6.589   1.035   4.474  0.9129 -0.9022 -0.5423
 5828TIP3   OH238974   0.559   2.442   0.841 -0.5306 -0.0277  0.1929
 5828TIP3    H138975   0.591   2.365   0.887  0.3629  0.4057  0.2965
 5828TIP3    H238976   0.470   2.454   0.874 -0.5403 -0.7806  0.4581
 5829TIP3   OH238977   4.042   3.282   2.350 -0.0223 -0.3100 -0.5219
 5829TIP3    H138978   4.122   3.239   2.319  0.1524 -0.0217 -0.4729
 5829TIP3    H238979   4.000   3.315   2.271  0.5436  0.6316 -0.4312
 5830TIP3   OH238980   2.241   5.637  11.361 -0.8345  0.0264 -0.2916
 5830TIP3    H138981   2.164   5.678  11.323 -0.3054  2.2045  0.9034
 5830TIP3    H238982   2.315   5.688  11.328 -0.2176  0.6079  1.8882
 5831TIP3   OH238983   4.533   5.224  11.649 -0.7454 -0.0674 -0.4129
 5831TIP3    H138984   4.466   5.212  11.717  1.5112 -0.0518  1.8786
 5831TIP3    H238985   4.587   5.296  11.682  0.3701 -0.0500 -2.2701
 5832TIP3   OH238986   4.434   2.369   2.652  0.6201 -0.5908 -0.0863
 5832TIP3    H138987   4.354   2.346   2.604  0.9986 -1.0273 -0.4983
 5832TIP3    H238988   4.413   2.349   2.744  0.0313 -0.1003 -0.1088
 5833TIP3   OH238989   3.947   3.683  10.415 -0.5580  0.4664 -0.3955
 5833TIP3    H138990   3.984   3.657  10.330 -2.0771 -0.5384 -0.7724
 5833TIP3    H238991   3.856   3.704  10.396  0.0411  3.9995  0.3204
 5834TIP3   OH238992   4.024   5.135  11.053  0.5768 -0.0648  0.8165
 5834TIP3    H138993   4.049   5.107  10.965  0.9336 -0.3700  1.0155
 5834TIP3    H238994   4.061   5.223  11.061 -1.4329  0.9003 -0.1940
 5835TIP3   OH238995   1.992   1.890   0.991 -0.1965  0.0316  0.3743
 5835TIP3    H138996   2.028   1.929   0.911 -2.2827 -0.4905 -0.8367
 5835TIP3    H238997   1.993   1.961   1.055  0.0928  0.8655 -0.5494
 5836TIP3   OH238998   4.629   4.522   2.804  0.2234  0.2859  0.2841
 5836TIP3    H138999   4.684   4.469   2.862 -0.9674 -0.5010  0.7004
 5836TIP3    H239000   4.686   4.540   2.729  0.6696 -1.5769  0.1349
 5837TIP3   OH239001   0.117   1.683  15.205 -0.1314  0.1975  0.1556
 5837TIP3    H139002   0.179   1.738  15.159  0.2417 -1.3517 -1.2323
 5837TIP3    H239003   0.171   1.618  15.250 -0.6981 -0.7174 -0.4719
 5838TIP3   OH239004   1.898   1.945  16.977  0.0648  0.1178  0.7820
 5838TIP3    H139005   1.946   1.938  16.895  0.8064 -0.9733  1.2906
 5838TIP3    H239006   1.883   2.039  16.988  0.9029  0.3630 -0.0601
 5839TIP3   OH239007   2.043   5.447   0.164  0.2870 -0.2035  0.6830
 5839TIP3    H139008   2.031   5.372   0.223  1.0692 -0.7707  0.1461
 5839TIP3    H239009   2.063   5.520   0.221 -0.3383 -0.4414  1.2115
 5840TIP3   OH239010   6.789   5.554   1.998  0.2396 -0.7451 -0.0823
 5840TIP3    H139011   6.850   5.488   1.964  0.5575 -0.1056 -0.7493
 5840TIP3    H239012   6.717   5.554   1.935  0.2427 -0.4482 -0.0832
 5841TIP3   OH239013   3.804   3.377   4.511 -0.5325  0.3274 -0.1610
 5841TIP3    H139014   3.757   3.294   4.501  1.8422 -1.1027  0.0062
 5841TIP3    H239015   3.821   3.384   4.605  0.1840  0.4581 -0.2963
 5842TIP3   OH239016   4.119   4.157   0.960 -0.0633  0.0095  0.3767
 5842TIP3    H139017   4.116   4.251   0.941  1.0595  0.0204  0.2025
 5842TIP3    H239018   4.211   4.134   0.948 -0.4581 -1.2585 -0.2803
 5843TIP3   OH239019   4.473   4.344   1.435  0.1337  0.3498 -0.5689
 5843TIP3    H139020   4.549   4.372   1.486  0.6561  0.9459 -1.6718
 5843TIP3    H239021   4.477   4.248   1.436 -0.1228  0.3374  0.8894
 5844TIP3   OH239022   2.490   1.296  14.716 -0.6996 -0.7344  0.2976
 5844TIP3    H139023   2.400   1.296  14.682 -1.3781 -3.3813  1.8793
 5844TIP3    H239024   2.495   1.215  14.767  1.6839  0.8333  2.6672
 5845TIP3   OH239025   2.578   5.168   3.192  0.6057 -0.7335  0.1355
 5845TIP3    H139026   2.660   5.170   3.141  0.0717 -2.4375 -0.8325
 5845TIP3    H239027   2.539   5.083   3.170 -0.3652 -0.8516  2.2679
 5846TIP3   OH239028   6.388   6.322  16.094 -0.4573 -0.1102 -0.0184
 5846TIP3    H139029   6.463   6.281  16.051 -1.9417 -2.0681 -0.8146
 5846TIP3    H239030   6.422   6.405  16.128  1.3558  0.3177 -2.7679
 5847TIP3   OH239031   2.815   5.060  10.966 -0.6625  0.5170 -0.3255
 5847TIP3    H139032   2.814   5.028  10.876 -1.4338 -0.9648  0.1888
 5847TIP3    H239033   2.735   5.113  10.973 -0.9396  0.1078 -0.3402
 5848TIP3   OH239034   4.138   3.064  11.000 -0.0391  0.7164  0.4606
 5848TIP3    H139035   4.132   3.134  11.065  0.6305  1.2875 -0.0878
 5848TIP3    H239036   4.100   3.101  10.921 -1.1408 -0.0855  0.5952
 5849TIP3   OH239037   0.267   6.681   2.755  0.3689  0.2051  0.1922
 5849TIP3    H139038   0.242   6.713   2.668 -0.3196  1.6589  0.9036
 5849TIP3    H239039   0.232   6.593   2.759 -1.0717  0.7394 -0.3804
 5850TIP3   OH239040   0.618   1.227   5.238  0.5698 -0.1392  0.2305
 5850TIP3    H139041   0.595   1.276   5.317  1.6090  0.9983 -0.1604
 5850TIP3    H239042   0.713   1.215   5.244  0.9281  1.4648 -1.6652
 5851TIP3   OH239043   4.815   6.560   5.515 -0.3723 -0.2546  0.3425
 5851TIP3    H139044   4.734   6.538   5.468  0.1826 -0.7601 -0.3811
 5851TIP3    H239045   4.841   6.478   5.557 -0.0270 -0.1867  0.2618
 5852TIP3   OH239046   3.233   2.828  17.138  0.5944 -0.3188  0.3697
 5852TIP3    H139047   3.294   2.902  17.143 -0.4381  0.8118 -2.7342
 5852TIP3    H239048   3.274   2.766  17.078 -0.8354  0.0014 -0.9528
 5853TIP3   OH239049   1.609   0.253   6.258  0.0291 -0.2570  0.4475
 5853TIP3    H139050   1.600   0.274   6.351  1.7597 -0.8645  0.7722
 5853TIP3    H239051   1.547   0.181   6.243  0.9852 -1.3048  1.5271
 5854TIP3   OH239052   6.513   4.075   5.522 -0.5260  0.8598  0.4822
 5854TIP3    H139053   6.438   4.020   5.503  1.2124 -1.4984  0.2341
 5854TIP3    H239054   6.494   4.158   5.479 -1.8839 -0.5109 -1.6219
 5855TIP3   OH239055   4.923   4.066  14.788 -0.2315 -0.2449  0.4740
 5855TIP3    H139056   4.923   4.052  14.883 -1.8731  1.0160  0.6661
 5855TIP3    H239057   4.958   4.154  14.776  0.1213 -0.4558 -0.1274
 5856TIP3   OH239058   0.060   4.643   0.337  0.0960  0.0497 -0.4333
 5856TIP3    H139059   0.086   4.580   0.405  0.6119 -1.1612 -1.7428
 5856TIP3    H239060  -0.002   4.701   0.382 -1.2372 -2.0357  0.5333
 5857TIP3   OH239061   6.022   4.925  11.840  0.6552  0.1097 -0.6747
 5857TIP3    H139062   5.929   4.944  11.825  1.0098 -0.2021 -3.5392
 5857TIP3    H239063   6.028   4.829  11.832  1.0350 -0.0013  0.7825
 5858TIP3   OH239064   6.585   5.753   4.060 -0.7186 -0.0774  0.2052
 5858TIP3    H139065   6.489   5.757   4.064 -0.7163  0.5672 -0.3970
 5858TIP3    H239066   6.614   5.816   4.125 -0.7027  1.3112 -1.1348
 5859TIP3   OH239067   3.315   3.321   2.958  0.4037  0.2331 -0.2760
 5859TIP3    H139068   3.388   3.357   3.007  0.5920 -0.7987  0.2356
 5859TIP3    H239069   3.323   3.226   2.970  0.0342  0.0097 -1.7208
 5860TIP3   OH239070   3.798   1.139   1.101 -0.0826 -0.3863 -0.0982
 5860TIP3    H139071   3.859   1.069   1.126  0.6912  0.1213 -0.5408
 5860TIP3    H239072   3.855   1.213   1.081 -0.8184 -0.1342 -1.2541
 5861TIP3   OH239073   2.896   2.914   3.645 -0.2148 -0.6215  0.3661
 5861TIP3    H139074   2.919   2.960   3.726 -0.4734  0.3759 -0.1245
 5861TIP3    H239075   2.836   2.845   3.672 -0.3556 -0.2428  1.0118
 5862TIP3   OH239076   5.668   5.415   0.745 -0.2312 -0.3300 -0.6214
 5862TIP3    H139077   5.626   5.353   0.685  1.3961  0.0979 -2.2500
 5862TIP3    H239078   5.616   5.495   0.737 -1.0688 -0.8187 -0.1178
 5863TIP3   OH239079   2.872   3.611  11.002  0.3059 -0.1021 -0.2702
 5863TIP3    H139080   2.781   3.590  10.981 -0.1533  0.4527  1.1234
 5863TIP3    H239081   2.918   3.528  10.991 -0.8252 -0.9901  1.5025
 5864TIP3   OH239082   4.985   0.121   0.070  0.2022 -0.0695  0.2357
 5864TIP3    H139083   4.977   0.104  -0.023 -0.6247  1.2844  0.0506
 5864TIP3    H239084   4.895   0.133   0.101  0.3395 -2.1544  1.5435
 5865TIP3   OH239085   5.623   5.952   6.331  0.3566 -0.0857  0.5257
 5865TIP3    H139086   5.638   6.047   6.331  0.9212 -0.1778  0.3993
 5865TIP3    H239087   5.665   5.921   6.251 -0.0815 -0.4065  0.4117
 5866TIP3   OH239088   4.510   4.320   1.125  0.3631  0.5100 -0.1646
 5866TIP3    H139089   4.529   4.339   1.034  0.7948 -0.6445 -0.3117
 5866TIP3    H239090   4.539   4.398   1.172 -0.0615  1.1974 -1.0306
 5867TIP3   OH239091   0.712   2.523  13.635 -0.1058 -0.4015 -0.1075
 5867TIP3    H139092   0.700   2.599  13.578  1.5858 -0.1191 -0.0987
 5867TIP3    H239093   0.642   2.463  13.610 -1.0879  0.9003 -0.5333
 5868TIP3   OH239094   5.063   2.541  11.732  0.2291 -0.1742 -0.2778
 5868TIP3    H139095   5.124   2.612  11.712 -0.3548  0.0553 -1.2544
 5868TIP3    H239096   4.982   2.585  11.757  0.1091 -0.4971 -0.0939
 5869TIP3   OH239097   1.167   3.133   0.510 -0.1711 -0.1874  0.4660
 5869TIP3    H139098   1.256   3.167   0.513  0.2147 -1.2382  1.4842
 5869TIP3    H239099   1.148   3.121   0.417  0.7348  0.0867  0.2472
 5870TIP3   OH239100   4.354   0.838  12.294 -0.1494  0.2490  0.8158
 5870TIP3    H139101   4.385   0.814  12.382  0.7142  2.5396  1.1726
 5870TIP3    H239102   4.259   0.838  12.302 -0.0713  0.5615  1.7830
 5871TIP3   OH239103   2.738   5.739   4.462  0.2268  0.1553  0.0640
 5871TIP3    H139104   2.709   5.779   4.381 -1.0977 -1.5687 -0.3595
 5871TIP3    H239105   2.783   5.659   4.434 -0.5449 -0.6263  1.0310
 5872TIP3   OH239106   4.750   5.168   4.517  0.1581 -0.1662  0.1562
 5872TIP3    H139107   4.666   5.140   4.479  0.1792 -1.2296  0.8541
 5872TIP3    H239108   4.802   5.088   4.520  0.5202  0.1059  1.4560
 5873TIP3   OH239109   1.324   5.890   2.192 -1.1852  0.3355  0.2905
 5873TIP3    H139110   1.307   5.973   2.237  3.0242  1.1727  0.5509
 5873TIP3    H239111   1.377   5.914   2.116 -0.7791 -2.0049 -0.2116
 5874TIP3   OH239112   2.340   3.594   1.380  0.8220  0.0839  0.3036
 5874TIP3    H139113   2.319   3.682   1.411 -2.4346 -1.0003  1.4022
 5874TIP3    H239114   2.300   3.589   1.293 -0.3593 -0.8008  0.8847
 5875TIP3   OH239115   3.382   2.433  11.881 -0.3434  0.0594 -0.0797
 5875TIP3    H139116   3.334   2.370  11.827 -0.2051  0.8614 -1.1387
 5875TIP3    H239117   3.441   2.477  11.820  1.1027 -0.2753  1.0402
 5876TIP3   OH239118   3.971   5.561   2.787 -0.0237 -0.3743 -0.3514
 5876TIP3    H139119   4.038   5.584   2.723  2.0538 -0.7445  1.6158
 5876TIP3    H239120   3.925   5.643   2.804  1.5325  0.4311  0.0592
 5877TIP3   OH239121   0.064   4.281   2.158  0.0089  0.7002 -0.7707
 5877TIP3    H139122  -0.015   4.242   2.122  0.1136  0.2381 -0.4950
 5877TIP3    H239123   0.073   4.243   2.245  1.0486  0.0361 -1.1652
 5878TIP3   OH239124   1.044   3.251  12.687 -0.3360  0.0170 -0.2389
 5878TIP3    H139125   1.049   3.335  12.733 -0.2095 -0.3157  0.3570
 5878TIP3    H239126   1.122   3.204  12.715  0.0370  0.0239 -1.2273
 5879TIP3   OH239127   0.185   5.515  12.542 -0.1206  0.2852 -0.3017
 5879TIP3    H139128   0.153   5.594  12.586 -0.2425  0.0776 -0.0248
 5879TIP3    H239129   0.109   5.480  12.496 -0.3428 -0.3311  0.5355
 5880TIP3   OH239130   6.157   3.504   4.622 -0.0745  0.0163  0.6503
 5880TIP3    H139131   6.139   3.455   4.702 -0.6347 -0.4593  0.2351
 5880TIP3    H239132   6.074   3.547   4.601 -0.7082 -2.0178 -1.1596
 5881TIP3   OH239133   1.413   6.393   0.554 -0.4847 -0.1026 -0.2027
 5881TIP3    H139134   1.411   6.437   0.639 -0.8796  1.9006 -1.2188
 5881TIP3    H239135   1.399   6.300   0.574 -1.5690  0.4810  1.8214
 5882TIP3   OH239136   3.130   1.352   0.987  0.2641  0.4953  0.1690
 5882TIP3    H139137   3.213   1.378   1.027 -0.3798  0.9756  1.1881
 5882TIP3    H239138   3.156   1.311   0.904  1.3843  2.8988 -0.7074
 5883TIP3   OH239139   2.793   4.230   0.182  0.7906  0.4719 -0.3338
 5883TIP3    H139140   2.880   4.196   0.202  0.1472 -0.1945  1.3797
 5883TIP3    H239141   2.739   4.152   0.166 -0.0850  0.7678  1.0948
 5884TIP3   OH239142   0.390   0.013   3.518 -0.4703 -0.1803 -0.7245
 5884TIP3    H139143   0.446   0.090   3.520  0.3889 -0.7967 -0.2029
 5884TIP3    H239144   0.418  -0.039   3.594 -2.8643  0.2543  0.5006
 5885TIP3   OH239145   1.605   1.769  11.980  0.1620  0.6043  0.3428
 5885TIP3    H139146   1.532   1.736  12.032 -1.0383  0.5081 -1.3720
 5885TIP3    H239147   1.631   1.851  12.023 -1.9971  1.4671  0.0741
 5886TIP3   OH239148   1.846   6.199  12.441  0.1993 -0.3490 -0.3520
 5886TIP3    H139149   1.897   6.133  12.394 -0.3345 -0.1516 -1.2119
 5886TIP3    H239150   1.886   6.202  12.528  3.5930  1.9622 -1.8816
 5887TIP3   OH239151   3.493   0.324  15.001  0.0282 -0.1977 -0.4289
 5887TIP3    H139152   3.541   0.334  14.919 -0.9497  0.0137 -0.9732
 5887TIP3    H239153   3.492   0.411  15.040 -1.8501  0.2663 -1.4937
 5888TIP3   OH239154   3.747   0.051   2.664  0.6520 -0.2029  0.1363
 5888TIP3    H139155   3.720  -0.021   2.721  0.6692  1.1186  1.8624
 5888TIP3    H239156   3.667   0.075   2.618  0.5360 -1.0088 -0.0909
 5889TIP3   OH239157   2.084   2.010  17.177  0.3531  0.0989 -0.5591
 5889TIP3    H139158   2.007   1.972  17.133  0.8437  1.5342 -2.7382
 5889TIP3    H239159   2.061   2.009  17.270 -1.9719 -0.2570 -1.1027
 5890TIP3   OH239160   4.536   4.915   1.326 -0.0747  0.2101  0.3985
 5890TIP3    H139161   4.463   4.882   1.274 -1.1286  0.9319  1.4135
 5890TIP3    H239162   4.533   5.010   1.315  1.7297  0.1481 -0.8823
 5891TIP3   OH239163   3.249   0.617  16.302  0.5674 -0.8701  0.5122
 5891TIP3    H139164   3.324   0.562  16.278  1.1567 -0.4513  1.3479
 5891TIP3    H239165   3.277   0.661  16.382  0.8278  2.0662 -1.1404
 5892TIP3   OH239166   4.348   0.404  12.334 -0.2477 -0.1414 -0.1852
 5892TIP3    H139167   4.284   0.450  12.388  1.9252  0.9924  1.5233
 5892TIP3    H239168   4.382   0.471  12.274  0.4933 -0.3083  0.0340
 5893TIP3   OH239169   1.343   5.076   6.232 -0.5394  0.4875  0.1097
 5893TIP3    H139170   1.422   5.122   6.206  1.3121 -1.2471  2.4465
 5893TIP3    H239171   1.277   5.146   6.243  1.0355  2.0914 -0.4385
 5894TIP3   OH239172   3.898   1.676  11.976 -0.1320 -0.9266 -0.7255
 5894TIP3    H139173   3.810   1.707  12.002 -0.4905 -2.4557 -0.0820
 5894TIP3    H239174   3.926   1.621  12.049 -0.7614 -4.5734 -3.0849
 5895TIP3   OH239175   0.358   6.347   0.143  0.1123  0.2965  0.0015
 5895TIP3    H139176   0.299   6.380   0.075 -0.6879 -0.5500  0.2746
 5895TIP3    H239177   0.393   6.266   0.106  0.3402  0.2813  0.2533
 5896TIP3   OH239178   0.375   5.571  12.332 -0.1828 -0.2340 -0.4251
 5896TIP3    H139179   0.443   5.628  12.367  0.2034  0.0874 -1.6691
 5896TIP3    H239180   0.304   5.576  12.395  0.9087 -0.4952  0.8413
 5897TIP3   OH239181   4.537   0.735   5.174 -0.2178 -0.1033  0.1578
 5897TIP3    H139182   4.479   0.793   5.223  1.6371  1.7506  0.2299
 5897TIP3    H239183   4.596   0.698   5.240 -0.1765 -0.6243 -0.1635
 5898TIP3   OH239184   2.854   2.687  13.323  0.5320  0.5665  0.0981
 5898TIP3    H139185   2.928   2.674  13.264  2.4475  0.3663  2.4933
 5898TIP3    H239186   2.880   2.759  13.380 -0.7281 -0.1273  1.5962
 5899TIP3   OH239187   0.997   5.717   4.199 -0.0182  0.6077 -0.8882
 5899TIP3    H139188   1.022   5.637   4.152 -1.5076 -1.7709  2.1883
 5899TIP3    H239189   1.066   5.729   4.264 -0.4653  1.1244 -0.5009
 5900TIP3   OH239190   6.036   4.574  11.190  0.1776 -0.1412 -0.5693
 5900TIP3    H139191   6.037   4.598  11.098 -0.1283  1.6477 -0.1232
 5900TIP3    H239192   6.119   4.607  11.225 -1.2407  2.4354  0.5484
 5901TIP3   OH239193   3.850   6.049  13.612 -0.2012  0.9704  0.4911
 5901TIP3    H139194   3.858   6.122  13.673 -0.1677  1.4210 -0.0446
 5901TIP3    H239195   3.836   6.091  13.527  0.1880  0.3570  0.1247
 5902TIP3   OH239196   5.585   0.023  11.564  0.2098 -0.6771  0.3501
 5902TIP3    H139197   5.673   0.035  11.528 -0.4545  1.6201 -0.6391
 5902TIP3    H239198   5.536  -0.019  11.494 -0.6164  2.1699 -0.8595
 5903TIP3   OH239199   4.713   2.886  14.000  0.3877 -0.3279  0.0769
 5903TIP3    H139200   4.695   2.809  13.947  1.4810 -0.3491 -0.2762
 5903TIP3    H239201   4.790   2.861  14.052 -0.1364  0.0056  1.0194
 5904TIP3   OH239202   1.999   4.914  11.019  0.2884  0.2124  0.3208
 5904TIP3    H139203   1.915   4.870  11.033  0.0519  1.3995  2.8725
 5904TIP3    H239204   2.064   4.847  11.042  0.0057 -0.0198  0.4563
 5905TIP3   OH239205   0.140   4.602  13.059 -0.4286 -0.3258  0.0854
 5905TIP3    H139206   0.175   4.543  13.126 -0.7709  0.6294  1.1269
 5905TIP3    H239207   0.211   4.666  13.045 -0.3528 -0.5324 -0.4816
 5906TIP3   OH239208   5.731   1.702   3.996  0.7023 -0.1417 -0.3186
 5906TIP3    H139209   5.786   1.625   4.012 -0.4179 -1.0611 -0.7170
 5906TIP3    H239210   5.695   1.686   3.908  1.0731  1.2314 -0.7204
 5907TIP3   OH239211   5.219   6.616   1.410 -0.0612  0.1290 -0.3255
 5907TIP3    H139212   5.210   6.579   1.322  2.0913  0.7435 -0.8442
 5907TIP3    H239213   5.289   6.681   1.401  0.4940 -0.1275  1.9541
 5908TIP3   OH239214   2.965   6.648   2.510 -0.4188  0.2550  0.4934
 5908TIP3    H139215   3.014   6.719   2.550  2.4594 -0.1430 -2.0717
 5908TIP3    H239216   3.029   6.576   2.502 -1.5493 -0.5387 -2.2860
 5909TIP3   OH239217   3.951   5.809  13.176 -0.3473  0.1570 -0.3638
 5909TIP3    H139218   3.946   5.771  13.088  0.2483  0.1201 -0.3809
 5909TIP3    H239219   4.009   5.884  13.167 -0.8995  0.6175 -0.1630
 5910TIP3   OH239220   4.534   0.551   2.478  0.4178  0.1556  0.6353
 5910TIP3    H139221   4.562   0.497   2.552  2.0055  2.2907  1.6496
 5910TIP3    H239222   4.511   0.488   2.409  2.6695 -1.7732  1.5945
 5911TIP3   OH239223   4.213   2.877   5.392 -0.4605  0.4415 -0.1108
 5911TIP3    H139224   4.242   2.893   5.481  0.9149  0.5035 -0.5557
 5911TIP3    H239225   4.249   2.950   5.341 -0.2240 -0.2292 -0.9196
 5912TIP3   OH239226   5.027   2.597  14.938 -0.2052 -0.6115  0.3134
 5912TIP3    H139227   5.033   2.687  14.971  0.2188 -0.9519  1.2064
 5912TIP3    H239228   4.997   2.606  14.848  0.9348  0.4904  0.0284
 5913TIP3   OH239229   0.715   5.701   4.147 -0.5874 -0.0754  0.2459
 5913TIP3    H139230   0.738   5.746   4.066 -0.0361 -0.7175  0.0438
 5913TIP3    H239231   0.797   5.697   4.197 -0.5949 -0.9942  0.1921
 5914TIP3   OH239232   0.616   2.564   1.259  0.1231  0.0471 -0.5465
 5914TIP3    H139233   0.706   2.571   1.226 -0.1122 -1.1147 -1.4596
 5914TIP3    H239234   0.561   2.585   1.184 -0.3874 -0.2787 -0.2650
 5915TIP3   OH239235   4.422   0.914  16.865 -0.3532  0.2968  0.0789
 5915TIP3    H139236   4.338   0.935  16.905 -0.1790  0.7614  0.1944
 5915TIP3    H239237   4.463   0.853  16.927 -0.9970 -0.6751 -0.4233
 5916TIP3   OH239238   3.707   0.367   1.132 -0.2145 -0.5146  0.5915
 5916TIP3    H139239   3.649   0.390   1.060 -0.5410 -1.3586  0.5840
 5916TIP3    H239240   3.758   0.292   1.100 -0.7743 -1.2748  1.4427
 5917TIP3   OH239241   4.385   4.905  17.283 -0.6397  0.2014  0.0104
 5917TIP3    H139242   4.443   4.878  17.212  0.3878  1.0723  0.5109
 5917TIP3    H239243   4.346   4.823  17.314 -0.8428 -0.2291 -1.3097
 5918TIP3   OH239244   0.352   5.504   5.982  0.1747  0.4839 -0.2878
 5918TIP3    H139245   0.429   5.536   5.936 -0.3664  1.8878 -0.2359
 5918TIP3    H239246   0.281   5.561   5.952 -0.6277 -0.0896  0.4970
 5919TIP3   OH239247   5.855   0.714  15.059  0.8690  0.1890 -0.0809
 5919TIP3    H139248   5.762   0.724  15.076  1.1446  1.7941  0.6135
 5919TIP3    H239249   5.861   0.645  14.992 -0.8513  0.6667 -0.7361
 5920TIP3   OH239250   4.920   1.500   1.230  0.0585 -0.0548  0.4176
 5920TIP3    H139251   4.844   1.541   1.189  0.0984  0.0541  0.4527
 5920TIP3    H239252   4.994   1.554   1.202  0.2898 -0.9559 -0.7177
 5921TIP3   OH239253   4.987   0.067  13.385 -0.2071  0.4186 -0.1983
 5921TIP3    H139254   4.927   0.140  13.366  0.2250  0.9671  0.5195
 5921TIP3    H239255   5.069   0.110  13.411 -0.1781 -0.3259  0.9469
 5922TIP3   OH239256   4.549   1.277  15.836  0.6734  0.4699 -0.3322
 5922TIP3    H139257   4.469   1.305  15.880  0.0566 -1.5434 -0.1199
 5922TIP3    H239258   4.619   1.295  15.899  0.0077 -0.7224  0.7754
 5923TIP3   OH239259   5.169   3.307   1.258  0.2828 -0.3933  0.4134
 5923TIP3    H139260   5.166   3.254   1.337  0.3973  1.5079  1.7214
 5923TIP3    H239261   5.149   3.396   1.287  0.7151  0.4133 -1.6270
 5924TIP3   OH239262   5.064   6.446  14.501  0.0157  0.0997 -0.9296
 5924TIP3    H139263   5.109   6.365  14.525  0.2281  0.5559  0.2078
 5924TIP3    H239264   4.975   6.418  14.479  0.0822 -0.4339 -0.5322
 5925TIP3   OH239265   1.475   5.419   0.917  0.0307 -0.9552 -0.3703
 5925TIP3    H139266   1.440   5.353   0.977  1.2752  0.0513  1.5211
 5925TIP3    H239267   1.399   5.470   0.891 -0.4605 -1.0944  0.7636
 5926TIP3   OH239268   3.941   1.696  14.221 -0.2652  0.5347 -0.3236
 5926TIP3    H139269   3.963   1.781  14.259 -1.6038  0.3456  0.8968
 5926TIP3    H239270   3.847   1.698  14.207 -0.3982 -0.9497  0.2146
 5927TIP3   OH239271   6.540   0.392   1.076  0.1315  0.0305  0.1782
 5927TIP3    H139272   6.588   0.456   1.129 -0.5364 -1.1647  2.2935
 5927TIP3    H239273   6.451   0.394   1.110 -0.2636 -0.9221 -0.7785
 5928TIP3   OH239274   2.008   3.369  13.804 -0.0475 -0.6444  0.1022
 5928TIP3    H139275   1.975   3.353  13.892 -0.7966  0.5866  0.0614
 5928TIP3    H239276   2.103   3.375  13.814 -0.1877  0.3159  0.9677
 5929TIP3   OH239277   0.618   1.126  16.957 -0.4050 -0.3945  0.2126
 5929TIP3    H139278   0.593   1.218  16.947  2.2944  0.6437  2.3885
 5929TIP3    H239279   0.581   1.101  17.042  1.2779 -0.4388  0.9443
 5930TIP3   OH239280   3.521   4.142  15.702 -0.2847 -0.0307  0.2173
 5930TIP3    H139281   3.453   4.206  15.722 -0.4147 -0.3435  0.7979
 5930TIP3    H239282   3.477   4.077  15.647 -0.1827  0.3130 -0.2728
 5931TIP3   OH239283   2.947   0.708   1.018  0.0251  0.6628  0.5420
 5931TIP3    H139284   2.974   0.616   1.026  2.2453  1.4680  2.8254
 5931TIP3    H239285   2.868   0.715   1.071  0.3135  0.2234  1.0400
 5932TIP3   OH239286   5.006   3.196  16.275 -0.0458 -0.3088 -0.4388
 5932TIP3    H139287   5.054   3.177  16.356 -0.2540 -2.4030 -0.7926
 5932TIP3    H239288   5.074   3.209  16.209  0.0979 -0.2461 -0.2795
 5933TIP3   OH239289   5.096   2.448  13.217 -0.0828  0.5523 -0.2833
 5933TIP3    H139290   5.143   2.371  13.186 -1.2865  0.7817 -2.8848
 5933TIP3    H239291   5.136   2.521  13.170  0.8516  1.5102  1.9367
 5934TIP3   OH239292   4.624   6.512  15.643  0.3129 -0.4258  0.1161
 5934TIP3    H139293   4.684   6.501  15.717  0.3807 -0.5462  0.0440
 5934TIP3    H239294   4.564   6.438  15.649 -0.9349  0.6484  1.2063
 5935TIP3   OH239295   4.665   1.988   0.412 -0.2492  0.2423 -0.0995
 5935TIP3    H139296   4.709   2.035   0.483  2.7546 -0.5431 -1.3571
 5935TIP3    H239297   4.666   2.048   0.338 -0.8505  0.0276 -0.2861
 5936TIP3   OH239298   4.539   6.008   4.005  0.1169 -0.0153  0.3298
 5936TIP3    H139299   4.452   6.040   4.031  0.4748  1.2426 -0.0076
 5936TIP3    H239300   4.600   6.062   4.054  0.7187 -1.3703  1.1015
 5937TIP3   OH239301   4.217   3.289  12.530 -0.5889 -0.0240 -0.1567
 5937TIP3    H139302   4.265   3.357  12.578  0.3748 -1.0415  0.3585
 5937TIP3    H239303   4.134   3.281  12.577  0.2511 -0.8433  1.2371
 5938TIP3   OH239304   3.420   5.317   5.095 -0.2569  0.4031  0.0219
 5938TIP3    H139305   3.424   5.229   5.134 -0.1837 -0.6579 -2.2774
 5938TIP3    H239306   3.496   5.362   5.131  0.0580 -0.7025  0.7775
 5939TIP3   OH239307   0.616   4.405   2.028 -0.2625 -0.4206 -0.1778
 5939TIP3    H139308   0.560   4.358   2.090 -1.1097  1.9840  0.9384
 5939TIP3    H239309   0.705   4.387   2.058 -0.6120 -0.6087  0.7747
 5940TIP3   OH239310   5.986   5.284   4.608  0.6416 -0.3737 -0.4057
 5940TIP3    H139311   5.896   5.312   4.627 -0.0734 -2.6536 -0.2534
 5940TIP3    H239312   6.038   5.364   4.616 -1.2055  0.7672  0.6316
 5941TIP3   OH239313   0.007   0.998   5.484  0.2565 -0.0660 -0.3773
 5941TIP3    H139314  -0.041   1.056   5.543 -0.9063  2.6507 -3.7947
 5941TIP3    H239315  -0.054   0.927   5.465 -0.4175  0.5071 -0.4033
 5942TIP3   OH239316   0.634   6.362  11.055  0.1427  0.7923  0.1839
 5942TIP3    H139317   0.725   6.332  11.052 -0.2095 -0.2540  0.1092
 5942TIP3    H239318   0.626   6.421  10.981  0.7665  0.9027  0.2003
 5943TIP3   OH239319   5.552   4.417  13.437 -0.3079 -0.1632  0.0109
 5943TIP3    H139320   5.524   4.433  13.347 -1.3732  1.0050  0.5291
 5943TIP3    H239321   5.573   4.504  13.471  0.9291 -0.6892  0.6370
 5944TIP3   OH239322   2.425   2.571   2.384 -0.4518  0.5636 -0.1496
 5944TIP3    H139323   2.388   2.655   2.357 -1.1375  0.5294  0.6516
 5944TIP3    H239324   2.404   2.511   2.312 -1.8390  0.5812  0.2222
 5945TIP3   OH239325   2.318   3.928  15.394  0.1024  0.5791 -1.1025
 5945TIP3    H139326   2.360   3.900  15.313  0.8635 -1.6837  0.0137
 5945TIP3    H239327   2.226   3.904  15.383  0.1687  0.4480 -1.3680
 5946TIP3   OH239328   3.093   4.302   1.137 -0.2330  0.4523 -0.0555
 5946TIP3    H139329   3.176   4.346   1.153 -0.2540  0.3257  0.3872
 5946TIP3    H239330   3.050   4.297   1.222  0.0827 -1.0480  0.0297
 5947TIP3   OH239331   0.424   3.557  12.930  0.1108  0.0429  0.1035
 5947TIP3    H139332   0.338   3.521  12.911 -0.0374  0.1452  0.5569
 5947TIP3    H239333   0.476   3.482  12.959  0.0380  0.0554  0.2694
 5948TIP3   OH239334   2.823   1.574  12.954  0.5130  0.5543  0.5036
 5948TIP3    H139335   2.729   1.584  12.938  0.5231 -1.0593 -0.7088
 5948TIP3    H239336   2.828   1.519  13.033  0.4138 -0.6552 -0.3175
 5949TIP3   OH239337   1.475   2.219   1.655  0.1223 -0.6900  0.2718
 5949TIP3    H139338   1.551   2.160   1.653 -0.5880 -1.6276  0.6312
 5949TIP3    H239339   1.467   2.243   1.747  1.1121  0.8984 -0.0470
 5950TIP3   OH239340   5.594   2.960   2.000  0.5147  0.4025  0.1676
 5950TIP3    H139341   5.625   3.047   1.976 -1.0723  1.3458  1.4433
 5950TIP3    H239342   5.515   2.947   1.948  1.8746 -1.1432 -1.5558
 5951TIP3   OH239343   5.430   2.093  14.062 -0.2556 -0.4875 -0.0179
 5951TIP3    H139344   5.435   2.031  14.136  0.1719  0.4957  0.7900
 5951TIP3    H239345   5.340   2.125  14.065 -0.2925 -0.5899 -0.0374
 5952TIP3   OH239346   1.392   2.910   0.586 -0.5998 -0.5343 -0.3486
 5952TIP3    H139347   1.353   2.921   0.499 -1.4859 -1.4544 -0.0783
 5952TIP3    H239348   1.324   2.868   0.637  1.1429 -3.2466 -0.1630
 5953TIP3   OH239349   0.219   4.471   2.030 -0.0808  0.2735  0.2292
 5953TIP3    H139350   0.162   4.396   2.046  2.0086 -1.5532 -0.6060
 5953TIP3    H239351   0.251   4.495   2.117  0.2445 -0.6476  0.3762
 5954TIP3   OH239352   2.821   5.771   4.039  0.1935  0.0003  0.4131
 5954TIP3    H139353   2.878   5.847   4.034 -0.1781  0.2158 -0.7526
 5954TIP3    H239354   2.779   5.766   3.953 -2.2451  0.3846  1.5325
 5955TIP3   OH239355   1.539   1.010   0.133 -0.0306  0.3341 -0.2735
 5955TIP3    H139356   1.575   1.091   0.095  1.2313 -0.3801 -0.6310
 5955TIP3    H239357   1.536   1.027   0.227  0.2178  0.8095 -0.3482
 5956TIP3   OH239358   5.581   5.614  15.830  0.1736  0.3326 -0.0029
 5956TIP3    H139359   5.509   5.673  15.853  0.3229  0.2021  0.8368
 5956TIP3    H239360   5.581   5.611  15.735 -0.7891  0.5128 -0.0131
 5957TIP3   OH239361   0.071   4.236   0.544 -0.8074  0.3341  1.1081
 5957TIP3    H139362  -0.022   4.238   0.522  0.1214  2.4893 -2.9807
 5957TIP3    H239363   0.107   4.166   0.489  0.5895  1.9770 -0.1072
 5958TIP3   OH239364   6.402   0.380  15.569  0.0379  0.1428 -0.1247
 5958TIP3    H139365   6.472   0.384  15.633  1.3030  1.7606 -1.5615
 5958TIP3    H239366   6.337   0.443  15.600 -0.1412 -0.3119  0.4405
 5959TIP3   OH239367   1.337   1.556  12.848  0.2619 -0.1409 -0.1935
 5959TIP3    H139368   1.426   1.535  12.821  0.1792 -0.0179 -0.5622
 5959TIP3    H239369   1.332   1.651  12.839 -0.3171 -0.2793 -1.4211
 5960TIP3   OH239370   5.021   2.249  10.529  0.1366  0.1348  0.2192
 5960TIP3    H139371   5.113   2.230  10.513 -0.2779 -1.1250 -0.7379
 5960TIP3    H239372   5.014   2.344  10.520  0.9321  0.0242 -1.9486
 5961TIP3   OH239373   0.240   0.328   0.598 -0.2100 -0.7886 -0.1835
 5961TIP3    H139374   0.321   0.378   0.605 -0.6088 -0.0107 -0.8942
 5961TIP3    H239375   0.251   0.255   0.658  1.3515 -1.1622 -0.8932
 5962TIP3   OH239376   5.742   3.496   3.992  0.0089 -0.4182  0.2315
 5962TIP3    H139377   5.732   3.412   4.036 -2.2634 -0.9319 -1.1460
 5962TIP3    H239378   5.737   3.475   3.899 -0.2828  1.1942 -0.1411
 5963TIP3   OH239379   1.786   2.023   5.473 -0.3215  0.2941  0.2309
 5963TIP3    H139380   1.851   2.009   5.541 -0.7993 -0.2085  0.5933
 5963TIP3    H239381   1.825   1.984   5.394  0.1517  0.7101  0.2600
 5964TIP3   OH239382   6.196   6.763   1.084  0.0954  0.0017  0.3640
 5964TIP3    H139383   6.156   6.677   1.078 -0.9384  0.2120  3.2060
 5964TIP3    H239384   6.289   6.748   1.066 -0.2683 -1.5010 -0.3082
 5965TIP3   OH239385   5.614   5.765  16.146  0.0734 -0.1313 -0.6067
 5965TIP3    H139386   5.657   5.695  16.096 -0.5523 -0.5330 -0.5833
 5965TIP3    H239387   5.521   5.742  16.145 -0.2217  1.0601 -1.1775
 5966TIP3   OH239388   4.606   5.654   3.391  0.3877 -0.4105 -0.1970
 5966TIP3    H139389   4.590   5.739   3.430  0.4713 -0.3313 -0.3339
 5966TIP3    H239390   4.637   5.673   3.303  1.1600 -0.5620  0.0384
 5967TIP3   OH239391   6.109   3.411  10.389  0.3360  0.3624  0.3577
 5967TIP3    H139392   6.156   3.479  10.437  1.5553  0.2717 -0.6741
 5967TIP3    H239393   6.169   3.337  10.387 -1.4525 -1.2133  2.5075
 5968TIP3   OH239394   3.933   4.239   2.984  0.6979  0.6106 -0.3236
 5968TIP3    H139395   4.026   4.228   3.001  0.9592  1.7112 -0.9532
 5968TIP3    H239396   3.889   4.197   3.058  1.6951  0.1104 -0.0197
 5969TIP3   OH239397   6.632   0.420  15.349 -0.2989 -0.5400 -0.0342
 5969TIP3    H139398   6.636   0.506  15.392  2.4515 -1.1848  1.1201
 5969TIP3    H239399   6.580   0.366  15.409 -2.3660  0.3813 -0.9509
 5970TIP3   OH239400   0.208   0.805  17.202 -0.4561  0.2388  0.2375
 5970TIP3    H139401   0.240   0.723  17.239  2.2259  1.1920  0.1354
 5970TIP3    H239402   0.122   0.783  17.167 -0.2795 -2.2486  1.2376
 5971TIP3   OH239403   2.484   0.897  13.234  0.3496 -0.2402 -0.5067
 5971TIP3    H139404   2.579   0.886  13.241  0.5986  1.3387 -1.0700
 5971TIP3    H239405   2.449   0.851  13.311  1.7070  0.7002  0.7147
 5972TIP3   OH239406   2.334   0.140   6.060 -0.4327 -0.5286 -0.1216
 5972TIP3    H139407   2.263   0.192   6.022  0.0754  0.9299  0.8808
 5972TIP3    H239408   2.366   0.193   6.132  1.7141 -1.1567 -0.5906
 5973TIP3   OH239409   1.949   2.992  13.157 -0.1769  0.2792 -0.2447
 5973TIP3    H139410   1.974   3.005  13.065  0.3697 -1.0160 -0.2802
 5973TIP3    H239411   2.026   2.952  13.197 -1.0069 -0.6804  0.3983
 5974TIP3   OH239412   6.171   1.089  12.740 -0.1257  0.2136  0.2257
 5974TIP3    H139413   6.142   1.000  12.723  0.0948  0.4928 -1.7767
 5974TIP3    H239414   6.126   1.142  12.674  1.8996  1.1808 -0.4272
 5975TIP3   OH239415   6.461   5.304   4.994 -0.5216  0.2791  0.8656
 5975TIP3    H139416   6.517   5.231   5.020 -0.2649  0.2202  0.1526
 5975TIP3    H239417   6.423   5.277   4.911 -0.2023  1.0785  0.4560
 5976TIP3   OH239418   5.474   6.542  14.781 -0.8912 -0.2527 -0.0342
 5976TIP3    H139419   5.508   6.618  14.733  0.2674 -0.4131  0.5206
 5976TIP3    H239420   5.500   6.466  14.729 -0.1412 -0.3923  0.5420
 5977TIP3   OH239421   2.774   5.576  12.696  0.0085 -0.0775  0.3910
 5977TIP3    H139422   2.869   5.580  12.680 -0.1878  0.4115 -0.7529
 5977TIP3    H239423   2.736   5.567  12.608 -1.0812  1.2489  0.7196
 5978TIP3   OH239424   6.283   3.385  16.590  0.5062 -0.3702 -0.1130
 5978TIP3    H139425   6.188   3.380  16.599  0.1997  1.2947 -2.0767
 5978TIP3    H239426   6.312   3.435  16.666 -0.2939  0.0311 -0.0745
 5979TIP3   OH239427   0.800   4.201   4.775 -0.2075 -0.1429  0.4002
 5979TIP3    H139428   0.884   4.230   4.811 -0.6770  1.6312  0.1203
 5979TIP3    H239429   0.823   4.134   4.711  0.7440 -2.2144  2.8137
 5980TIP3   OH239430   6.513   5.913  15.249 -0.2298 -0.1227  0.6188
 5980TIP3    H139431   6.483   5.968  15.321 -1.7265 -1.1929  0.8364
 5980TIP3    H239432   6.582   5.964  15.206  0.5885  0.5814  2.7176
 5981TIP3   OH239433   5.402   1.702  13.290  0.3402 -0.1934 -0.3088
 5981TIP3    H139434   5.483   1.656  13.269 -0.2219 -1.1077 -0.4882
 5981TIP3    H239435   5.338   1.633  13.302 -0.6673  0.5585 -1.2330
 5982TIP3   OH239436   3.455   5.817  15.200 -0.6052 -0.2083 -0.3893
 5982TIP3    H139437   3.464   5.820  15.105  0.9059 -1.2199 -0.3015
 5982TIP3    H239438   3.524   5.873  15.233 -2.2239  1.5501  0.1052
 5983TIP3   OH239439   3.726   5.853  11.437  0.1283 -0.5490  0.0831
 5983TIP3    H139440   3.648   5.902  11.464 -1.3644 -2.2394 -0.9886
 5983TIP3    H239441   3.742   5.792  11.510  0.2599 -0.4035  0.1741
 5984TIP3   OH239442   3.137   4.194  16.722 -0.4865  0.9960  0.1019
 5984TIP3    H139443   3.093   4.111  16.742  1.4718 -0.4068 -1.2969
 5984TIP3    H239444   3.114   4.251  16.796 -1.4008 -0.9493  1.3776
 5985TIP3   OH239445   4.519   1.074   3.886 -0.8511 -0.2523 -0.5052
 5985TIP3    H139446   4.561   1.154   3.853 -1.3806 -0.6797 -2.2560
 5985TIP3    H239447   4.592   1.019   3.914 -0.3782  0.0796 -1.0724
 5986TIP3   OH239448   2.800   0.305  16.534 -0.2783 -1.0739 -0.0997
 5986TIP3    H139449   2.875   0.267  16.488 -0.9447 -2.8056  0.2304
 5986TIP3    H239450   2.725   0.253  16.506 -0.8837 -1.3711  1.9961
 5987TIP3   OH239451   4.208   3.903  13.564  0.1957 -0.0838  0.8434
 5987TIP3    H139452   4.167   3.988  13.550 -1.6953 -0.9806  0.6363
 5987TIP3    H239453   4.147   3.857  13.623 -0.1381 -2.1893 -1.0456
 5988TIP3   OH239454   2.821   6.580  15.556  0.0827 -0.0307  0.0657
 5988TIP3    H139455   2.784   6.657  15.513 -0.6117 -1.4130 -1.8525
 5988TIP3    H239456   2.898   6.558  15.503 -0.1180 -1.0839  0.2124
 5989TIP3   OH239457   3.848   4.339   0.308  0.0888 -0.2592  0.5742
 5989TIP3    H139458   3.931   4.384   0.323 -0.2998  0.8923 -0.6789
 5989TIP3    H239459   3.862   4.290   0.227  0.3227 -1.9723  1.6311
 5990TIP3   OH239460   2.104   1.634   3.932 -0.4181 -0.0191  0.1847
 5990TIP3    H139461   2.016   1.668   3.914 -0.8626 -0.9733  0.5180
 5990TIP3    H239462   2.092   1.576   4.007  0.8018  1.2164  1.3726
 5991TIP3   OH239463   0.002   3.002   2.888  0.1418 -0.1947 -0.2348
 5991TIP3    H139464   0.009   3.012   2.983 -0.0537  1.2988 -0.3624
 5991TIP3    H239465  -0.033   3.086   2.857  0.6975 -0.4691 -1.6806
 5992TIP3   OH239466   0.154   3.953  15.312 -0.4349  0.2731 -0.5717
 5992TIP3    H139467   0.247   3.962  15.292 -0.0220  0.4808  1.2946
 5992TIP3    H239468   0.151   3.889  15.383 -1.7743 -0.2037 -1.0451
 5993TIP3   OH239469   5.076   2.107  16.650  0.4341  0.2677 -0.2279
 5993TIP3    H139470   5.150   2.151  16.609 -0.2483 -0.1443 -1.9325
 5993TIP3    H239471   5.097   2.014  16.645  0.2110  0.1938  0.1150
 5994TIP3   OH239472   6.367   2.629   0.274  0.0100 -0.2681 -0.0792
 5994TIP3    H139473   6.397   2.561   0.213  1.2954 -0.1532  0.4061
 5994TIP3    H239474   6.274   2.612   0.285  0.4021 -2.2866  0.4159
 5995TIP3   OH239475   5.693   3.582  12.986 -0.0901 -0.0869 -0.0553
 5995TIP3    H139476   5.680   3.573  13.080  0.7805 -1.2410 -0.0366
 5995TIP3    H239477   5.724   3.496  12.957  0.3177  0.4532 -1.2786
 5996TIP3   OH239478   4.483   6.640  13.097 -0.0130 -0.6016  0.3215
 5996TIP3    H139479   4.482   6.700  13.022 -0.2895 -0.3344  0.5362
 5996TIP3    H239480   4.511   6.695  13.170 -0.7027 -0.6305  0.6097
 5997TIP3   OH239481   4.797   5.427  15.464 -0.2167  0.0934 -1.1258
 5997TIP3    H139482   4.726   5.398  15.406  0.1962  0.8785 -2.0494
 5997TIP3    H239483   4.835   5.346  15.497 -1.1850 -0.3451 -1.0738
 5998TIP3   OH239484   4.610   2.531  15.135  0.0023  0.0435  0.1854
 5998TIP3    H139485   4.674   2.575  15.191 -1.1821 -1.7363  3.0307
 5998TIP3    H239486   4.541   2.595  15.122  0.0824  0.3175  1.1059
 5999TIP3   OH239487   6.204   2.441   5.502 -0.3856 -0.0100  0.1969
 5999TIP3    H139488   6.200   2.464   5.409  1.2993 -0.0429  0.0882
 5999TIP3    H239489   6.233   2.350   5.503 -0.7170 -0.1106  0.7414
 6000TIP3   OH239490   1.945   0.213  15.287 -0.6105 -0.1365 -0.1119
 6000TIP3    H139491   1.947   0.266  15.207 -0.3907  0.8670  0.5535
 6000TIP3    H239492   2.002   0.139  15.268 -1.2382 -0.3466 -1.1979
 6001TIP3   OH239493   6.792   0.380   0.478 -1.0690  0.1555 -0.0330
 6001TIP3    H139494   6.727   0.330   0.529 -1.4156  0.1620 -0.4648
 6001TIP3    H239495   6.872   0.376   0.531 -1.3282 -0.1393  0.3429
 6002TIP3   OH239496   1.028   0.406   0.907  0.0752  0.3123  0.3727
 6002TIP3    H139497   1.022   0.354   0.986  1.1343  0.3408  0.4821
 6002TIP3    H239498   0.966   0.478   0.920  0.3601  0.4006  1.2343
 6003TIP3   OH239499   5.838   5.433  16.391  0.7708  0.3684  0.1674
 6003TIP3    H139500   5.931   5.415  16.374  0.7590  0.1718  0.3077
 6003TIP3    H239501   5.835   5.457  16.484  0.9113  1.9507 -0.2182
 6004TIP3   OH239502   2.798   5.823   2.834 -0.3490  0.6011 -0.6391
 6004TIP3    H139503   2.727   5.883   2.858 -2.3704 -1.6147 -0.8435
 6004TIP3    H239504   2.867   5.841   2.898 -1.8295  1.5408  0.7438
 6005TIP3   OH239505   3.920   5.857   0.426  0.2800  0.3108  0.4918
 6005TIP3    H139506   3.907   5.939   0.472 -0.2815  0.0936  0.7179
 6005TIP3    H239507   3.835   5.813   0.428  0.8669 -0.8210  1.4336
 6006TIP3   OH239508   1.046   3.657  16.384  0.2761 -0.4978 -0.0228
 6006TIP3    H139509   1.129   3.615  16.359  1.9851  2.5992  0.1826
 6006TIP3    H239510   1.006   3.683  16.302  0.4836 -0.1730 -0.0186
 6007TIP3   OH239511   4.762   4.114  13.949  0.2263 -0.3875 -0.7213
 6007TIP3    H139512   4.676   4.122  13.990  0.2506  1.2297 -0.9441
 6007TIP3    H239513   4.818   4.077  14.017  0.3088  2.4182  0.8058
 6008TIP3   OH239514   6.486   4.185   5.164  0.3369 -0.5535  0.4576
 6008TIP3    H139515   6.403   4.217   5.129  1.4355  0.5306 -1.2290
 6008TIP3    H239516   6.507   4.243   5.237  0.7630  0.6610 -0.6117
 6009TIP3   OH239517   1.595   3.337  16.284 -0.1257 -0.0810 -0.6875
 6009TIP3    H139518   1.662   3.311  16.222  2.8130  2.4152  1.3234
 6009TIP3    H239519   1.582   3.431  16.269  0.2159  0.4479  1.9846
 6010TIP3   OH239520   2.905   0.638   3.145 -0.1639 -0.3130  0.3705
 6010TIP3    H139521   2.894   0.623   3.051 -1.3234 -1.1209  0.6276
 6010TIP3    H239522   2.998   0.622   3.161 -0.6348 -3.8890  0.0078
 6011TIP3   OH239523   3.124   3.196  10.963 -0.6481 -0.1305 -0.4681
 6011TIP3    H139524   3.186   3.136  11.005 -0.2318 -0.1435 -1.1021
 6011TIP3    H239525   3.116   3.269  11.025 -0.2878 -0.3055 -0.2106
 6012TIP3   OH239526   5.253   3.953   5.043 -0.0157  0.3454  0.1614
 6012TIP3    H139527   5.317   3.923   4.979  1.5578  1.4415  1.1889
 6012TIP3    H239528   5.227   4.040   5.012  0.0473  0.4858  0.4999
 6013TIP3   OH239529   2.399   1.619   3.227  0.0870  0.2957 -0.1114
 6013TIP3    H139530   2.417   1.593   3.317 -2.6060 -2.6342 -0.3408
 6013TIP3    H239531   2.309   1.653   3.229  0.6497  1.9424 -1.3762
 6014TIP3   OH239532   0.261   4.546  15.736 -0.1488  0.1872  0.1973
 6014TIP3    H139533   0.224   4.546  15.825  1.0239  0.4691  0.6941
 6014TIP3    H239534   0.185   4.556  15.679 -1.3447 -3.5445  0.9774
 6015TIP3   OH239535   3.667   4.653  11.030 -0.1362 -0.2354 -0.1262
 6015TIP3    H139536   3.624   4.607  10.958 -1.0327 -0.2212  0.3971
 6015TIP3    H239537   3.615   4.732  11.044  0.5274  0.1861 -0.0260
 6016TIP3   OH239538   6.505   2.932   3.601  0.2240 -0.0638  0.2154
 6016TIP3    H139539   6.411   2.914   3.592 -0.1633  1.5874  0.7890
 6016TIP3    H239540   6.525   2.993   3.530  1.2931 -1.8382 -1.0560
 6017TIP3   OH239541   5.788   1.125   5.432 -1.2821 -0.2998 -0.5170
 6017TIP3    H139542   5.864   1.069   5.448 -1.3795 -0.4325 -0.5184
 6017TIP3    H239543   5.723   1.095   5.495 -0.0500  2.3419  2.1881
 6018TIP3   OH239544   1.078   3.250  12.208 -0.1514 -0.2295 -0.3214
 6018TIP3    H139545   1.045   3.219  12.293 -0.5096 -0.1554 -0.4337
 6018TIP3    H239546   1.011   3.223  12.145 -0.4224  0.7069 -0.4346
 6019TIP3   OH239547   3.777   3.652   0.367 -0.0898 -0.5432  0.0055
 6019TIP3    H139548   3.686   3.676   0.351  0.4876  0.0551 -2.6996
 6019TIP3    H239549   3.823   3.736   0.371  0.7970 -0.9146 -1.8662
 6020TIP3   OH239550   6.074   2.721   4.243  0.2947  0.8918 -0.7248
 6020TIP3    H139551   6.078   2.811   4.211  2.4127 -0.2421 -3.8865
 6020TIP3    H239552   6.063   2.668   4.165  2.4824 -1.8107  0.6970
 6021TIP3   OH239553   5.202   4.620  12.066 -0.3946 -0.4506  0.4271
 6021TIP3    H139554   5.108   4.635  12.074 -0.2957  0.6775 -0.3601
 6021TIP3    H239555   5.210   4.535  12.024 -1.0593 -0.8618  1.1404
 6022TIP3   OH239556   1.427   2.941   0.053  0.3338  0.7839 -0.5753
 6022TIP3    H139557   1.504   2.984   0.091  1.8022 -1.6225 -0.7693
 6022TIP3    H239558   1.458   2.905  -0.030 -1.5572  1.5628 -1.6482
 6023TIP3   OH239559   5.945   3.188  14.497 -0.6966 -0.4528  0.3102
 6023TIP3    H139560   5.974   3.109  14.542 -1.1369 -1.1377 -0.6035
 6023TIP3    H239561   5.861   3.165  14.459 -0.4609  0.2123 -0.6245
 6024TIP3   OH239562   5.622   5.713  12.707 -0.3177 -0.1866  0.4695
 6024TIP3    H139563   5.581   5.799  12.718 -0.2596 -0.0994  0.0303
 6024TIP3    H239564   5.572   5.672  12.636 -0.9102 -0.8640  1.2653
 6025TIP3   OH239565   5.204   2.332  13.569  0.9424 -0.2309  0.0160
 6025TIP3    H139566   5.180   2.425  13.574 -0.1109 -0.5238  0.5048
 6025TIP3    H239567   5.216   2.315  13.475 -0.6268 -0.0371 -0.2343
 6026TIP3   OH239568   3.981   4.446   3.346 -0.4610 -0.2315 -0.3563
 6026TIP3    H139569   4.066   4.403   3.337 -0.4706 -0.2451 -0.3806
 6026TIP3    H239570   3.953   4.465   3.257  0.4463  1.6160 -0.2660
 6027TIP3   OH239571   4.886   0.205  12.804  0.2940  0.2399 -0.2411
 6027TIP3    H139572   4.917   0.234  12.889  0.3487  1.2855 -0.6178
 6027TIP3    H239573   4.965   0.185  12.755  0.2474 -1.0811  0.1878
 6028TIP3   OH239574   5.159   2.695  15.922 -0.1534 -0.0583 -0.0478
 6028TIP3    H139575   5.217   2.763  15.887 -0.5307  0.1979 -0.1889
 6028TIP3    H239576   5.116   2.658  15.845  0.4260 -0.8095 -0.0107
 6029TIP3   OH239577   2.310   6.450  16.902  0.0926 -0.2600  0.4286
 6029TIP3    H139578   2.293   6.369  16.853  0.6617 -1.1174  1.6374
 6029TIP3    H239579   2.306   6.424  16.994  1.8128  0.7756  0.8165
 6030TIP3   OH239580   4.026   3.669  15.229 -0.1899  0.9902  0.1515
 6030TIP3    H139581   4.067   3.647  15.312  0.1663  2.9819  0.5268
 6030TIP3    H239582   3.966   3.596  15.212 -1.2027  1.1573  2.7842
 6031TIP3   OH239583   4.159   0.889   2.851 -1.1110  0.6926  0.2505
 6031TIP3    H139584   4.144   0.950   2.923 -0.8877  0.7766  0.2254
 6031TIP3    H239585   4.221   0.826   2.885  0.4979  1.8279 -0.4811
 6032TIP3   OH239586   3.026   5.819   3.742 -0.2949  0.6895  0.0172
 6032TIP3    H139587   3.118   5.817   3.767 -0.3110  2.9530  0.3152
 6032TIP3    H239588   2.979   5.786   3.819  0.1860  0.6210  0.2767
 6033TIP3   OH239589   0.615   3.165   2.517 -0.0459 -0.0439 -0.3235
 6033TIP3    H139590   0.586   3.246   2.559 -1.7048 -0.1375 -1.2567
 6033TIP3    H239591   0.634   3.106   2.590 -2.5325 -0.0809  0.3289
 6034TIP3   OH239592   6.227   1.621   1.674 -0.1029  0.2356  0.0492
 6034TIP3    H139593   6.249   1.541   1.721 -1.4718 -0.5736 -0.6638
 6034TIP3    H239594   6.307   1.674   1.679  1.6842 -2.1679 -1.5810
 6035TIP3   OH239595   1.049   2.186  13.973  0.3497  0.0544  0.1554
 6035TIP3    H139596   1.081   2.275  13.959  2.6462 -1.0185 -1.7841
 6035TIP3    H239597   0.980   2.175  13.908  0.9286  0.0109 -0.4577
 6036TIP3   OH239598   5.693   2.312   2.289 -0.2353 -0.3162  0.2217
 6036TIP3    H139599   5.640   2.385   2.257 -0.0667 -0.3274 -0.0894
 6036TIP3    H239600   5.719   2.266   2.210 -0.6151 -0.9065  0.4390
 6037TIP3   OH239601   0.463   2.334   5.239  0.8569  0.3024 -1.2097
 6037TIP3    H139602   0.483   2.418   5.279 -1.9340  0.9026 -0.9663
 6037TIP3    H239603   0.512   2.270   5.291  1.3111  1.5662 -0.0637
 6038TIP3   OH239604   1.771   0.195   6.046  0.7778  0.2526 -0.7460
 6038TIP3    H139605   1.722   0.204   6.128  0.9890 -1.7812 -0.3670
 6038TIP3    H239606   1.736   0.115   6.006  3.4615 -1.0202 -0.6584
 6039TIP3   OH239607   3.242   0.599  12.170  0.7535  0.8749  0.2076
 6039TIP3    H139608   3.285   0.641  12.096  0.5049  0.5644 -0.1119
 6039TIP3    H239609   3.314   0.562  12.221  0.8873  0.6000 -0.1771
 6040TIP3   OH239610   0.728   2.341   1.931 -0.1560 -0.1728  0.0996
 6040TIP3    H139611   0.690   2.378   1.851  0.4597  0.2632  0.0090
 6040TIP3    H239612   0.706   2.248   1.926  0.3885 -0.2548 -0.8785
 6041TIP3   OH239613   1.061   4.668   2.939  0.2342 -0.0858  0.6991
 6041TIP3    H139614   1.058   4.631   2.851  1.7750 -0.8641  0.9669
 6041TIP3    H239615   1.068   4.763   2.925  1.4638 -0.2834 -0.0156
 6042TIP3   OH239616   6.699   6.003  12.492 -0.2159 -0.3859 -0.0865
 6042TIP3    H139617   6.753   6.080  12.475 -0.8509  0.0526 -0.1421
 6042TIP3    H239618   6.612   6.027  12.460 -0.8397 -0.4853  1.4817
 6043TIP3   OH239619   4.189   3.385  16.561  0.5693  0.3196  0.2641
 6043TIP3    H139620   4.276   3.363  16.595  0.7045  0.1835 -0.1684
 6043TIP3    H239621   4.205   3.411  16.470 -0.2587 -2.8672 -0.8411
 6044TIP3   OH239622   5.223   3.735  15.546 -0.5667  0.0767 -0.5510
 6044TIP3    H139623   5.204   3.808  15.486 -0.5462 -0.0568 -0.7199
 6044TIP3    H239624   5.270   3.672  15.492  1.5128  0.9713  0.1663
 6045TIP3   OH239625   3.406   1.851  14.848 -0.9785 -0.5173 -0.3507
 6045TIP3    H139626   3.360   1.775  14.883 -0.0618 -1.0617 -0.2850
 6045TIP3    H239627   3.424   1.828  14.757 -0.0773 -0.6798 -0.1357
 6046TIP3   OH239628   5.764   1.386   1.758 -0.0844 -0.3190  0.0125
 6046TIP3    H139629   5.815   1.413   1.682 -0.6616  0.2861 -0.1686
 6046TIP3    H239630   5.711   1.462   1.779  0.2804 -0.3818  1.2051
 6047TIP3   OH239631   0.379   4.910   4.698 -0.2137 -0.5530 -0.3132
 6047TIP3    H139632   0.350   4.821   4.678 -1.4290  0.0516 -1.3631
 6047TIP3    H239633   0.474   4.908   4.688 -0.0884 -2.0592  1.0426
 6048TIP3   OH239634   0.661   5.639   1.302 -0.0179  0.3476  0.1915
 6048TIP3    H139635   0.592   5.576   1.322 -0.1474  0.1915 -0.7259
 6048TIP3    H239636   0.717   5.593   1.239 -0.5618  1.4265 -1.1145
 6049TIP3   OH239637   6.566   4.416   2.293  0.3716  0.1328  0.1781
 6049TIP3    H139638   6.551   4.393   2.385  1.2865  0.9746  0.5564
 6049TIP3    H239639   6.595   4.507   2.296 -2.1342  1.0130 -1.1908
 6050TIP3   OH239640   3.472   5.842  14.500  0.0757  0.0294  0.8194
 6050TIP3    H139641   3.395   5.849  14.557 -2.7429 -1.1815 -2.6357
 6050TIP3    H239642   3.466   5.917  14.441  1.0245 -0.6126 -0.1130
 6051TIP3   OH239643   5.309   1.147   3.648 -0.2474 -0.1499  0.3349
 6051TIP3    H139644   5.383   1.197   3.612 -1.4438  0.6127 -1.1174
 6051TIP3    H239645   5.267   1.208   3.709  0.7739 -0.8559  1.7637
 6052TIP3   OH239646   6.016   4.134   0.797 -0.0537 -0.0798  0.6680
 6052TIP3    H139647   6.053   4.132   0.708  1.5275 -2.5993  1.3278
 6052TIP3    H239648   5.921   4.142   0.783  0.1828 -0.4096 -1.2601
 6053TIP3   OH239649   4.012   6.405   2.197 -0.5163 -0.2141  0.0417
 6053TIP3    H139650   4.059   6.460   2.135  1.0178  0.1109  1.4302
 6053TIP3    H239651   3.958   6.348   2.143 -1.4301  2.0082 -1.4548
 6054TIP3   OH239652   0.883   3.325   6.744 -0.1790 -0.1551 -0.7509
 6054TIP3    H139653   0.873   3.237   6.782  0.8979  0.9639  2.2659
 6054TIP3    H239654   0.803   3.371   6.770  0.1542  0.3513 -0.6240
 6055TIP3   OH239655   5.203   2.965  12.792  0.3087  0.0553  0.3284
 6055TIP3    H139656   5.248   3.044  12.764 -0.7880  0.7947  0.6169
 6055TIP3    H239657   5.254   2.893  12.755  0.8111  0.9223 -0.6712
 6056TIP3   OH239658   4.546   3.606  11.818 -0.4252 -0.2387  0.6199
 6056TIP3    H139659   4.454   3.591  11.794 -0.7393 -0.1874  1.7674
 6056TIP3    H239660   4.556   3.563  11.903  0.8713 -1.0779  0.0595
 6057TIP3   OH239661   4.585   0.129  13.333  0.0852 -0.0809 -0.1563
 6057TIP3    H139662   4.645   0.194  13.371 -1.1884  1.6178 -1.0207
 6057TIP3    H239663   4.639   0.082  13.270  0.5039  1.5145 -1.0226
 6058TIP3   OH239664   4.791   6.239   1.978 -0.1138  0.3358  0.4624
 6058TIP3    H139665   4.717   6.273   1.927  0.4509 -0.1509 -0.7137
 6058TIP3    H239666   4.770   6.146   1.990 -0.8498  0.7139  2.2243
 6059TIP3   OH239667   2.032   5.320  11.716  1.0793 -0.0788 -0.1449
 6059TIP3    H139668   2.085   5.382  11.665 -1.8622  2.6145 -0.0549
 6059TIP3    H239669   1.967   5.287  11.654  0.3975 -0.3664  0.7111
 6060TIP3   OH239670   6.729   3.918  12.132 -0.3418  0.2220  0.4017
 6060TIP3    H139671   6.801   3.884  12.185 -0.5963  1.2611  1.4224
 6060TIP3    H239672   6.766   3.926  12.044  1.0054  1.3865  1.0541
 6061TIP3   OH239673   5.598   4.565   3.467 -0.2211  0.2488 -0.3851
 6061TIP3    H139674   5.655   4.487   3.463 -0.4890 -0.0226  0.9229
 6061TIP3    H239675   5.572   4.580   3.377 -1.5088 -2.1818 -0.4405
 6062TIP3   OH239676   3.582   5.268  14.529  0.0985  0.3376  0.3316
 6062TIP3    H139677   3.636   5.234  14.458  0.6721  2.7415 -0.4189
 6062TIP3    H239678   3.506   5.305  14.485 -0.6256 -0.1516  1.1543
 6063TIP3   OH239679   5.225   4.883   4.503  0.0389  0.4709 -0.2614
 6063TIP3    H139680   5.228   4.883   4.407  2.0672  0.8219 -0.2258
 6063TIP3    H239681   5.261   4.968   4.528  0.1614  0.1024  0.8244
 6064TIP3   OH239682   4.226   4.671   1.206  0.0071  0.7225  0.2331
 6064TIP3    H139683   4.136   4.656   1.178  0.2533 -0.1868 -0.1046
 6064TIP3    H239684   4.236   4.615   1.283  0.6176 -0.0675 -0.4033
 6065TIP3   OH239685   3.278   1.152  12.877  0.5141  0.0965 -0.2777
 6065TIP3    H139686   3.204   1.110  12.920  0.8792 -1.1083 -0.7919
 6065TIP3    H239687   3.248   1.241  12.858 -0.1999  0.1464  1.0208
 6066TIP3   OH239688   6.135   3.362  14.307 -0.1584 -0.2908 -0.3404
 6066TIP3    H139689   6.199   3.347  14.377 -0.4310  1.5808  0.3282
 6066TIP3    H239690   6.051   3.337  14.345 -0.2847  0.5648 -0.0556
 6067TIP3   OH239691   6.110   2.478  12.636 -0.2858  0.2925  0.2913
 6067TIP3    H139692   6.057   2.404  12.667 -0.5320  0.1417 -0.4760
 6067TIP3    H239693   6.176   2.438  12.580  0.0876  0.5765  0.5232
 6068TIP3   OH239694   0.643   5.702  15.188 -0.5540 -0.3043 -0.4039
 6068TIP3    H139695   0.609   5.769  15.248  1.0686  1.1525 -1.0623
 6068TIP3    H239696   0.618   5.619  15.229 -1.1305  0.6806  1.3180
 6069TIP3   OH239697   2.278   1.916  13.611 -0.2513  0.1284  0.1315
 6069TIP3    H139698   2.238   1.977  13.673 -0.0723  0.1017  0.2715
 6069TIP3    H239699   2.237   1.831  13.632  0.9195 -0.1847  1.2241
 6070TIP3   OH239700   1.343   6.409  16.860 -0.1361  0.0178  0.3488
 6070TIP3    H139701   1.431   6.445  16.865 -0.7439  1.8748 -1.4908
 6070TIP3    H239702   1.342   6.357  16.779 -1.4217  2.0469 -0.9690
 6071TIP3   OH239703   5.908   0.982   2.284  0.6726 -0.0168  0.6058
 6071TIP3    H139704   5.902   0.913   2.349  0.3782  0.0958  0.7000
 6071TIP3    H239705   5.817   1.000   2.260  0.6121  1.8243  2.1499
 6072TIP3   OH239706   2.271   6.009   0.280 -0.0942 -0.5621 -0.5105
 6072TIP3    H139707   2.286   6.032   0.189 -0.2870  1.0473 -0.1524
 6072TIP3    H239708   2.344   6.050   0.327 -0.8456 -0.0891  0.2379
 6073TIP3   OH239709   6.595   0.989   1.458  0.3640  0.1353 -0.5750
 6073TIP3    H139710   6.529   1.002   1.526  0.0288 -0.9247 -0.6712
 6073TIP3    H239711   6.545   0.991   1.376  0.1075 -2.6237 -0.5382
 6074TIP3   OH239712   5.904   3.309   3.058  0.0334  0.3347  0.0108
 6074TIP3    H139713   5.874   3.394   3.024  1.6092  1.4122  1.2592
 6074TIP3    H239714   5.837   3.247   3.029 -1.0146  1.9608 -1.1379
 6075TIP3   OH239715   0.154   2.112   2.586  0.2545 -0.1021 -0.6692
 6075TIP3    H139716   0.176   2.157   2.667 -0.9498 -0.7887  0.0471
 6075TIP3    H239717   0.058   2.109   2.585  0.2870 -1.3936 -1.3958
 6076TIP3   OH239718   6.273   5.217  12.160  0.0303  0.3354  0.0761
 6076TIP3    H139719   6.244   5.170  12.082 -2.3131  0.6353  0.7307
 6076TIP3    H239720   6.323   5.152  12.210 -1.5391 -0.9043  0.0537
 6077TIP3   OH239721   4.296   1.907   3.740 -0.3925  0.0824  0.0191
 6077TIP3    H139722   4.210   1.927   3.702  0.0987 -1.9016 -2.2540
 6077TIP3    H239723   4.359   1.932   3.672  0.4616 -4.5592 -1.1173
 6078TIP3   OH239724   6.681   5.136   1.817  0.6451 -0.1763 -0.2924
 6078TIP3    H139725   6.655   5.044   1.807  0.5766 -0.0924 -0.9319
 6078TIP3    H239726   6.767   5.132   1.857  0.7873 -0.5341 -0.6245
 6079TIP3   OH239727   3.737   0.585  14.408  0.3021  0.2431  0.0118
 6079TIP3    H139728   3.823   0.567  14.370  0.5725  0.5475  0.4720
 6079TIP3    H239729   3.751   0.663  14.462 -0.1751  0.0706  0.3869
 6080TIP3   OH239730   2.755   1.285   6.326  0.0154 -0.2362  0.1714
 6080TIP3    H139731   2.796   1.311   6.244  1.4816  1.8737  1.5081
 6080TIP3    H239732   2.666   1.320   6.321 -0.4597 -1.6077 -1.2116
 6081TIP3   OH239733   2.510   2.096   0.735 -0.1801 -0.3516 -0.1786
 6081TIP3    H139734   2.553   2.172   0.773 -0.8955 -0.6233  1.2232
 6081TIP3    H239735   2.428   2.087   0.784 -0.5408 -1.4617 -0.9508
 6082TIP3   OH239736   4.617   1.521   0.480 -0.8820  0.0660 -0.2146
 6082TIP3    H139737   4.632   1.474   0.398 -1.3920 -1.5566  0.5866
 6082TIP3    H239738   4.677   1.479   0.542 -0.9255  0.8709  0.3730
 6083TIP3   OH239739   6.253   5.307  16.630  0.1214  0.3604 -0.0182
 6083TIP3    H139740   6.297   5.296  16.546  0.5088  0.6693  0.1375
 6083TIP3    H239741   6.285   5.392  16.662 -1.3244  1.0318 -0.3289
 6084TIP3   OH239742   1.674   2.334  12.577 -0.2371  0.6077 -0.9992
 6084TIP3    H139743   1.689   2.317  12.484  0.0544  0.7804 -0.9830
 6084TIP3    H239744   1.757   2.369  12.609  0.3295 -1.3450 -0.2199
 6085TIP3   OH239745   5.421   3.906   0.497  0.0499 -0.0441 -0.2350
 6085TIP3    H139746   5.490   3.850   0.460 -1.0335 -0.2828 -1.8949
 6085TIP3    H239747   5.366   3.929   0.423 -2.0456 -0.3745  1.1841
 6086TIP3   OH239748   4.035   5.121   0.404  0.3161 -0.0358  0.0397
 6086TIP3    H139749   4.090   5.154   0.333  1.7682 -0.1646  1.0750
 6086TIP3    H239750   4.058   5.176   0.479 -2.4621  1.2428  0.0085
 6087TIP3   OH239751   5.025   2.239  15.827  0.2346 -0.4554 -0.1836
 6087TIP3    H139752   5.085   2.303  15.788  2.0479 -0.4749  2.4569
 6087TIP3    H239753   4.964   2.291  15.878 -0.3829 -0.6154 -0.7572
 6088TIP3   OH239754   1.287   4.605  14.457  0.3085  0.2661 -0.5941
 6088TIP3    H139755   1.215   4.627  14.515  1.7702  0.1175  1.3447
 6088TIP3    H239756   1.304   4.685  14.407 -0.0194  0.8657  0.2480
 6089TIP3   OH239757   3.350   4.343  13.634 -0.2624  0.3013 -0.5097
 6089TIP3    H139758   3.260   4.371  13.652  0.5084  2.1333  0.6814
 6089TIP3    H239759   3.389   4.331  13.721  0.0890 -2.3936 -1.0109
 6090TIP3   OH239760   5.521   4.970   3.815  0.4017 -0.1391 -0.1473
 6090TIP3    H139761   5.534   5.013   3.899  2.0570  1.2693 -1.0567
 6090TIP3    H239762   5.441   5.009   3.780  0.2464  0.0015  0.3665
 6091TIP3   OH239763   0.906   1.562  15.906 -0.4457  1.0159 -0.0251
 6091TIP3    H139764   0.990   1.576  15.949 -0.2432 -0.6436  0.1546
 6091TIP3    H239765   0.926   1.555  15.813 -0.7261  3.2740 -0.2898
 6092TIP3   OH239766   0.263   1.126  12.766 -0.1149 -0.1654 -0.0085
 6092TIP3    H139767   0.182   1.101  12.722  0.2095  0.1844 -0.8116
 6092TIP3    H239768   0.312   1.044  12.775 -0.0107 -0.1813 -0.6678
 6093TIP3   OH239769   1.394   4.878  17.078  0.4396 -0.1976  0.8305
 6093TIP3    H139770   1.359   4.808  17.133 -0.5727 -0.1139  0.3109
 6093TIP3    H239771   1.477   4.902  17.119  0.0992 -0.7095  1.8340
 6094TIP3   OH239772   5.800   6.143  13.625 -0.5462  0.3136 -0.7547
 6094TIP3    H139773   5.876   6.199  13.643  0.4789 -1.4731  0.6072
 6094TIP3    H239774   5.836   6.054  13.625 -2.7121 -0.5791  0.2500
 6095TIP3   OH239775   1.273   1.689  11.100 -0.1792  0.2634 -0.2368
 6095TIP3    H139776   1.348   1.748  11.092 -0.2781  0.5301  0.6727
 6095TIP3    H239777   1.257   1.658  11.011  1.3708 -0.2381 -0.3521
 6096TIP3   OH239778   5.367   3.226  15.812  0.2216 -0.0191 -0.1201
 6096TIP3    H139779   5.385   3.281  15.737  0.0120 -1.6890 -1.4257
 6096TIP3    H239780   5.349   3.287  15.883  1.4552  1.5826 -1.1560
 6097TIP3   OH239781   1.397   0.939   4.081 -0.5736  0.0123 -0.0703
 6097TIP3    H139782   1.335   0.880   4.123  0.2734  0.2131  1.5023
 6097TIP3    H239783   1.404   1.014   4.140  1.0766  0.0352 -0.2601
 6098TIP3   OH239784   5.275   5.636  15.049  0.2810  0.4223 -0.4135
 6098TIP3    H139785   5.316   5.650  14.963  1.9117  1.1604  0.4565
 6098TIP3    H239786   5.256   5.724  15.081 -0.2203  0.1539  0.0252
 6099TIP3   OH239787   6.726   4.756   0.121 -0.2380 -0.0670 -0.1502
 6099TIP3    H139788   6.640   4.754   0.163 -0.3064 -1.4092 -0.3206
 6099TIP3    H239789   6.785   4.720   0.187 -0.4760 -2.9684 -1.4305
 6100TIP3   OH239790   3.158   0.087   2.947 -0.0765  0.2641 -0.4006
 6100TIP3    H139791   3.125   0.133   3.025  2.1759  0.1569  0.6438
 6100TIP3    H239792   3.089   0.098   2.882 -2.4241 -0.4180  1.8872
 6101TIP3   OH239793   3.907   4.292   2.422 -0.4052  0.6188 -0.6996
 6101TIP3    H139794   3.964   4.364   2.395  1.2478 -0.1530  0.6252
 6101TIP3    H239795   3.943   4.216   2.377 -1.6946  0.4829 -1.5161
 6102TIP3   OH239796   3.672   3.070  13.260  0.6453  0.3444  0.7088
 6102TIP3    H139797   3.578   3.060  13.244  1.2685 -0.7854 -2.8333
 6102TIP3    H239798   3.688   3.022  13.341 -1.4351 -1.6622 -0.0003
 6103TIP3   OH239799   6.155   2.196  15.385  0.3324  0.2567 -0.0164
 6103TIP3    H139800   6.187   2.205  15.296 -1.1955  0.2400 -0.5709
 6103TIP3    H239801   6.204   2.122  15.421  0.6606  0.0152 -0.9585
 6104TIP3   OH239802   3.248   2.621   3.886  0.3057  0.5824 -0.8519
 6104TIP3    H139803   3.204   2.573   3.816  0.0423  0.4231 -0.5780
 6104TIP3    H239804   3.239   2.713   3.862  1.6464  0.4722 -1.8797
 6105TIP3   OH239805   3.134   5.641  15.753  0.3003 -0.1205 -0.2143
 6105TIP3    H139806   3.064   5.595  15.800 -0.5655 -1.0051 -2.3015
 6105TIP3    H239807   3.184   5.572  15.710 -0.2140  0.7481 -2.3049
 6106TIP3   OH239808   1.545   2.816  17.128  0.0602  0.3828  0.5624
 6106TIP3    H139809   1.516   2.824  17.037  0.2251  1.2794  0.5879
 6106TIP3    H239810   1.640   2.818  17.123  0.0553  1.2838  0.8348
 6107TIP3   OH239811   4.419   2.796   6.574  0.0505  0.0331 -0.9913
 6107TIP3    H139812   4.372   2.730   6.523  0.4622  0.1024 -1.4690
 6107TIP3    H239813   4.508   2.760   6.584 -0.4854 -0.7923  1.1849
 6108TIP3   OH239814   0.812   6.563   0.828  0.3583  0.2468 -0.0329
 6108TIP3    H139815   0.755   6.538   0.755  0.2947  1.1480 -0.2980
 6108TIP3    H239816   0.836   6.654   0.810  1.9257 -0.1394  0.0607
 6109TIP3   OH239817   5.327   6.107   2.018 -0.2896 -0.4666 -0.2128
 6109TIP3    H139818   5.409   6.154   2.032 -2.5973  3.4904  0.8005
 6109TIP3    H239819   5.312   6.112   1.924 -0.2726  0.4446 -0.1714
 6110TIP3   OH239820   4.883   0.766   5.398 -0.4011  0.0709  0.0655
 6110TIP3    H139821   4.842   0.852   5.406  1.4185  0.8612  0.9773
 6110TIP3    H239822   4.943   0.775   5.324 -0.1060 -0.3883  0.2532
 6111TIP3   OH239823   4.258   0.316  17.149  0.3721 -0.2951 -0.1794
 6111TIP3    H139824   4.344   0.304  17.108  0.4226  1.6793 -0.7066
 6111TIP3    H239825   4.241   0.233  17.193  2.5721 -0.6997 -0.0212
 6112TIP3   OH239826   6.479   6.785  12.742  0.4372 -0.1077 -0.2815
 6112TIP3    H139827   6.520   6.869  12.766 -1.0194  0.2544  1.0554
 6112TIP3    H239828   6.500   6.727  12.815  0.6231 -0.6319 -0.7530
 6113TIP3   OH239829   4.234   3.654  15.871 -0.3645 -0.4594  0.8619
 6113TIP3    H139830   4.239   3.732  15.925  0.3372  1.1963 -1.5124
 6113TIP3    H239831   4.146   3.619  15.887 -1.3879  1.8880  0.5280
 6114TIP3   OH239832   3.601   3.453  13.200 -0.2625 -0.3500 -0.4153
 6114TIP3    H139833   3.612   3.547  13.211  0.6987 -0.5567  0.4528
 6114TIP3    H239834   3.657   3.431  13.125 -1.3843 -0.0603 -1.3600
 6115TIP3   OH239835   0.163   4.095  12.948 -0.2120 -0.5122  0.1571
 6115TIP3    H139836   0.164   4.001  12.930 -0.2262 -0.5741  0.4754
 6115TIP3    H239837   0.256   4.119  12.954 -0.2135 -0.5770  0.4435
 6116TIP3   OH239838   1.637   5.661  13.101 -0.2556  0.5862 -0.2865
 6116TIP3    H139839   1.553   5.634  13.063  0.9010 -0.4162 -2.2328
 6116TIP3    H239840   1.696   5.589  13.080  0.9180  0.9382  1.7495
 6117TIP3   OH239841   2.507   1.748  15.798 -0.2672  0.4138 -0.1657
 6117TIP3    H139842   2.546   1.778  15.880  0.3933 -0.3180 -0.2026
 6117TIP3    H239843   2.581   1.717  15.747 -0.6324  1.2224 -1.1974
 6118TIP3   OH239844   3.409   5.232   5.363  0.7991  1.2159  0.3495
 6118TIP3    H139845   3.408   5.163   5.429  2.5204  1.7625  0.9881
 6118TIP3    H239846   3.493   5.277   5.377  1.2937  1.2106 -2.3655
 6119TIP3   OH239847   4.876   3.881  16.332  0.1760 -0.0741  0.5071
 6119TIP3    H139848   4.902   3.844  16.416  0.4724  0.0011  0.4508
 6119TIP3    H239849   4.894   3.812  16.269 -0.5278 -0.3173  0.5690
 6120TIP3   OH239850   4.971   4.768   5.348  0.2985 -0.3408  0.0768
 6120TIP3    H139851   5.051   4.716   5.359  2.2900  3.0743  3.0040
 6120TIP3    H239852   4.916   4.744   5.423 -0.0267 -0.3498 -0.1641
 6121TIP3   OH239853   2.562   2.091  16.365 -0.2611  0.2132 -0.0171
 6121TIP3    H139854   2.476   2.101  16.406  0.8884  1.0562  2.2880
 6121TIP3    H239855   2.587   2.001  16.386 -0.6569 -0.0935 -0.8514
 6122TIP3   OH239856   4.020   6.737  12.090 -0.2435 -0.0354  0.1375
 6122TIP3    H139857   4.088   6.802  12.072 -0.3886  0.1537  0.2700
 6122TIP3    H239858   4.061   6.653  12.070  0.4344 -0.0204  1.3924
 6123TIP3   OH239859   4.475   0.986  12.787  0.0457 -0.1878 -0.0989
 6123TIP3    H139860   4.452   1.004  12.696  0.8799 -0.8451 -0.4377
 6123TIP3    H239861   4.569   0.969  12.786 -0.5354 -3.7551  0.3105
 6124TIP3   OH239862   2.262   4.158  13.384 -0.3359 -0.2587  0.0370
 6124TIP3    H139863   2.307   4.235  13.420 -0.0509 -0.7030  0.6246
 6124TIP3    H239864   2.323   4.122  13.320 -0.6532  0.2592 -0.5677
 6125TIP3   OH239865   1.257   0.971   2.947 -0.1685  0.2522  0.0393
 6125TIP3    H139866   1.210   1.049   2.977  1.0466  0.9522  0.1480
 6125TIP3    H239867   1.310   0.945   3.022  1.5263  0.9658 -0.8754
 6126TIP3   OH239868   0.597   3.796   0.416 -0.6722  0.0974  0.1422
 6126TIP3    H139869   0.646   3.780   0.497  2.7318 -0.6359 -2.0127
 6126TIP3    H239870   0.635   3.876   0.380 -1.3757 -0.2242 -1.3510
 6127TIP3   OH239871   0.167   5.334  13.858 -0.3863 -0.0302 -0.5175
 6127TIP3    H139872   0.146   5.241  13.860  0.9051 -0.3249 -0.2833
 6127TIP3    H239873   0.099   5.373  13.803 -0.4037 -1.2493 -1.3739
 6128TIP3   OH239874   0.535   6.228   1.909  0.1612 -0.1905 -0.1737
 6128TIP3    H139875   0.532   6.307   1.856  0.8845  0.2459  0.4253
 6128TIP3    H239876   0.590   6.168   1.859  1.3210  0.4249  0.3442
 6129TIP3   OH239877   5.162   6.692   0.880 -0.0190 -0.3584 -0.4448
 6129TIP3    H139878   5.158   6.667   0.788  0.2104  1.0606 -0.8508
 6129TIP3    H239879   5.131   6.782   0.882 -0.9136 -0.6711  0.9994
 6130TIP3   OH239880   2.649   3.290   3.236 -0.4241  0.4998  0.4742
 6130TIP3    H139881   2.707   3.226   3.277 -0.7706 -1.5171 -2.0552
 6130TIP3    H239882   2.649   3.365   3.296  1.3603 -1.1742  2.6377
 6131TIP3   OH239883   4.107   0.714   4.785 -0.3807  0.0344  0.0335
 6131TIP3    H139884   4.135   0.628   4.815  0.1395  1.0078  2.4259
 6131TIP3    H239885   4.016   0.722   4.814 -0.1407  0.6596  0.6175
 6132TIP3   OH239886   0.425   3.946   5.844  0.3158 -0.1539  0.1354
 6132TIP3    H139887   0.341   3.910   5.815  1.5930 -2.9685 -0.3117
 6132TIP3    H239888   0.435   3.914   5.934  0.7561  0.4396  0.3019
 6133TIP3   OH239889   3.109   1.083   0.429  0.2982 -0.1713  0.4388
 6133TIP3    H139890   3.124   1.154   0.491  1.8442 -1.2988  1.4053
 6133TIP3    H239891   3.183   1.088   0.368 -0.7482  0.3897 -0.7983
 6134TIP3   OH239892   1.243   0.722  14.390 -0.4132  0.0131  0.3471
 6134TIP3    H139893   1.235   0.629  14.367 -1.8352  0.9384 -3.1518
 6134TIP3    H239894   1.284   0.721  14.476  0.7002 -3.8373 -0.1149
 6135TIP3   OH239895   4.803   1.352  15.161 -0.0433  0.1692  0.0397
 6135TIP3    H139896   4.866   1.401  15.214 -0.2329 -2.1620  2.5330
 6135TIP3    H239897   4.852   1.325  15.084  1.4654  0.0397  1.0208
 6136TIP3   OH239898   4.307   6.613   1.827  0.5278  0.7912  0.0600
 6136TIP3    H139899   4.392   6.638   1.863  0.9549 -2.3118  1.3116
 6136TIP3    H239900   4.245   6.625   1.899  0.5789 -0.7615  0.3772
 6137TIP3   OH239901   1.217   0.728   1.941  0.1654 -0.5077  0.0645
 6137TIP3    H139902   1.195   0.671   2.015 -1.0475 -0.3004 -0.1312
 6137TIP3    H239903   1.253   0.668   1.875 -1.1956 -1.0880 -0.1809
 6138TIP3   OH239904   1.947   0.131  15.631 -0.0224 -0.0403  0.4214
 6138TIP3    H139905   1.884   0.079  15.680  0.8010 -0.1352  1.4079
 6138TIP3    H239906   1.947   0.094  15.544  0.4593 -1.6125  1.0788
 6139TIP3   OH239907   3.202   5.857   2.693  0.0433  0.5253 -0.4757
 6139TIP3    H139908   3.141   5.837   2.622 -0.0483  0.8832 -0.5022
 6139TIP3    H239909   3.205   5.953   2.694 -1.6041  0.5947  1.3843
 6140TIP3   OH239910   3.949   0.915  11.765 -0.2440  0.1100  0.2169
 6140TIP3    H139911   3.981   1.005  11.760  0.3214 -0.1977 -1.8290
 6140TIP3    H239912   3.919   0.895  11.677  1.6312 -2.4417  0.1138
 6141TIP3   OH239913   4.844   1.426  12.302 -0.6900  0.7410 -0.4966
 6141TIP3    H139914   4.756   1.399  12.328 -1.4062  1.9265 -1.6742
 6141TIP3    H239915   4.849   1.408  12.208  0.9937 -1.0552 -0.1304
 6142TIP3   OH239916   3.778   4.324   4.065 -0.1666 -0.3079 -0.2714
 6142TIP3    H139917   3.846   4.257   4.058 -1.3515 -1.4301 -1.0548
 6142TIP3    H239918   3.727   4.316   3.985 -0.9078  0.8999  0.0621
 6143TIP3   OH239919   0.175   6.022   3.674 -0.4472 -0.4972 -0.2537
 6143TIP3    H139920   0.234   6.065   3.737 -0.2502 -1.5747  0.3058
 6143TIP3    H239921   0.228   6.011   3.595 -0.4781  0.2125 -0.3826
 6144TIP3   OH239922   1.761   2.887   6.068 -0.7367  0.4794 -0.6919
 6144TIP3    H139923   1.690   2.894   6.132 -1.6244 -0.2943 -1.5776
 6144TIP3    H239924   1.837   2.860   6.119 -0.9618  1.7491  0.3432
 6145TIP3   OH239925   3.323   3.680  11.651 -0.0441 -0.2367 -0.1204
 6145TIP3    H139926   3.273   3.732  11.587 -0.9478 -0.8542  0.0804
 6145TIP3    H239927   3.354   3.744  11.715  0.0205  0.2491 -0.6346
 6146TIP3   OH239928   0.872   1.852   6.127  0.9156  0.0295 -1.1056
 6146TIP3    H139929   0.936   1.781   6.132  0.7255 -0.2169 -2.0508
 6146TIP3    H239930   0.922   1.927   6.095  1.3036  0.5641  0.7228
 6147TIP3   OH239931   4.540   1.418  14.754  0.1621  0.0132 -0.0692
 6147TIP3    H139932   4.607   1.485  14.740 -1.8199  1.9423 -0.5613
 6147TIP3    H239933   4.546   1.361  14.677  0.4869  0.8229 -0.6521
 6148TIP3   OH239934   4.131   5.533  14.162 -0.0744 -0.6749 -0.1171
 6148TIP3    H139935   4.093   5.454  14.123 -0.3140 -1.0414  0.8299
 6148TIP3    H239936   4.161   5.504  14.248  0.4183  0.1219 -0.0233
 6149TIP3   OH239937   2.564   4.516   0.445  0.0787  0.1175 -0.6958
 6149TIP3    H139938   2.581   4.433   0.400  0.9030 -0.8676  1.3946
 6149TIP3    H239939   2.650   4.559   0.449  0.2700 -0.3958  1.0818
 6150TIP3   OH239940   2.708   1.967  14.206  0.3421 -0.4060  0.2579
 6150TIP3    H139941   2.742   1.885  14.242 -0.2239 -0.8240 -0.1551
 6150TIP3    H239942   2.666   1.941  14.124 -0.3228  0.2094  0.3990
 6151TIP3   OH239943   1.102   3.340  13.251 -0.3615 -0.6609 -0.4858
 6151TIP3    H139944   1.061   3.285  13.184 -0.9800  0.5617 -1.1296
 6151TIP3    H239945   1.125   3.279  13.321 -0.0277 -1.9167 -1.6488
 6152TIP3   OH239946   1.580   1.308   2.768  0.0622  0.6957  0.1434
 6152TIP3    H139947   1.541   1.223   2.746 -1.4196  1.2298  0.6430
 6152TIP3    H239948   1.674   1.295   2.755 -0.3486 -0.3325 -2.0575
 6153TIP3   OH239949   5.867   6.779  13.006 -0.3361 -0.1227  0.1437
 6153TIP3    H139950   5.879   6.869  12.975  1.7461 -0.9081 -1.4563
 6153TIP3    H239951   5.784   6.752  12.968  0.1890  0.3308 -1.3850
 6154TIP3   OH239952   5.761   1.815  13.472  0.1754  0.4641 -0.2833
 6154TIP3    H139953   5.790   1.787  13.559  3.4813 -0.7301 -1.6798
 6154TIP3    H239954   5.755   1.910  13.478  3.0876  0.6530  0.5422
 6155TIP3   OH239955   2.525   2.484  10.816  0.2622 -0.5250 -0.0733
 6155TIP3    H139956   2.474   2.560  10.842  0.7156 -0.7096  1.3613
 6155TIP3    H239957   2.460   2.422  10.783 -0.4109 -0.6116  1.3916
 6156TIP3   OH239958   3.792   5.745  12.776  0.2061 -0.3586 -0.6566
 6156TIP3    H139959   3.812   5.835  12.752  1.3464 -0.3553  0.2707
 6156TIP3    H239960   3.701   5.747  12.805  0.9347  0.9864  1.6652
 6157TIP3   OH239961   6.703   3.580  14.265  0.3096  0.7273 -0.4229
 6157TIP3    H139962   6.656   3.663  14.256  0.9482  1.1935  0.5041
 6157TIP3    H239963   6.688   3.553  14.355 -0.4262 -0.4950 -0.9078
 6158TIP3   OH239964   4.230   0.470  13.883 -0.2600  0.2307 -0.2423
 6158TIP3    H139965   4.270   0.534  13.824 -2.2538 -1.0349 -3.1068
 6158TIP3    H239966   4.160   0.430  13.831 -2.3835 -0.6860  3.1420
 6159TIP3   OH239967   4.053   5.040   5.442  0.0428 -0.2164 -0.5118
 6159TIP3    H139968   4.003   5.044   5.523  0.9537  0.5662  0.0199
 6159TIP3    H239969   4.133   4.993   5.464 -0.0786 -0.7320 -1.1557
 6160TIP3   OH239970   4.553   5.007   0.842  0.7530 -0.1461 -0.1185
 6160TIP3    H139971   4.646   4.986   0.834  0.9304  0.6382 -0.1048
 6160TIP3    H239972   4.546   5.098   0.814  0.0189 -0.1420  0.0717
 6161TIP3   OH239973   0.160   3.839  16.762 -0.0019  0.3006  0.3109
 6161TIP3    H139974   0.072   3.854  16.728 -0.8704 -0.4015  2.1912
 6161TIP3    H239975   0.149   3.774  16.831  2.2421 -1.0509 -0.5554
 6162TIP3   OH239976   0.040   5.945   4.429 -0.1521  0.2055 -0.0849
 6162TIP3    H139977   0.100   5.990   4.489  0.1717  0.0011 -0.2526
 6162TIP3    H239978   0.072   5.855   4.427 -0.8893 -0.0752  0.3665
 6163TIP3   OH239979   6.018   4.012   1.228  0.2427  0.0382  0.1037
 6163TIP3    H139980   6.105   4.050   1.215  0.8477 -1.0363  0.8949
 6163TIP3    H239981   5.988   3.990   1.140  0.3529  1.2862 -0.2606
 6164TIP3   OH239982   6.811   4.649   1.932 -0.0996  0.1094 -0.1690
 6164TIP3    H139983   6.872   4.576   1.941 -0.1319  0.0415 -0.4983
 6164TIP3    H239984   6.783   4.668   2.022 -0.4284 -0.5694 -0.1230
 6165TIP3   OH239985   0.404   2.597  14.210 -0.0481  0.0923  0.2598
 6165TIP3    H139986   0.338   2.586  14.141  0.3283 -1.1085  0.0831
 6165TIP3    H239987   0.357   2.638  14.282 -0.1446  2.6919 -1.2039
 6166TIP3   OH239988   2.380   5.208   3.954  0.1041 -0.4932  0.4208
 6166TIP3    H139989   2.456   5.152   3.939 -0.2592 -0.5441 -1.3052
 6166TIP3    H239990   2.415   5.283   4.001  1.4687  0.0263 -1.3639
 6167TIP3   OH239991   5.049   2.824   4.095 -0.2009  0.3086  0.0016
 6167TIP3    H139992   4.983   2.892   4.110  0.0447  0.8767 -1.3842
 6167TIP3    H239993   5.041   2.804   4.002  0.2626 -1.0169  0.2501
 6168TIP3   OH239994   4.510   2.522  14.208  0.0485 -0.0336 -0.1925
 6168TIP3    H139995   4.431   2.467  14.211 -0.6111  0.9967  2.6989
 6168TIP3    H239996   4.539   2.527  14.299  2.1520  1.4942 -0.9288
 6169TIP3   OH239997   5.152   3.856   2.725 -0.2540 -1.4437  0.3960
 6169TIP3    H139998   5.119   3.907   2.651  1.4538  0.0279  0.6330
 6169TIP3    H239999   5.074   3.812   2.760 -2.1209  2.4959  1.3921
 6170TIP3   OH240000   3.008   1.459  17.263 -0.5179  0.5901 -0.0044
 6170TIP3    H140001   3.056   1.493  17.187 -0.3862 -1.2320 -0.7508
 6170TIP3    H240002   2.998   1.366  17.245  1.3086 -0.2959  3.1789
 6171TIP3   OH240003   5.872   6.072   5.440 -0.2416  0.4543 -0.2065
 6171TIP3    H140004   5.951   6.019   5.429 -1.1478 -0.7338 -1.2447
 6171TIP3    H240005   5.887   6.149   5.386 -0.2027 -0.2703 -1.2608
 6172TIP3   OH240006   3.858   3.193  13.565 -0.0474 -0.0184 -0.1178
 6172TIP3    H140007   3.836   3.237  13.648  0.8204 -2.5693  1.5030
 6172TIP3    H240008   3.776   3.193  13.516 -0.0553  3.5107 -0.2605
 6173TIP3   OH240009   4.715   2.732  13.522  0.6023 -0.6037  0.6451
 6173TIP3    H140010   4.735   2.743  13.429  0.4914  2.7755  0.9708
 6173TIP3    H240011   4.620   2.720  13.524  0.8343 -2.7738  0.2064
 6174TIP3   OH240012   3.057   1.272  14.588  0.2726 -0.2358  0.6568
 6174TIP3    H140013   3.069   1.215  14.663  0.1513  1.1149  1.7249
 6174TIP3    H240014   2.962   1.286  14.583  0.4133  0.9814  1.2546
 6175TIP3   OH240015   0.867   0.402  16.292 -0.1954 -0.2946 -0.0927
 6175TIP3    H140016   0.817   0.321  16.300 -1.1173  0.4947  2.2758
 6175TIP3    H240017   0.806   0.471  16.314  1.0402  0.9535 -0.5057
 6176TIP3   OH240018   3.448   5.788  15.871 -0.1728  0.0441 -0.0822
 6176TIP3    H140019   3.489   5.709  15.907  1.3588 -0.0750 -1.9645
 6176TIP3    H240020   3.458   5.778  15.776  1.5287  3.2519 -0.3203
 6177TIP3   OH240021   6.466   2.697  16.659  0.3890  0.2370 -0.3413
 6177TIP3    H140022   6.483   2.608  16.627 -0.1943  0.3750 -1.0473
 6177TIP3    H240023   6.528   2.709  16.730  0.6505 -0.6467 -0.4141
 6178TIP3   OH240024   3.927   0.241   0.164 -0.1256  0.1992  0.1216
 6178TIP3    H140025   3.942   0.309   0.098 -1.7407  0.8799  0.4322
 6178TIP3    H240026   3.947   0.284   0.247  1.8124 -0.6290  0.1080
 6179TIP3   OH240027   1.362   4.169   0.445 -0.0053 -0.3834  0.4274
 6179TIP3    H140028   1.327   4.173   0.356  3.0942  0.2254 -0.8351
 6179TIP3    H240029   1.410   4.252   0.455  0.1416 -0.6905  2.4622
 6180TIP3   OH240030   0.648   2.614  10.505  0.0349 -0.2422 -0.5962
 6180TIP3    H140031   0.741   2.617  10.485  0.3739 -1.7365  0.6424
 6180TIP3    H240032   0.607   2.578  10.427  0.3777  1.1587 -1.4422
 6181TIP3   OH240033   4.920   0.391   2.774  0.4436  0.1179 -0.7572
 6181TIP3    H140034   4.907   0.297   2.785  2.7215 -0.5110 -2.8668
 6181TIP3    H240035   4.984   0.414   2.842  0.7530 -0.1148 -0.9650
 6182TIP3   OH240036   1.995   1.202  13.001  0.0052  0.1703 -0.1387
 6182TIP3    H140037   2.017   1.235  13.088 -0.8773  0.3654  0.0125
 6182TIP3    H240038   2.024   1.270  12.941  1.6158 -0.4399 -0.0839
 6183TIP3   OH240039   4.498   6.545   3.368  0.1771  0.0812 -0.0187
 6183TIP3    H140040   4.414   6.511   3.398  0.7745 -1.2306  0.2295
 6183TIP3    H240041   4.557   6.534   3.442  0.5380  1.1229 -0.1448
 6184TIP3   OH240042   2.437   2.342   2.763 -0.2681  0.5617  0.6049
 6184TIP3    H140043   2.519   2.390   2.748 -0.0107  0.4089  1.5330
 6184TIP3    H240044   2.392   2.346   2.678  1.4351 -0.7619 -0.3904
 6185TIP3   OH240045   1.221   2.689   3.831 -0.1974 -0.1155  0.0339
 6185TIP3    H140046   1.184   2.765   3.786 -0.4906  0.5610  1.3800
 6185TIP3    H240047   1.303   2.720   3.868 -0.4848 -0.3285  0.8875
 6186TIP3   OH240048   1.764   4.528  11.719  0.2443 -0.4941 -0.0243
 6186TIP3    H140049   1.796   4.608  11.678  0.0222 -0.0666  0.6136
 6186TIP3    H240050   1.670   4.544  11.731  0.4296 -0.3069  1.2934
 6187TIP3   OH240051   4.958   5.412   4.826 -0.1795 -0.0769  0.4665
 6187TIP3    H140052   5.015   5.461   4.766 -1.0670  0.5955  0.1455
 6187TIP3    H240053   4.975   5.320   4.806  1.6011  0.0823  1.1606
 6188TIP3   OH240054   1.095   3.326  15.112  0.3047  0.1300 -0.4318
 6188TIP3    H140055   1.025   3.318  15.177  0.2215  1.4308 -0.3429
 6188TIP3    H240056   1.056   3.294  15.030  1.1964 -4.0012  0.6232
 6189TIP3   OH240057   4.249   5.274   5.856 -0.1724 -0.5573 -0.1596
 6189TIP3    H140058   4.214   5.213   5.791 -1.4377 -1.5097  1.3543
 6189TIP3    H240059   4.231   5.361   5.820 -0.9419 -1.0699 -1.0402
 6190TIP3   OH240060   6.355   4.256  11.243 -0.1799 -0.0633 -0.5064
 6190TIP3    H140061   6.336   4.345  11.211 -2.4217 -0.2360  0.2236
 6190TIP3    H240062   6.408   4.269  11.321  0.4379  0.5921 -1.0318
 6191TIP3   OH240063   0.035   5.710  15.777 -0.6277  0.4662  0.2257
 6191TIP3    H140064   0.093   5.651  15.824  0.5279  0.7702 -0.7977
 6191TIP3    H240065  -0.052   5.673  15.789 -0.0460 -0.8229  0.5212
 6192TIP3   OH240066   4.983   5.243  14.886 -0.1355 -0.4665  0.4331
 6192TIP3    H140067   5.051   5.288  14.838  0.4847  0.7867  2.4209
 6192TIP3    H240068   4.901   5.286  14.859  0.1533 -0.0883  0.1642
 6193TIP3   OH240069   4.688   0.226   0.969 -0.1908 -0.2399  0.1087
 6193TIP3    H140070   4.639   0.263   1.042  2.1542  1.3962  0.9158
 6193TIP3    H240071   4.690   0.295   0.903 -0.2138 -0.8180 -0.5048
 6194TIP3   OH240072   1.639   1.115  11.687 -0.6341  1.0919  0.3073
 6194TIP3    H140073   1.702   1.103  11.617 -0.7959  0.3395  0.2879
 6194TIP3    H240074   1.600   1.028  11.700 -0.3639  1.1328  1.5464
 6195TIP3   OH240075   5.861   2.921  15.665  0.4174 -0.3621 -0.0694
 6195TIP3    H140076   5.816   2.935  15.748  2.6763 -0.4702  1.2195
 6195TIP3    H240077   5.930   2.987  15.664  0.0835 -0.0255 -2.1294
 6196TIP3   OH240078   1.329   4.612  15.505  0.5110 -0.1784  0.0147
 6196TIP3    H140079   1.341   4.560  15.425 -0.9007 -1.5281  0.6571
 6196TIP3    H240080   1.249   4.578  15.544  0.4596  1.3907  1.3195
 6197TIP3   OH240081   1.004   5.716   1.972  0.1001  0.2619 -0.4470
 6197TIP3    H140082   1.073   5.763   1.924  0.4674  0.3102  0.1254
 6197TIP3    H240083   0.969   5.781   2.033  2.0643 -0.7676  1.8565
 6198TIP3   OH240084   0.859   3.432   0.243  0.2962  0.9002 -0.0865
 6198TIP3    H140085   0.947   3.407   0.271 -0.3305 -1.3196  0.0461
 6198TIP3    H240086   0.807   3.429   0.323 -0.3731 -0.1355 -0.5462
 6199TIP3   OH240087   6.465   2.421  15.059  0.2080  0.3292  0.4471
 6199TIP3    H140088   6.528   2.477  15.014 -0.7072  0.5807 -0.5460
 6199TIP3    H240089   6.411   2.483  15.110 -1.1314  0.4376 -1.0510
 6200TIP3   OH240090   5.415   3.413  17.065 -0.8738  0.1417 -0.5037
 6200TIP3    H140091   5.464   3.407  16.983  0.3631  0.5721  0.1955
 6200TIP3    H240092   5.419   3.325  17.102  1.6731  0.8058  0.8530
 6201TIP3   OH240093   3.582   0.660   4.255 -0.6738 -0.4370  0.5651
 6201TIP3    H140094   3.511   0.715   4.223  0.1364  0.3830  0.1655
 6201TIP3    H240095   3.619   0.620   4.177 -0.2019 -0.2570  0.6950
 6202TIP3   OH240096   5.803   3.949  15.735  0.0986  0.0670 -0.0646
 6202TIP3    H140097   5.750   3.892  15.790 -0.6830  2.3533  1.5590
 6202TIP3    H240098   5.752   3.959  15.654 -0.4543 -0.2722  0.2435
 6203TIP3   OH240099   1.911   2.145   2.551  0.2554 -0.0738  0.2614
 6203TIP3    H140100   1.939   2.215   2.493  0.2512 -0.2958 -0.0096
 6203TIP3    H240101   1.992   2.112   2.590  0.3707 -0.7187 -0.5254
 6204TIP3   OH240102   5.020   6.574   0.394  0.5444  0.6897 -0.6205
 6204TIP3    H140103   4.962   6.644   0.423 -2.7034 -1.7609 -1.0194
 6204TIP3    H240104   5.033   6.592   0.301  1.9768  2.2681 -0.1455
 6205TIP3   OH240105   5.921   6.589   3.480 -0.6375  0.0874 -0.4276
 6205TIP3    H140106   5.853   6.649   3.510 -0.6410  0.7688 -1.7417
 6205TIP3    H240107   5.875   6.529   3.421 -0.3095 -0.0903 -0.5036
 6206TIP3   OH240108   2.938   3.382  16.846  0.2961  0.2007  0.4687
 6206TIP3    H140109   3.010   3.320  16.852  0.0643  0.0288  1.6386
 6206TIP3    H240110   2.907   3.392  16.936 -1.1640  0.2474 -0.0185
 6207TIP3   OH240111   4.997   6.178  13.902  0.1336  0.3543 -0.1927
 6207TIP3    H140112   4.912   6.146  13.870  0.1855  0.0769 -0.0512
 6207TIP3    H240113   5.003   6.267  13.868 -1.3632  1.3013  1.9408
 6208TIP3   OH240114   1.209   0.944   5.894  0.2843 -0.5228 -0.8462
 6208TIP3    H140115   1.142   0.878   5.874 -0.3386 -0.0063 -0.4996
 6208TIP3    H240116   1.274   0.935   5.824  0.2821 -1.6094 -0.7137
 6209TIP3   OH240117   2.774   5.818   4.729 -0.1678  0.4766  0.4245
 6209TIP3    H140118   2.788   5.726   4.748  2.2527  1.0556  1.6977
 6209TIP3    H240119   2.778   5.824   4.633  1.0566 -0.5281  0.4025
 6210TIP3   OH240120   5.744   1.258   0.693  0.3279 -0.2697 -0.0239
 6210TIP3    H140121   5.724   1.181   0.639 -0.0418 -0.0569 -0.1926
 6210TIP3    H240122   5.677   1.322   0.670  2.3304  1.1906 -2.0888
 6211TIP3   OH240123   0.404   0.041  11.416  0.6115  0.3092 -0.0560
 6211TIP3    H140124   0.467   0.092  11.366  1.3832 -0.2763  0.3187
 6211TIP3    H240125   0.452  -0.036  11.445 -0.7051 -0.9497 -1.1297
 6212TIP3   OH240126   3.260   6.417   5.744  0.9997 -0.1063  0.5937
 6212TIP3    H140127   3.250   6.469   5.824 -1.9819 -0.7843  0.7216
 6212TIP3    H240128   3.174   6.420   5.703  1.9863 -1.3409 -1.6574
 6213TIP3   OH240129   3.075   3.412  14.619 -0.6211  0.4507 -0.5057
 6213TIP3    H140130   3.104   3.389  14.530  0.2728 -0.3710 -0.0059
 6213TIP3    H240131   3.151   3.396  14.674 -1.6380 -0.5333  0.6388
 6214TIP3   OH240132   3.135   1.943   6.014  0.2340 -0.1549 -0.1242
 6214TIP3    H140133   3.073   1.906   5.951  0.7320  0.0740 -0.7548
 6214TIP3    H240134   3.092   1.933   6.099 -1.2384  1.1897 -0.6959
 6215TIP3   OH240135   6.776   6.491  13.982 -0.2188 -0.2490 -0.0545
 6215TIP3    H140136   6.861   6.494  14.026  0.1442 -1.5289 -0.6605
 6215TIP3    H240137   6.768   6.401  13.951 -2.1801 -0.3709  0.7470
 6216TIP3   OH240138   2.904   1.471   5.707  0.0841  0.4797  0.0110
 6216TIP3    H140139   2.950   1.387   5.718  1.5781  1.3735  0.6643
 6216TIP3    H240140   2.904   1.510   5.794 -0.4726  1.2433 -0.3300
 6217TIP3   OH240141   0.610   1.858   2.050 -0.2999 -0.0556 -0.0973
 6217TIP3    H140142   0.594   1.860   2.144  0.7116  0.2167  0.0746
 6217TIP3    H240143   0.641   1.769   2.033 -2.7510 -0.8534 -0.5687
 6218TIP3   OH240144   0.463   2.903   6.468 -0.4741 -0.4630 -0.3793
 6218TIP3    H140145   0.456   2.810   6.447  0.7514 -0.6071 -0.1830
 6218TIP3    H240146   0.555   2.925   6.449 -0.5494  0.5095  0.3591
 6219TIP3   OH240147   2.566   0.859   5.576  0.3701 -0.1424  0.1183
 6219TIP3    H140148   2.535   0.787   5.631  0.3654  0.8462  1.4313
 6219TIP3    H240149   2.651   0.883   5.613  0.3825  0.5139 -0.3241
 6220TIP3   OH240150   2.478   5.291   0.794 -0.1625  0.7139 -0.0385
 6220TIP3    H140151   2.412   5.313   0.860 -2.4335 -0.2812 -1.8995
 6220TIP3    H240152   2.475   5.365   0.732 -0.7497 -0.1065 -1.0119
 6221TIP3   OH240153   3.532   6.207  12.622  0.0903 -0.2471 -0.2998
 6221TIP3    H140154   3.616   6.249  12.641  0.2578 -0.5829 -0.2885
 6221TIP3    H240155   3.553   6.114  12.615 -0.5387 -0.5087  1.1957
 6222TIP3   OH240156   1.367   2.292  11.775  0.1283 -1.0232  0.1718
 6222TIP3    H140157   1.287   2.331  11.810  0.6450 -0.9912  1.3272
 6222TIP3    H240158   1.337   2.215  11.727 -0.7106 -0.2851 -0.4925
 6223TIP3   OH240159   3.712   4.243   3.786  0.3972 -0.0445 -0.2825
 6223TIP3    H140160   3.693   4.320   3.733  2.7514  0.5509 -0.3203
 6223TIP3    H240161   3.672   4.170   3.739  1.2615  0.6804 -2.1788
 6224TIP3   OH240162   1.613   2.752  16.661 -0.1672 -0.3369  0.3664
 6224TIP3    H140163   1.529   2.736  16.618 -0.7691  0.5157  1.2068
 6224TIP3    H240164   1.670   2.785  16.592 -0.4062 -1.2916 -0.2913
 6225TIP3   OH240165   0.313   6.454   1.689  0.0029 -0.4265 -0.4496
 6225TIP3    H140166   0.408   6.451   1.697 -0.0883 -0.0943  0.8876
 6225TIP3    H240167   0.291   6.547   1.693 -0.4592 -0.5672  0.3506
 6226TIP3   OH240168   1.098   3.626  13.852  0.4181  0.3284 -0.4357
 6226TIP3    H140169   1.097   3.599  13.760  1.1906 -0.6127 -0.1811
 6226TIP3    H240170   1.117   3.719  13.850 -2.4943  0.9617 -1.3593
 6227TIP3   OH240171   2.199   0.391  12.409  0.4386 -0.3419 -0.1691
 6227TIP3    H140172   2.292   0.373  12.424  0.2403 -0.4580  0.9308
 6227TIP3    H240173   2.160   0.306  12.391  0.0078 -0.7292  2.3366
 6228TIP3   OH240174   5.794   5.935   0.982  0.5053  0.1327  0.4547
 6228TIP3    H140175   5.748   5.933   1.066  0.3764  1.5729  0.4203
 6228TIP3    H240176   5.857   5.863   0.988  0.0634 -0.1823  1.5317
 6229TIP3   OH240177   0.188   1.732   2.063  0.0528  0.8479  0.1855
 6229TIP3    H140178   0.196   1.638   2.080  0.8441  0.7359 -0.7820
 6229TIP3    H240179   0.232   1.774   2.137 -1.9140  0.5075  1.5807
 6230TIP3   OH240180   2.976   4.218  12.632  0.2931  0.5817  0.1336
 6230TIP3    H140181   3.016   4.197  12.717  1.2684  0.6576 -0.2960
 6230TIP3    H240182   3.002   4.146  12.575 -1.1130  0.0731  0.1268
 6231TIP3   OH240183   5.644   2.435  12.872 -0.9358  0.0593 -0.2979
 6231TIP3    H140184   5.614   2.525  12.884  0.8753  0.6649 -0.0840
 6231TIP3    H240185   5.724   2.443  12.820 -1.6158 -1.5621 -1.6637
 6232TIP3   OH240186   4.073   5.689   4.310 -0.4038 -0.7190 -0.1458
 6232TIP3    H140187   4.147   5.750   4.315 -1.2111  0.3419 -0.9422
 6232TIP3    H240188   4.066   5.654   4.398 -0.0448  0.4938  0.3865
 6233TIP3   OH240189   6.026   4.545   0.021 -0.3395 -0.1815  0.0495
 6233TIP3    H140190   5.950   4.594  -0.010  0.8966  1.8859  0.1698
 6233TIP3    H240191   5.990   4.470   0.067 -2.2792  0.1552 -0.8899
 6234TIP3   OH240192   0.793   2.170   3.688  0.0889 -0.1977  0.0941
 6234TIP3    H140193   0.812   2.178   3.781  0.3300  0.1872  0.0108
 6234TIP3    H240194   0.870   2.206   3.644  0.5363 -1.5385 -0.2701
 6235TIP3   OH240195   5.819   1.470  12.417 -0.2505 -0.1101 -0.7646
 6235TIP3    H140196   5.899   1.518  12.397  0.2249  0.0162  1.3155
 6235TIP3    H240197   5.751   1.537  12.421 -0.1020  0.0317 -0.6244
 6236TIP3   OH240198   2.488   4.035  13.311 -0.1011 -0.2595 -0.3322
 6236TIP3    H140199   2.513   4.051  13.220 -0.7030  2.2447 -0.1064
 6236TIP3    H240200   2.555   4.079  13.363 -1.3906  0.9333  0.3700
 6237TIP3   OH240201   4.470   6.696   4.844  0.0346 -0.2938  0.1918
 6237TIP3    H140202   4.481   6.787   4.872  0.9413 -0.3447  0.0051
 6237TIP3    H240203   4.520   6.645   4.908  0.7520 -0.5422 -0.5702
 6238TIP3   OH240204   4.707   1.300  13.095 -0.1990  0.1274  0.3367
 6238TIP3    H140205   4.704   1.274  13.188 -0.4182 -1.5869 -0.1308
 6238TIP3    H240206   4.729   1.219  13.049 -3.1729  0.2163 -1.3877
 6239TIP3   OH240207   2.455   6.538  13.266  0.2027  0.3874  0.2180
 6239TIP3    H140208   2.390   6.595  13.306  1.3542  0.4275  2.1236
 6239TIP3    H240209   2.490   6.487  13.339  1.3780 -0.5618 -0.9761
 6240TIP3   OH240210   6.587   4.642  14.456 -0.4054  0.2422  0.2308
 6240TIP3    H140211   6.579   4.560  14.506  0.4970  0.9755  1.5847
 6240TIP3    H240212   6.522   4.700  14.495 -0.3637  0.5088 -0.0939
 6241TIP3   OH240213   2.321   2.594  13.865  0.0753 -0.1002 -0.4856
 6241TIP3    H140214   2.335   2.622  13.955 -0.5591  1.9985 -1.0043
 6241TIP3    H240215   2.262   2.519  13.871 -1.7276  1.4007  0.7253
 6242TIP3   OH240216   5.441   1.758   0.957 -0.1181  0.2526  0.0228
 6242TIP3    H140217   5.523   1.796   0.989  0.3383  1.8526 -2.9159
 6242TIP3    H240218   5.466   1.671   0.924  0.1896  0.3429  0.0159
 6243TIP3   OH240219   2.036   5.678   3.207 -0.0208 -0.0020  0.1481
 6243TIP3    H140220   2.080   5.637   3.281  0.0260  1.3550  0.8844
 6243TIP3    H240221   2.011   5.765   3.238 -1.0991  0.1367 -1.0315
 6244TIP3   OH240222   5.583   1.364  14.263  0.3799  0.4085 -0.6417
 6244TIP3    H140223   5.545   1.277  14.269  1.0395 -0.0375 -2.5754
 6244TIP3    H240224   5.669   1.350  14.224  0.2435  1.9843 -1.5409
 6245TIP3   OH240225   3.691   1.043  12.158 -0.0590  0.2453  0.1471
 6245TIP3    H140226   3.738   1.062  12.077  0.0731  0.8271  0.3531
 6245TIP3    H240227   3.628   1.115  12.167  0.6670  0.7737  1.1135
 6246TIP3   OH240228   4.718   5.589  15.838 -0.3781  0.0874  0.4090
 6246TIP3    H140229   4.647   5.649  15.864 -0.8399 -0.1905 -0.1876
 6246TIP3    H240230   4.701   5.572  15.745  2.0334  2.1625 -0.4694
 6247TIP3   OH240231   4.084   4.804   2.516 -0.1493  0.2903  0.1071
 6247TIP3    H140232   4.143   4.875   2.541 -0.7277  1.2540 -1.1819
 6247TIP3    H240233   4.134   4.724   2.530  0.1069  0.8596  2.7410
 6248TIP3   OH240234   6.419   1.273  16.143 -0.2784 -0.5768  0.1230
 6248TIP3    H140235   6.365   1.285  16.221 -1.5459  0.7590 -0.9171
 6248TIP3    H240236   6.364   1.219  16.085  0.5982 -1.4561  0.1101
 6249TIP3   OH240237   4.040   3.426   2.584 -0.3294 -0.1353  0.5402
 6249TIP3    H140238   3.975   3.376   2.633 -0.3311 -0.0139  0.6606
 6249TIP3    H240239   4.052   3.376   2.503 -1.1265  0.2392  0.1851
 6250TIP3   OH240240   4.661   5.582  11.121 -0.6409  0.1124 -0.2983
 6250TIP3    H140241   4.603   5.507  11.134  0.3553 -0.3703  1.7032
 6250TIP3    H240242   4.704   5.565  11.038 -0.3257 -1.6375  0.2022
 6251TIP3   OH240243   2.908   3.011  11.078 -0.6571  0.0361  0.2160
 6251TIP3    H140244   2.930   3.069  11.150  1.4144  0.9387 -1.0839
 6251TIP3    H240245   2.821   3.040  11.049 -0.0925  1.8131  0.2535
 6252TIP3   OH240246   4.657   0.973  16.481  0.4427  0.0445 -0.7049
 6252TIP3    H140247   4.687   0.992  16.392  1.8604 -0.0792 -0.2687
 6252TIP3    H240248   4.585   1.034  16.495  2.0098  2.0124 -0.9490
 6253TIP3   OH240249   4.161   3.528  10.538  0.2059 -0.3373 -0.3774
 6253TIP3    H140250   4.167   3.458  10.472 -1.5012 -1.4505  0.6169
 6253TIP3    H240251   4.091   3.585  10.505 -0.3155 -0.6311  0.2086
 6254TIP3   OH240252   2.969   4.275   4.753  0.4307  0.1351  0.0504
 6254TIP3    H140253   2.884   4.298   4.716  0.2248  0.0208  0.4498
 6254TIP3    H240254   2.958   4.187   4.787  0.7051  0.1247  0.1135
 6255TIP3   OH240255   6.577   1.325  11.301 -0.0467  0.1534 -0.1155
 6255TIP3    H140256   6.550   1.305  11.212  0.3300  0.8900 -0.3969
 6255TIP3    H240257   6.559   1.244  11.350  0.0341 -0.3573 -0.9165
 6256TIP3   OH240258   0.539   0.332  12.700 -0.0179  0.2900 -0.0893
 6256TIP3    H140259   0.603   0.399  12.722 -0.4574 -0.0762  2.4202
 6256TIP3    H240260   0.579   0.249  12.727 -0.4966 -0.2102 -0.8637
 6257TIP3   OH240261   3.125   6.565   4.887 -0.0789  0.4001 -0.2162
 6257TIP3    H140262   3.083   6.502   4.947  2.0134 -1.3261 -0.4959
 6257TIP3    H240263   3.199   6.600   4.937  0.0001  1.0877 -0.8101
 6258TIP3   OH240264   1.002   3.393   2.502 -0.0984  0.0285  0.0117
 6258TIP3    H140265   1.042   3.431   2.424 -1.3011 -1.4295 -1.3485
 6258TIP3    H240266   0.908   3.411   2.492 -0.0281  1.7591  2.2201
 6259TIP3   OH240267   2.080   5.619  14.006 -0.0012  0.0063  0.1248
 6259TIP3    H140268   2.064   5.609  13.912  0.4399  2.5383 -0.2594
 6259TIP3    H240269   2.170   5.650  14.012 -0.0370 -0.1096  1.3978
 6260TIP3   OH240270   4.238   4.036   3.211 -0.0668  0.1968 -0.4169
 6260TIP3    H140271   4.319   4.001   3.172 -1.2042 -0.6503 -2.0480
 6260TIP3    H240272   4.230   4.124   3.176 -0.9375 -0.4623 -1.9103
 6261TIP3   OH240273   2.912   6.275   2.417  0.4447 -0.0985  0.6111
 6261TIP3    H140274   2.971   6.293   2.344  0.5868  1.0732  1.0084
 6261TIP3    H240275   2.828   6.254   2.376  0.4271  0.9272  0.1131
 6262TIP3   OH240276   1.110   2.339  17.056 -0.3922  0.0874  0.0706
 6262TIP3    H140277   1.182   2.317  17.116  0.3612 -0.7284 -1.1121
 6262TIP3    H240278   1.122   2.431  17.036 -0.1395  0.1498  0.5093
 6263TIP3   OH240279   0.583   2.096  13.395  0.0126  0.0416  0.2677
 6263TIP3    H140280   0.538   2.122  13.314  2.9975  0.0559 -1.4687
 6263TIP3    H240281   0.657   2.043  13.365  0.1991 -1.3744  3.1349
 6264TIP3   OH240282   0.777   2.259  14.737 -0.1113  0.0222  0.3839
 6264TIP3    H140283   0.834   2.229  14.807  0.3090  0.9308  0.4296
 6264TIP3    H240284   0.811   2.344  14.712 -0.2531 -0.2956 -0.9390
 6265TIP3   OH240285   1.141   5.461  12.597 -0.3675 -0.0686  0.0052
 6265TIP3    H140286   1.154   5.370  12.620  1.4733  0.1007 -0.2894
 6265TIP3    H240287   1.115   5.459  12.504 -0.0250 -0.2817 -0.0867
 6266TIP3   OH240288   5.929   1.932  11.155 -0.4163 -0.2471  0.3282
 6266TIP3    H140289   5.899   1.981  11.231 -0.9051 -0.2809  0.1589
 6266TIP3    H240290   5.882   1.848  11.160 -0.2052 -0.3772  0.1688
 6267TIP3   OH240291   1.419   5.949  16.186 -0.1496  0.1721 -0.0467
 6267TIP3    H140292   1.366   5.913  16.115  0.0135  1.0496 -0.6103
 6267TIP3    H240293   1.360   6.009  16.232 -0.0515  0.1197  0.1494
 6268TIP3   OH240294   6.489   0.051   0.812  0.2358 -0.4554 -0.2102
 6268TIP3    H140295   6.400   0.086   0.801  0.3552  0.1604  0.7426
 6268TIP3    H240296   6.543   0.104   0.752  1.1220  3.7971  4.0253
 6269TIP3   OH240297   0.371   1.860   3.303 -0.2193  0.4938 -0.1040
 6269TIP3    H140298   0.291   1.810   3.287 -0.1732  0.9664 -1.8165
 6269TIP3    H240299   0.404   1.825   3.387 -1.7871 -0.2362  0.2308
 6270TIP3   OH240300   6.062   4.111  14.043 -0.1501 -0.2618 -0.7822
 6270TIP3    H140301   6.145   4.095  14.088 -0.1589 -1.0510 -1.0484
 6270TIP3    H240302   5.995   4.092  14.109 -0.1477 -0.8114 -0.9373
 6271TIP3   OH240303   4.699   2.709  10.833 -0.2963 -0.1169 -0.1882
 6271TIP3    H140304   4.697   2.615  10.850  0.5381 -0.2504 -0.8172
 6271TIP3    H240305   4.612   2.729  10.799 -0.0553 -0.8869 -1.2599
 6272TIP3   OH240306   5.186   0.396  13.294  0.2682  0.1681 -0.3653
 6272TIP3    H140307   5.194   0.303  13.316  2.7460  0.2202 -0.8108
 6272TIP3    H240308   5.217   0.442  13.372  0.6430  0.5676 -0.7437
 6273TIP3   OH240309   1.227   6.582  10.965 -0.8181 -0.6420  0.1222
 6273TIP3    H140310   1.301   6.637  10.992  0.6599 -1.6049 -1.8650
 6273TIP3    H240311   1.160   6.644  10.938  0.0143  0.2371  0.0471
 6274TIP3   OH240312   6.093   1.365   5.135  0.0209 -0.0360  0.8036
 6274TIP3    H140313   6.166   1.326   5.182  0.4309  0.5383  0.6528
 6274TIP3    H240314   6.133   1.408   5.059 -0.4014  0.8341  1.0690
 6275TIP3   OH240315   2.647   6.425   2.114 -0.1695  0.0351 -0.8901
 6275TIP3    H140316   2.696   6.480   2.175 -1.3265  0.3575 -0.2490
 6275TIP3    H240317   2.621   6.484   2.044 -1.3090  0.2938 -0.2607
 6276TIP3   OH240318   3.435   4.320   0.657  0.1074  0.0085 -0.2026
 6276TIP3    H140319   3.473   4.367   0.583 -0.7493 -1.3317 -1.5304
 6276TIP3    H240320   3.367   4.378   0.691 -0.3277  0.1177 -1.2603
 6277TIP3   OH240321   2.277   0.757   1.590  0.1528  0.9748  0.5628
 6277TIP3    H140322   2.288   0.762   1.685 -0.4649  0.5670  0.6559
 6277TIP3    H240323   2.187   0.728   1.577  0.1077  1.4118 -0.1565
 6278TIP3   OH240324   0.894   1.496  15.632  0.0042  0.1102  0.0031
 6278TIP3    H140325   0.970   1.481  15.576 -1.0043  0.7058 -1.5619
 6278TIP3    H240326   0.826   1.441  15.594 -0.6713  0.4549  0.7110
 6279TIP3   OH240327   0.781   6.675  13.943 -0.6681 -0.2053  0.0018
 6279TIP3    H140328   0.849   6.651  13.879 -0.0618 -0.9125  0.9072
 6279TIP3    H240329   0.734   6.747  13.901 -0.5982 -0.9905 -1.4641
 6280TIP3   OH240330   3.522   3.185  11.130  0.6815 -0.4355  0.3903
 6280TIP3    H140331   3.451   3.139  11.085  0.4101  2.0705 -1.8504
 6280TIP3    H240332   3.563   3.118  11.185 -3.0274 -2.0761  1.3050
 6281TIP3   OH240333   1.119   3.556   1.198  0.0540  0.4915  0.2232
 6281TIP3    H140334   1.089   3.612   1.126 -0.5806 -1.3721 -1.0029
 6281TIP3    H240335   1.211   3.578   1.210 -0.0793  1.4713 -0.5550
 6282TIP3   OH240336   2.757   4.140  12.940  0.0002  0.2448  0.3886
 6282TIP3    H140337   2.687   4.137  13.005 -1.1213 -0.9509 -0.8514
 6282TIP3    H240338   2.821   4.076  12.971 -0.2448  0.1123  0.6211
 6283TIP3   OH240339   5.411   6.107   4.830 -0.5163  0.3612 -0.2991
 6283TIP3    H140340   5.326   6.136   4.797 -0.7420  1.6893  1.4203
 6283TIP3    H240341   5.390   6.044   4.899 -0.0483 -1.7233 -1.9910
 6284TIP3   OH240342   4.336   3.684   1.278  0.1877 -0.5045  0.5059
 6284TIP3    H140343   4.355   3.665   1.186  0.5686 -1.0141  0.6900
 6284TIP3    H240344   4.287   3.766   1.275  1.1104  0.0440 -0.0929
 6285TIP3   OH240345   2.616   4.859   4.679  0.3498  0.1799 -0.2270
 6285TIP3    H140346   2.533   4.836   4.721 -0.2358  1.9834 -0.3221
 6285TIP3    H240347   2.614   4.955   4.676  2.3111  0.2178 -0.4953
 6286TIP3   OH240348   6.792   4.931   1.542 -0.5858  0.2502  0.0956
 6286TIP3    H140349   6.748   4.925   1.627  1.6946 -0.2665  1.2902
 6286TIP3    H240350   6.789   4.842   1.507  0.4513 -0.0367  0.6992
 6287TIP3   OH240351   5.285   3.496   0.888 -0.2839  0.5479  0.5299
 6287TIP3    H140352   5.378   3.516   0.882 -0.3657  1.3075  1.6624
 6287TIP3    H240353   5.243   3.580   0.903 -1.3318  0.4393 -1.5849
 6288TIP3   OH240354   0.468   5.300  11.390 -0.3792  0.2861  0.1000
 6288TIP3    H140355   0.464   5.388  11.352  1.6307 -0.1409 -1.1761
 6288TIP3    H240356   0.441   5.242  11.318 -0.2839 -0.2429  0.4894
 6289TIP3   OH240357   2.862   6.427   7.135 -0.4206 -0.2553 -0.0102
 6289TIP3    H140358   2.932   6.491   7.123 -0.4856 -0.4256 -1.4032
 6289TIP3    H240359   2.834   6.405   7.046 -0.7388 -1.8485  0.4666
 6290TIP3   OH240360   0.652   3.657  14.615  0.5148 -0.2487 -0.1680
 6290TIP3    H140361   0.575   3.681  14.564  0.1940 -0.0861  0.3933
 6290TIP3    H240362   0.665   3.564  14.597 -0.3104 -0.4731  0.3929
 6291TIP3   OH240363   2.298   4.180  12.881  0.0220  0.0911 -0.0452
 6291TIP3    H140364   2.332   4.256  12.835 -0.7387  0.5031  0.0664
 6291TIP3    H240365   2.216   4.159  12.836 -0.8154  0.5916  1.1996
 6292TIP3   OH240366   2.686   0.667   4.322  0.0278  0.1244  0.4856
 6292TIP3    H140367   2.598   0.654   4.287  0.7831  3.2112 -2.8688
 6292TIP3    H240368   2.733   0.587   4.298 -0.9349 -0.0603 -0.8288
 6293TIP3   OH240369   2.682   3.758  12.730 -0.2767  0.2556 -0.4142
 6293TIP3    H140370   2.723   3.675  12.709 -1.3491 -0.9364  1.9820
 6293TIP3    H240371   2.589   3.737  12.742 -0.7250  1.9623 -0.7379
 6294TIP3   OH240372   5.840   3.564  14.936  0.2191  0.6209 -0.8064
 6294TIP3    H140373   5.891   3.633  14.893  1.0172  0.0085 -0.8455
 6294TIP3    H240374   5.896   3.533  15.007  0.3559 -0.7782 -1.5001
 6295TIP3   OH240375   0.473   5.263   5.802  0.0020  0.2732  0.0251
 6295TIP3    H140376   0.514   5.344   5.834 -0.3045 -0.2886  1.9108
 6295TIP3    H240377   0.402   5.246   5.864 -1.2774 -0.3275 -1.5658
 6296TIP3   OH240378   3.623   5.039  12.146 -0.4139 -0.7335 -0.0957
 6296TIP3    H140379   3.603   5.081  12.063  1.0322  0.4674  0.1478
 6296TIP3    H240380   3.706   4.994  12.131 -0.8714 -1.7208  0.2845
 6297TIP3   OH240381   0.329   1.569  15.321  0.4747  0.1946  0.6936
 6297TIP3    H140382   0.393   1.590  15.253 -0.4988 -0.4432 -0.4405
 6297TIP3    H240383   0.359   1.485  15.356 -0.7107 -0.9840 -1.0594
 6298TIP3   OH240384   0.648   2.385   0.563 -0.4088 -0.2232  0.1148
 6298TIP3    H140385   0.584   2.407   0.631 -1.5530 -1.4700 -0.5225
 6298TIP3    H240386   0.614   2.426   0.484  0.4756  0.5068  0.1045
 6299TIP3   OH240387   0.198   5.234   3.090 -0.3149 -0.2433 -0.6380
 6299TIP3    H140388   0.230   5.165   3.148  1.6904  0.4854 -0.8246
 6299TIP3    H240389   0.230   5.315   3.130 -1.5347  0.4920 -1.1229
 6300TIP3   OH240390   1.396   5.292  15.454 -0.3005 -0.0668  0.4589
 6300TIP3    H140391   1.486   5.261  15.457  0.4040  1.8261 -0.7180
 6300TIP3    H240392   1.373   5.307  15.546 -0.0791 -2.3363  0.9138
 6301TIP3   OH240393   1.130   6.105  16.273 -0.1208 -0.9529 -0.1064
 6301TIP3    H140394   1.154   6.056  16.352 -0.4559 -0.0157  0.5826
 6301TIP3    H240395   1.036   6.089  16.262 -0.6693  1.1776  1.2964
 6302TIP3   OH240396   1.508   4.107   1.534 -0.1671  0.2672  0.0342
 6302TIP3    H140397   1.577   4.042   1.520 -1.0158 -0.3783 -1.3165
 6302TIP3    H240398   1.528   4.176   1.470 -1.5135 -0.5643 -1.3272
 6303TIP3   OH240399   0.762   1.588   2.928  0.5864 -0.3923  0.7404
 6303TIP3    H140400   0.847   1.545   2.926 -0.1090 -1.8184  1.3874
 6303TIP3    H240401   0.710   1.538   2.990 -0.2278  1.4469  1.5973
 6304TIP3   OH240402   5.744   6.670   6.374  0.0381 -0.3595  0.3071
 6304TIP3    H140403   5.697   6.753   6.364 -0.6703 -0.8362 -0.5017
 6304TIP3    H240404   5.712   6.634   6.457  1.6353  0.9611  1.5258
 6305TIP3   OH240405   0.976   5.207   4.760 -0.3967 -0.1067  0.2500
 6305TIP3    H140406   1.002   5.290   4.721 -2.5043  0.8935  0.8998
 6305TIP3    H240407   0.955   5.151   4.685 -3.1678  1.3750 -0.1295
 6306TIP3   OH240408   1.790   6.521   1.912  0.2040 -0.3602 -0.3992
 6306TIP3    H140409   1.849   6.567   1.852  0.2931  0.1592  0.0783
 6306TIP3    H240410   1.793   6.574   1.992  0.9596 -1.6634  0.4493
 6307TIP3   OH240411   0.064   0.335   4.466  0.1327 -0.2597 -0.2275
 6307TIP3    H140412   0.113   0.255   4.447  1.4501  0.2650  0.8415
 6307TIP3    H240413   0.073   0.346   4.561 -1.8117  0.0267 -0.0660
 6308TIP3   OH240414   3.579   5.173  11.862 -1.2049 -0.1134 -0.0271
 6308TIP3    H140415   3.586   5.200  11.770  2.0635  2.6482  0.9144
 6308TIP3    H240416   3.523   5.239  11.902  0.7322  1.1169  0.7479
 6309TIP3   OH240417   3.162   1.119  17.135  0.0634 -0.2588 -0.2805
 6309TIP3    H140418   3.131   1.152  17.219 -2.1403  1.2428 -1.6116
 6309TIP3    H240419   3.218   1.045  17.157 -2.7668 -1.7325  2.4280
 6310TIP3   OH240420   0.951   6.797   5.278  0.0985 -0.0090 -0.1421
 6310TIP3    H140421   0.932   6.821   5.188  1.6432  1.1523 -0.1743
 6310TIP3    H240422   1.018   6.859   5.306  0.4112 -1.0354  1.4552
 6311TIP3   OH240423   3.132   6.289   3.982  0.1559  0.1840 -0.0737
 6311TIP3    H140424   3.223   6.283   4.011  0.6786  2.7040 -1.0900
 6311TIP3    H240425   3.101   6.373   4.018 -1.4688 -0.2037 -0.5334
 6312TIP3   OH240426   6.361   2.663   3.573  0.0796 -0.1387  0.6369
 6312TIP3    H140427   6.389   2.677   3.482 -0.3845 -0.3840  0.4566
 6312TIP3    H240428   6.340   2.570   3.577 -1.3323  0.1719  0.6017
 6313TIP3   OH240429   4.902   1.190   2.374 -0.6762 -0.6840 -0.6403
 6313TIP3    H140430   4.926   1.176   2.466 -0.4965 -0.5301 -0.6646
 6313TIP3    H240431   4.967   1.251   2.341 -1.3309  0.0362 -0.6008
 6314TIP3   OH240432   3.266   3.815   3.761  0.4437  0.7223  0.2825
 6314TIP3    H140433   3.244   3.791   3.671  0.5873 -1.4209  0.7919
 6314TIP3    H240434   3.199   3.878   3.786 -1.4621 -1.0179 -0.2958
 6315TIP3   OH240435   6.273   1.606  13.791  0.2767  0.2539 -0.1389
 6315TIP3    H140436   6.229   1.684  13.825  1.2247  0.5591  0.4191
 6315TIP3    H240437   6.354   1.601  13.842  1.6609  0.6181 -2.2276
 6316TIP3   OH240438   4.862   0.523  11.848 -0.0293 -0.1661  0.0484
 6316TIP3    H140439   4.839   0.523  11.941 -0.1820  1.7405  0.0313
 6316TIP3    H240440   4.954   0.497  11.847  0.2603  0.7956  0.8210
 6317TIP3   OH240441   3.648   4.930   6.458 -0.3021 -0.6482  0.5387
 6317TIP3    H140442   3.572   4.899   6.507 -0.1962 -1.8709 -0.0373
 6317TIP3    H240443   3.641   4.886   6.373 -0.1111  0.8905 -0.2932
 6318TIP3   OH240444   1.967   4.717   0.843 -0.2674 -1.0182 -0.4343
 6318TIP3    H140445   2.020   4.666   0.782  0.6184 -1.6398  0.8365
 6318TIP3    H240446   1.932   4.789   0.790  1.8192 -0.5983 -1.2888
 6319TIP3   OH240447   0.011   4.175   4.837  0.7169 -0.2577 -0.7196
 6319TIP3    H140448  -0.022   4.103   4.784  0.6197 -0.5942 -0.2010
 6319TIP3    H240449  -0.004   4.148   4.927  0.6179  0.4423 -0.5242
 6320TIP3   OH240450   1.382   1.314   0.823 -0.2189 -0.1910  0.5368
 6320TIP3    H140451   1.472   1.285   0.837 -0.1615 -0.3396 -0.1241
 6320TIP3    H240452   1.365   1.374   0.895  0.3824 -0.2286  0.7136
 6321TIP3   OH240453   3.780   1.195  16.772 -0.4541 -0.2535  0.4383
 6321TIP3    H140454   3.806   1.122  16.827 -0.2039  0.6857  1.5797
 6321TIP3    H240455   3.750   1.154  16.690 -0.8914 -1.6574  1.2840
 6322TIP3   OH240456   4.526   1.927  11.603  0.4387  0.3220  0.6019
 6322TIP3    H140457   4.465   2.000  11.607 -0.8177 -0.8029  2.7456
 6322TIP3    H240458   4.501   1.878  11.525 -0.0140  1.0362  0.2972
 6323TIP3   OH240459   3.386   6.497   2.279 -0.1707  0.0702  1.0395
 6323TIP3    H140460   3.459   6.504   2.218 -1.8907  0.2810 -1.0440
 6323TIP3    H240461   3.378   6.403   2.298 -1.3636 -0.3199 -1.2680
 6324TIP3   OH240462   6.760   3.260   4.583  0.2910 -0.4112  0.6053
 6324TIP3    H140463   6.749   3.177   4.539 -0.1508 -0.1455  0.2170
 6324TIP3    H240464   6.820   3.241   4.656  2.7888 -0.4196 -1.3748
 6325TIP3   OH240465   2.059   1.983  10.920  0.6270 -0.0841 -0.0362
 6325TIP3    H140466   2.148   1.998  10.888  0.8967  0.2295  0.8396
 6325TIP3    H240467   2.065   1.998  11.014 -0.2047 -0.7420  0.1235
 6326TIP3   OH240468   5.476   0.655  16.946 -0.4892  0.0112  0.1512
 6326TIP3    H140469   5.564   0.626  16.919 -0.1032 -1.5673  2.8490
 6326TIP3    H240470   5.422   0.577  16.938 -0.6455 -0.1681  2.5379
 6327TIP3   OH240471   3.662   5.653  14.595  1.0131 -0.0489  0.2105
 6327TIP3    H140472   3.588   5.714  14.598 -0.4143 -1.5808 -2.2138
 6327TIP3    H240473   3.721   5.689  14.530  0.7748 -0.5709 -0.3026
 6328TIP3   OH240474   0.440   4.842  12.569 -0.0824  0.6864  0.1945
 6328TIP3    H140475   0.457   4.913  12.630 -0.7488  0.9098  0.1269
 6328TIP3    H240476   0.346   4.847  12.552 -0.2222 -0.5172  0.5712
 6329TIP3   OH240477   5.407   1.133  14.306 -0.2977 -0.2119  0.7620
 6329TIP3    H140478   5.326   1.148  14.356 -0.7816 -0.3946  0.0345
 6329TIP3    H240479   5.383   1.068  14.240 -0.1448  1.4394 -0.9361
 6330TIP3   OH240480   3.892   4.992  10.687  0.6947 -0.4463 -0.0527
 6330TIP3    H140481   3.847   5.054  10.629  1.3170  1.2347  1.2028
 6330TIP3    H240482   3.829   4.921  10.700 -0.2360  0.1629 -1.1340
 6331TIP3   OH240483   0.838   3.666  12.294 -0.3800 -0.0948  0.2811
 6331TIP3    H140484   0.802   3.746  12.335  0.6541  0.6348 -0.2173
 6331TIP3    H240485   0.795   3.594  12.340  0.2094  0.7242  2.1646
 6332TIP3   OH240486   5.454   1.841  12.512 -0.1832  0.3270 -0.2152
 6332TIP3    H140487   5.426   1.802  12.595  0.4460  1.0728  0.3468
 6332TIP3    H240488   5.410   1.926  12.509 -1.1282 -0.1767 -1.1975
 6333TIP3   OH240489   5.001   4.702  16.637  0.3129  0.1323 -0.1046
 6333TIP3    H140490   4.959   4.617  16.620  1.4117 -0.4213 -0.0833
 6333TIP3    H240491   5.070   4.682  16.701 -0.7475  1.3891  1.4805
 6334TIP3   OH240492   5.601   0.532   3.603 -0.1265  0.2048 -0.1519
 6334TIP3    H140493   5.517   0.564   3.636 -0.0977 -0.0281  0.1623
 6334TIP3    H240494   5.646   0.610   3.570 -0.5734  0.2891 -0.5652
 6335TIP3   OH240495   1.918   2.470  16.635  0.4876  0.1212  0.0436
 6335TIP3    H140496   1.975   2.414  16.582  1.2646  2.1878 -1.4019
 6335TIP3    H240497   1.945   2.559  16.611 -2.5504  1.1353  0.2272
 6336TIP3   OH240498   3.979   6.284  13.377  0.1961  0.5324 -0.3103
 6336TIP3    H140499   4.034   6.259  13.451 -0.0505  2.0415  0.4035
 6336TIP3    H240500   4.041   6.297  13.305  0.4367 -0.9055 -0.3697
 6337TIP3   OH240501   1.473   4.067   0.025 -0.6947  0.0735 -0.3440
 6337TIP3    H140502   1.452   4.114   0.106 -0.4983 -0.9547  0.3265
 6337TIP3    H240503   1.428   4.115  -0.044 -1.2097  0.7204  0.4369
 6338TIP3   OH240504   4.481   4.490   0.097  0.2955  0.5287 -0.8375
 6338TIP3    H140505   4.522   4.552   0.157  0.1856 -0.2922  0.1137
 6338TIP3    H240506   4.546   4.420   0.087 -0.3209 -0.1216 -0.3883
 6339TIP3   OH240507   4.494   1.182  13.699 -0.0878 -0.3649  0.7362
 6339TIP3    H140508   4.517   1.191  13.791 -1.2298  0.0590  0.9944
 6339TIP3    H240509   4.400   1.162  13.700 -0.3317  0.6554 -0.3749
 6340TIP3   OH240510   6.469   3.317   2.469  0.7032 -0.2543  0.0149
 6340TIP3    H140511   6.465   3.363   2.385  0.3777  0.9059  0.6575
 6340TIP3    H240512   6.448   3.226   2.448 -1.8458  0.4985 -0.7929
 6341TIP3   OH240513   5.889   5.577  11.869  0.4346 -0.6839  0.1137
 6341TIP3    H140514   5.968   5.525  11.853  2.1138  1.5272  0.8958
 6341TIP3    H240515   5.861   5.553  11.957  0.8883 -0.6674  0.2639
 6342TIP3   OH240516   2.061   3.939  14.092 -0.2218  0.6243  0.2623
 6342TIP3    H140517   2.025   3.993  14.021 -0.4798 -0.3014 -0.3312
 6342TIP3    H240518   2.109   4.000  14.147 -0.5205  1.4598 -0.3890
 6343TIP3   OH240519   0.861   2.963   5.408 -0.6631 -0.3990  0.1159
 6343TIP3    H140520   0.905   2.905   5.347  2.4141  1.7189  0.2328
 6343TIP3    H240521   0.817   3.028   5.353 -0.5623 -0.3496  0.0953
 6344TIP3   OH240522   0.439   1.630  16.386  0.1486 -0.3996 -0.2310
 6344TIP3    H140523   0.436   1.586  16.301 -1.2994 -0.4372 -0.1681
 6344TIP3    H240524   0.387   1.709  16.374  0.4921 -0.0683  0.4381
 6345TIP3   OH240525   1.989   1.629  11.030 -0.3257 -0.2711 -0.7875
 6345TIP3    H140526   2.003   1.710  10.982  2.8726 -0.7961 -0.8990
 6345TIP3    H240527   1.935   1.575  10.972 -0.7173  1.0001 -1.6068
 6346TIP3   OH240528   3.609   2.020  14.833 -0.1572 -0.2215 -0.0955
 6346TIP3    H140529   3.538   1.956  14.840 -0.2705 -0.0695  0.1611
 6346TIP3    H240530   3.568   2.104  14.854  0.2787 -0.2525  0.8833
 6347TIP3   OH240531   4.817   6.135  14.295 -0.3506  0.1237  0.1152
 6347TIP3    H140532   4.795   6.209  14.238  0.0272 -0.0632 -0.2732
 6347TIP3    H240533   4.895   6.096  14.255 -1.0296 -0.9914 -0.1348
 6348TIP3   OH240534   0.173   3.257  16.201 -0.0522 -0.0853  0.0493
 6348TIP3    H140535   0.176   3.351  16.187 -1.1475 -0.0863 -0.2132
 6348TIP3    H240536   0.105   3.244  16.268 -1.1545 -0.8323 -1.1990
 6349TIP3   OH240537   3.471   2.079  14.592  0.3627  0.4968  0.3181
 6349TIP3    H140538   3.510   2.160  14.622  2.2688 -0.6459  1.0172
 6349TIP3    H240539   3.535   2.011  14.615 -2.4445 -1.5604  2.4050
 6350TIP3   OH240540   5.300   4.317  16.680 -0.1164 -0.1555  0.5038
 6350TIP3    H140541   5.366   4.313  16.749  0.7793 -2.7773 -0.4343
 6350TIP3    H240542   5.283   4.410  16.669  2.0142  0.4792  2.0895
 6351TIP3   OH240543   2.594   6.580   0.280 -0.1802 -0.3280  0.6865
 6351TIP3    H140544   2.543   6.602   0.202 -0.7385  0.8497  1.3708
 6351TIP3    H240545   2.569   6.489   0.300 -0.2939 -0.5214 -0.2962
 6352TIP3   OH240546   2.085   5.659  16.906 -0.0602 -0.0168 -0.3891
 6352TIP3    H140547   2.116   5.613  16.828  2.4294  0.8742  0.0447
 6352TIP3    H240548   2.009   5.708  16.876  1.2735  0.8396 -2.4315
 6353TIP3   OH240549   3.042   3.626  16.479  0.5858  0.7958  0.4198
 6353TIP3    H140550   3.067   3.611  16.570  0.4798 -0.2615  0.2791
 6353TIP3    H240551   3.125   3.628  16.431  0.5217 -0.7166  0.2397
 6354TIP3   OH240552   2.968   2.928   2.908  0.3128 -0.0378 -0.1995
 6354TIP3    H140553   2.901   2.891   2.851  0.6162  0.5268 -0.9339
 6354TIP3    H240554   3.034   2.859   2.915 -0.3054 -0.5680  0.4697
 6355TIP3   OH240555   5.094   3.299  13.797  0.5762  0.4561  0.3873
 6355TIP3    H140556   5.054   3.324  13.713  1.9559  0.6270 -0.2410
 6355TIP3    H240557   5.117   3.207  13.786  0.8035  0.4929  0.5570
 6356TIP3   OH240558   1.716   4.822   1.830 -0.1609 -0.1550  0.0607
 6356TIP3    H140559   1.780   4.753   1.844 -1.1617 -0.7338  1.9661
 6356TIP3    H240560   1.713   4.869   1.914 -2.1499 -0.0836 -0.0267
 6357TIP3   OH240561   5.344   3.021  16.797  0.0787 -0.1649 -0.4466
 6357TIP3    H140562   5.434   2.993  16.808 -0.3447 -1.3196  0.1594
 6357TIP3    H240563   5.339   3.053  16.707  0.6270 -1.8261 -1.0756
 6358TIP3   OH240564   3.054   4.171  16.259 -0.1722  0.1912  0.0887
 6358TIP3    H140565   3.029   4.082  16.284 -1.2373  0.4641  0.0182
 6358TIP3    H240566   3.058   4.169  16.164  1.1275 -0.1207  0.1411
 6359TIP3   OH240567   3.946   2.351  10.550  0.5066  0.4243  0.5113
 6359TIP3    H140568   3.851   2.358  10.557  0.4433  1.0540 -0.9043
 6359TIP3    H240569   3.963   2.345  10.456  1.7116 -2.1644  0.8352
 6360TIP3   OH240570   1.695   3.531  11.612 -0.1637  0.0968 -0.1864
 6360TIP3    H140571   1.753   3.608  11.610  0.3197 -0.2820 -0.8750
 6360TIP3    H240572   1.735   3.470  11.551 -1.2970 -0.1769 -0.6505
 6361TIP3   OH240573   1.155   6.709   1.923 -0.2281 -0.2273 -0.5945
 6361TIP3    H140574   1.204   6.770   1.977 -0.2504 -1.5074  0.8843
 6361TIP3    H240575   1.099   6.765   1.868 -0.7975  1.0451  1.2586
 6362TIP3   OH240576   0.660   1.365   3.099 -0.2356  0.6213 -0.5920
 6362TIP3    H140577   0.674   1.297   3.032 -1.0020  1.2546 -1.4166
 6362TIP3    H240578   0.695   1.327   3.179 -1.6234 -1.1926 -0.8010
 6363TIP3   OH240579   6.190   4.957   6.372 -0.2793  0.3485  0.4176
 6363TIP3    H140580   6.209   5.048   6.348 -0.1127  0.6740  1.7241
 6363TIP3    H240581   6.192   4.909   6.290 -3.8400  2.1314 -0.8171
 6364TIP3   OH240582   6.819   3.097  15.288  0.6020  0.4279  0.0583
 6364TIP3    H140583   6.806   3.037  15.361  2.5536 -1.5670 -1.1801
 6364TIP3    H240584   6.836   3.182  15.330 -3.8615  0.5955  1.8066
 6365TIP3   OH240585   0.023   2.871   5.487  0.2612  0.1013  0.7212
 6365TIP3    H140586  -0.028   2.924   5.427  0.7208  1.4692  1.5085
 6365TIP3    H240587   0.027   2.785   5.446 -1.0591  0.4896 -0.2531
 6366TIP3   OH240588   6.266   1.611   1.303 -0.3943 -0.0314 -0.4768
 6366TIP3    H140589   6.346   1.597   1.353  0.0548  0.7136 -0.9756
 6366TIP3    H240590   6.202   1.641   1.368  0.0572  0.4943 -0.2692
 6367TIP3   OH240591   4.044   6.466  16.072  0.1206 -0.7005 -0.3840
 6367TIP3    H140592   4.079   6.549  16.104  2.1228 -1.2649 -1.0243
 6367TIP3    H240593   4.021   6.417  16.151 -0.0294  0.0269  0.0250
 6368TIP3   OH240594   1.274   0.340  15.960  0.5705 -0.1771 -0.3785
 6368TIP3    H140595   1.257   0.384  16.044 -1.0426  0.4615 -1.0190
 6368TIP3    H240596   1.295   0.250  15.984  1.5659  0.3495  0.7934
 6369TIP3   OH240597   5.223   2.372   4.271 -0.4816  0.0265  0.4808
 6369TIP3    H140598   5.316   2.386   4.252 -0.5852 -0.2999 -0.2829
 6369TIP3    H240599   5.202   2.288   4.231 -1.4317  0.7329 -0.5572
 6370TIP3   OH240600   5.763   5.626   3.523 -0.8054  0.3856  0.0687
 6370TIP3    H140601   5.802   5.568   3.588  1.0273  1.0538 -0.4076
 6370TIP3    H240602   5.743   5.569   3.449  1.0182  0.3187 -0.4113
 6371TIP3   OH240603   3.731   1.085  16.171  0.1405 -0.2196 -0.1561
 6371TIP3    H140604   3.762   1.065  16.260 -0.4223 -2.4847 -0.4561
 6371TIP3    H240605   3.752   1.008  16.120 -0.9798  0.4376 -1.6519
 6372TIP3   OH240606   0.731   4.061   2.127 -0.5756  0.4861 -0.0475
 6372TIP3    H140607   0.810   4.010   2.116 -1.0107 -0.0664 -0.6152
 6372TIP3    H240608   0.694   4.070   2.039 -1.9963 -0.6419  0.4106
 6373TIP3   OH240609   5.236   2.132   0.461 -0.0844  0.0857 -0.9142
 6373TIP3    H140610   5.227   2.228   0.460  3.1605  0.4813  0.2606
 6373TIP3    H240611   5.195   2.103   0.379 -0.9133  2.4890 -1.3958
 6374TIP3   OH240612   4.696   5.919   6.550 -0.2044 -0.3633 -0.2141
 6374TIP3    H140613   4.756   5.955   6.615 -0.8613 -2.4029  1.5925
 6374TIP3    H240614   4.617   5.897   6.599 -0.3117 -2.9921 -1.4502
 6375TIP3   OH240615   5.503   6.594  11.897  0.2105 -0.1256  0.0528
 6375TIP3    H140616   5.430   6.539  11.869  0.9232 -0.9930 -0.1219
 6375TIP3    H240617   5.577   6.533  11.905  0.9110  0.7442  0.2199
 6376TIP3   OH240618   4.038   3.581  12.107 -0.4695 -0.1155 -0.1936
 6376TIP3    H140619   4.052   3.628  12.025  0.1145 -0.6271 -0.3919
 6376TIP3    H240620   4.059   3.645  12.175  0.6255 -0.1830 -0.4661
 6377TIP3   OH240621   5.305   2.110  15.099 -0.1473  0.2723 -0.1151
 6377TIP3    H140622   5.246   2.174  15.061 -0.2590 -0.1519 -0.6652
 6377TIP3    H240623   5.256   2.028  15.097  0.4885 -0.0997 -0.6582
 6378TIP3   OH240624   2.939   2.807   1.618  0.1082  0.0179  0.3563
 6378TIP3    H140625   3.027   2.780   1.591  0.9742 -0.5194  3.5671
 6378TIP3    H240626   2.935   2.787   1.711 -4.2026 -1.9791 -0.1214
 6379TIP3   OH240627   0.073   1.965  13.280  0.0945 -0.1375  0.0188
 6379TIP3    H140628   0.130   1.954  13.204 -0.7490  0.0877 -0.6539
 6379TIP3    H240629   0.122   2.020  13.340  0.9605 -0.7091 -0.1594
 6380TIP3   OH240630   0.129   3.440   0.797  0.1680 -0.3621 -0.1484
 6380TIP3    H140631   0.037   3.455   0.772  0.1312 -1.1281 -0.4945
 6380TIP3    H240632   0.148   3.351   0.766  0.8683 -0.4088  0.3997
 6381TIP3   OH240633   4.346   0.431  16.295 -0.0156 -0.0456 -0.2024
 6381TIP3    H140634   4.351   0.455  16.203  0.5416 -1.1678 -0.4762
 6381TIP3    H240635   4.348   0.335  16.295  2.4872 -0.0548  1.0963
 6382TIP3   OH240636   5.783   2.284   3.485 -0.6053  0.4411  0.6611
 6382TIP3    H140637   5.760   2.223   3.415  2.7252  1.7371 -1.7011
 6382TIP3    H240638   5.700   2.323   3.511 -2.0028 -0.3565 -2.3591
 6383TIP3   OH240639   2.291   0.117  16.246 -0.3385 -0.6319  0.0517
 6383TIP3    H140640   2.206   0.086  16.216 -1.0838  1.0056  0.4119
 6383TIP3    H240641   2.278   0.210  16.262  1.1293 -0.6611  1.5533
 6384TIP3   OH240642   1.112   3.966   0.196 -0.0668  0.0898 -0.7623
 6384TIP3    H140643   1.052   4.027   0.153 -0.8549 -0.7236 -0.8265
 6384TIP3    H240644   1.076   3.880   0.178  1.4227 -0.4459 -1.2539
 6385TIP3   OH240645   1.434   0.294   5.424  0.0946  0.4454 -0.3176
 6385TIP3    H140646   1.432   0.376   5.473 -0.9350 -0.0192  0.4426
 6385TIP3    H240647   1.453   0.227   5.490 -1.4329 -0.2036 -0.5133
 6386TIP3   OH240648   4.897   0.882  11.549 -0.3777 -0.5306 -0.2272
 6386TIP3    H140649   4.943   0.951  11.596 -1.8726  0.1348  0.3043
 6386TIP3    H240650   4.926   0.890  11.458 -1.5705  1.7024 -0.4336
 6387TIP3   OH240651   2.430   2.017  14.916  0.7533 -0.1616 -0.5480
 6387TIP3    H140652   2.471   2.073  14.982 -1.0614  0.1153  0.3648
 6387TIP3    H240653   2.487   2.025  14.839  1.1640  2.0144 -0.0507
 6388TIP3   OH240654   4.374   2.563   6.436  0.2714  0.0235  0.5798
 6388TIP3    H140655   4.429   2.550   6.359  0.7996  0.0600  0.9440
 6388TIP3    H240656   4.350   2.475   6.464  0.2204  0.0035  0.4699
 6389TIP3   OH240657   3.953   0.953   3.312  0.2427 -0.3814 -0.2094
 6389TIP3    H140658   3.905   0.870   3.304 -1.6299  0.5816  0.7791
 6389TIP3    H240659   3.904   1.002   3.378  1.4698  1.4244 -0.6325
 6390TIP3   OH240660   6.043   5.068  13.388  0.2895 -0.1950 -0.1217
 6390TIP3    H140661   5.991   5.091  13.312 -0.8269  1.3924  1.0821
 6390TIP3    H240662   5.984   5.082  13.463  0.9725 -2.8426  0.9673
 6391TIP3   OH240663   6.426   3.883  11.175  0.0180 -0.2174  0.0377
 6391TIP3    H140664   6.518   3.879  11.201  0.0680 -0.9014 -0.2429
 6391TIP3    H240665   6.428   3.883  11.079 -0.1591  2.4814 -0.0090
 6392TIP3   OH240666   4.590   3.104   0.847 -0.0576 -0.5503  0.0629
 6392TIP3    H140667   4.665   3.054   0.815 -1.0411 -2.5786  0.8413
 6392TIP3    H240668   4.616   3.133   0.935  0.0686 -0.6778  0.0677
 6393TIP3   OH240669   1.213   3.944  14.831  0.2643  0.0250  0.2442
 6393TIP3    H140670   1.276   3.963  14.761 -1.7884  0.1375 -1.6255
 6393TIP3    H240671   1.235   4.006  14.900  0.4021  2.0590 -1.5535
 6394TIP3   OH240672   4.884   1.738  16.168  0.0377 -0.1988  0.2438
 6394TIP3    H140673   4.908   1.805  16.231 -0.9236 -0.0905  0.4878
 6394TIP3    H240674   4.791   1.750  16.153 -0.5508 -2.6236  1.6775
 6395TIP3   OH240675   5.864   3.002   0.782 -0.1667  0.8198  0.1138
 6395TIP3    H140676   5.775   3.005   0.817 -1.0029 -2.7726 -1.5072
 6395TIP3    H240677   5.904   2.926   0.824  1.0339  0.4284 -1.7019
 6396TIP3   OH240678   1.137   1.720  14.758 -0.0899 -0.2873  0.8201
 6396TIP3    H140679   1.130   1.761  14.844  0.1876 -0.2116  0.8071
 6396TIP3    H240680   1.193   1.779  14.708 -0.9534  0.1185  0.3177
 6397TIP3   OH240681   2.524   1.012   1.190  0.5909  0.5337 -0.6941
 6397TIP3    H140682   2.575   1.046   1.117  0.7292 -0.9898 -1.3397
 6397TIP3    H240683   2.434   1.008   1.157  0.3159  1.6886 -0.1081
 6398TIP3   OH240684   3.697   1.766  11.625  0.3416  0.0106 -0.2796
 6398TIP3    H140685   3.687   1.721  11.709  0.5480  0.8101  0.1782
 6398TIP3    H240686   3.626   1.830  11.623  0.1773 -0.1883 -0.8301
 6399TIP3   OH240687   2.755   2.830  12.217  0.3285  0.4217  0.2031
 6399TIP3    H140688   2.801   2.896  12.164  1.9038 -0.2981  0.6271
 6399TIP3    H240689   2.664   2.860  12.220  1.0103  2.5721  0.3708
 6400TIP3   OH240690   1.037   2.934  16.602 -0.7573  0.2227 -0.5367
 6400TIP3    H140691   1.066   2.849  16.634 -0.5140 -0.7946 -3.3145
 6400TIP3    H240692   1.107   2.994  16.628 -0.4520 -0.6003  0.5865
 6401TIP3   OH240693   0.644   0.783   0.362  0.7310  0.4474  0.3280
 6401TIP3    H140694   0.583   0.857   0.371  1.0473  0.4936  2.4679
 6401TIP3    H240695   0.720   0.809   0.414  1.3897 -0.8152  0.0101
 6402TIP3   OH240696   1.450   1.646   3.149 -0.4380 -0.1346  0.0154
 6402TIP3    H140697   1.441   1.668   3.056 -0.4395  0.4094  0.1432
 6402TIP3    H240698   1.470   1.553   3.150  0.5859  0.0782 -0.5884
 6403TIP3   OH240699   5.702   0.275  16.725 -0.1043 -0.0161  0.1611
 6403TIP3    H140700   5.726   0.368  16.725  2.5175 -0.6540  1.3604
 6403TIP3    H240701   5.686   0.255  16.632  2.9522  0.7682 -0.5984
 6404TIP3   OH240702   4.021   2.081  12.279 -0.3068  0.2780 -0.3846
 6404TIP3    H140703   3.999   2.164  12.322  1.8221  1.6806 -1.9340
 6404TIP3    H240704   4.092   2.044  12.331 -1.2689 -0.6173  0.3174
 6405TIP3   OH240705   2.746   2.524  15.331 -0.5290  0.2155 -0.2842
 6405TIP3    H140706   2.656   2.505  15.304 -1.0261  1.6308  0.3015
 6405TIP3    H240707   2.795   2.445  15.310 -2.4016 -1.5298  1.6902
 6406TIP3   OH240708   2.531   6.274  11.665  0.1254  0.2078 -0.1669
 6406TIP3    H140709   2.551   6.367  11.655 -0.7680  0.2858 -1.3521
 6406TIP3    H240710   2.548   6.255  11.757  1.7120  1.2026 -0.2288
 6407TIP3   OH240711   6.413   3.480  16.908  0.4243 -0.0534  0.1707
 6407TIP3    H140712   6.436   3.517  16.823  1.0987 -0.6402  0.0949
 6407TIP3    H240713   6.370   3.552  16.955 -0.6062  0.0604 -0.9283
 6408TIP3   OH240714   6.804   0.868  14.777  0.2791 -0.2985 -0.0722
 6408TIP3    H140715   6.863   0.937  14.808  1.3689 -1.4628  0.4859
 6408TIP3    H240716   6.716   0.898  14.801  0.8814  0.0896  1.7202
 6409TIP3   OH240717   2.276   0.857  14.701  0.6417 -0.4544  0.4449
 6409TIP3    H140718   2.267   0.951  14.682  1.3586 -0.7232 -1.4335
 6409TIP3    H240719   2.276   0.816  14.614 -1.1535 -2.3522  1.3072
 6410TIP3   OH240720   4.721   1.899  15.398  0.3257 -0.1749  0.1931
 6410TIP3    H140721   4.689   1.878  15.486  1.6710  1.9394  1.2216
 6410TIP3    H240722   4.799   1.844  15.388  0.1625 -0.4298  0.2995
 6411TIP3   OH240723   0.949   6.766  15.538  0.1462 -0.5875  0.2527
 6411TIP3    H140724   0.968   6.816  15.617  0.2883  0.6509 -0.5578
 6411TIP3    H240725   0.885   6.818  15.490  1.7975 -0.1632 -1.5656
 6412TIP3   OH240726   4.448   0.083   1.840 -0.3879 -0.1658  0.0582
 6412TIP3    H140727   4.478   0.026   1.912 -0.4525 -0.6149 -0.2669
 6412TIP3    H240728   4.503   0.161   1.847 -0.9837  0.1678  1.1373
 6413TIP3   OH240729   3.975   5.140   3.407  0.9609 -0.4024  0.4752
 6413TIP3    H140730   4.043   5.171   3.468  0.5787 -0.4805  0.9431
 6413TIP3    H240731   3.943   5.059   3.447 -0.9695  0.7927  1.4027
 6414TIP3   OH240732   0.996   2.997   3.414 -0.0452  0.0528 -0.0680
 6414TIP3    H140733   1.076   3.044   3.438  0.6950 -1.0767 -0.2983
 6414TIP3    H240734   0.935   3.066   3.387  1.6143  0.7736 -2.0928
 6415TIP3   OH240735   4.608   4.120  15.311  0.1174  0.0692  0.2833
 6415TIP3    H140736   4.537   4.184  15.319 -1.7675 -2.1991  2.6447
 6415TIP3    H240737   4.582   4.048  15.370  3.4447 -1.6783 -0.2767
 6416TIP3   OH240738   1.292   0.590   5.363 -0.4396 -0.0185  0.0734
 6416TIP3    H140739   1.318   0.632   5.281 -2.0203  0.3738 -0.2428
 6416TIP3    H240740   1.249   0.509   5.336  1.1544 -1.0765  0.6281
 6417TIP3   OH240741   6.312   2.296   6.667 -0.1560  0.1989  0.2299
 6417TIP3    H140742   6.386   2.357   6.667  0.1590 -0.1734  0.7779
 6417TIP3    H240743   6.243   2.343   6.713  0.1741  0.0475  0.8899
 6418TIP3   OH240744   2.406   4.183   2.683  0.6694 -0.1170 -0.8318
 6418TIP3    H140745   2.455   4.202   2.763 -1.3201  1.6183  0.0426
 6418TIP3    H240746   2.416   4.261   2.629 -1.5984  0.5574 -0.3480
 6419TIP3   OH240747   1.759   5.172   4.096  0.1852 -0.2805  0.4045
 6419TIP3    H140748   1.800   5.257   4.083  0.5623 -0.2106  1.9336
 6419TIP3    H240749   1.799   5.115   4.030 -0.2353  0.7701 -0.7654
 6420TIP3   OH240750   2.117   4.137  14.372 -0.0165 -0.5125  0.2729
 6420TIP3    H140751   2.123   4.071  14.441 -0.8905 -0.5760  0.2944
 6420TIP3    H240752   2.179   4.205  14.399  0.1925 -0.8809  0.7386
 6421TIP3   OH240753   3.286   3.827   0.247  0.1231  0.3098  0.1410
 6421TIP3    H140754   3.267   3.920   0.256  4.0206  1.1393  0.5906
 6421TIP3    H240755   3.307   3.798   0.336  3.2848  0.0822 -0.6367
 6422TIP3   OH240756   2.416   4.129   5.958 -0.1693  0.0678  0.3377
 6422TIP3    H140757   2.395   4.134   6.051 -0.1784 -0.5602  0.3676
 6422TIP3    H240758   2.380   4.210   5.921  2.3083  1.7016  1.3636
 6423TIP3   OH240759   3.383   4.780  15.988  0.1449  0.0967  0.0840
 6423TIP3    H140760   3.294   4.747  16.000  0.3904 -1.2282 -1.5580
 6423TIP3    H240761   3.430   4.752  16.067 -0.3580 -1.0983 -0.0308
 6424TIP3   OH240762   1.132   4.580   0.118  0.3941 -0.2584 -0.3104
 6424TIP3    H140763   1.073   4.642   0.075  1.5812 -0.8128 -2.8605
 6424TIP3    H240764   1.206   4.634   0.146  0.6534 -0.2456 -1.0112
 6425TIP3   OH240765   4.237   4.003  14.494  0.2853 -0.3653 -0.0603
 6425TIP3    H140766   4.256   4.087  14.535 -1.6737 -0.2384  0.6276
 6425TIP3    H240767   4.323   3.970  14.467  1.3705  0.5230  2.2139
 6426TIP3   OH240768   5.336   2.635   2.232  0.1980 -0.1794 -0.0115
 6426TIP3    H140769   5.260   2.628   2.175  0.2424  1.0704 -0.2397
 6426TIP3    H240770   5.409   2.601   2.179  0.0201 -0.1826 -0.2561
 6427TIP3   OH240771   4.362   2.924  13.647 -0.5244 -0.5756  0.5359
 6427TIP3    H140772   4.271   2.948  13.662 -0.1276  0.0172  2.0943
 6427TIP3    H240773   4.393   2.987  13.581 -0.9515 -0.0999  0.7859
 6428TIP3   OH240774   3.315   3.031   4.487  0.1767  0.0073 -0.2102
 6428TIP3    H140775   3.236   3.081   4.507  0.9842  0.6324  1.4741
 6428TIP3    H240776   3.335   3.054   4.396 -1.5822 -0.1678 -0.6491
 6429TIP3   OH240777   1.387   6.005   4.282 -0.0823 -0.0323 -0.1836
 6429TIP3    H140778   1.443   5.940   4.326 -0.5475 -0.8656 -0.8037
 6429TIP3    H240779   1.449   6.071   4.250  0.5977 -1.1319 -1.1765
 6430TIP3   OH240780   4.868   4.965  15.323 -0.2869 -0.4295 -0.3595
 6430TIP3    H140781   4.901   4.895  15.380  0.2043  1.5504  1.9131
 6430TIP3    H240782   4.859   4.924  15.237  2.5154 -2.5795  0.2797
 6431TIP3   OH240783   6.205   0.357  14.390 -0.0182 -0.4096 -0.0969
 6431TIP3    H140784   6.111   0.374  14.389  0.2324  1.0321  0.4232
 6431TIP3    H240785   6.216   0.286  14.454 -0.4830  1.1327  1.7255
 6432TIP3   OH240786   5.332   6.025   3.050  0.0030  0.0317 -0.5461
 6432TIP3    H140787   5.424   6.004   3.039  0.1049 -0.1590  0.5779
 6432TIP3    H240788   5.331   6.094   3.117 -0.6741 -0.0791 -0.4340
 6433TIP3   OH240789   5.896   1.933  16.585 -0.3341 -0.2254 -0.0961
 6433TIP3    H140790   5.886   1.972  16.671 -1.4690 -0.1994 -0.2348
 6433TIP3    H240791   5.917   1.841  16.602 -0.1239 -0.1218  0.2061
 6434TIP3   OH240792   3.512   0.358   0.176 -0.3492 -0.4368 -0.4660
 6434TIP3    H140793   3.517   0.449   0.203  1.4983 -0.3879 -0.8691
 6434TIP3    H240794   3.596   0.320   0.203 -1.5552 -2.3281  0.7615
 6435TIP3   OH240795   5.253   5.550   1.312  0.9376 -0.4328  1.0189
 6435TIP3    H140796   5.283   5.633   1.349  0.0438  0.0290  0.6958
 6435TIP3    H240797   5.222   5.500   1.387  1.4465 -0.4684  1.2085
 6436TIP3   OH240798   0.156   5.865   6.235  0.0691 -0.4776 -0.4295
 6436TIP3    H140799   0.226   5.928   6.215 -0.3489  0.7255  1.7262
 6436TIP3    H240800   0.079   5.899   6.189  0.6469 -1.2676 -2.0026
 6437TIP3   OH240801   1.137   4.876   0.686  0.7061 -0.4471 -0.2769
 6437TIP3    H140802   1.125   4.958   0.637 -1.0899  0.6747  1.9279
 6437TIP3    H240803   1.051   4.834   0.685  0.2526  0.2531  2.9343
 6438TIP3   OH240804   1.749   6.013   3.249 -0.0656 -0.2453 -0.0650
 6438TIP3    H140805   1.823   6.056   3.206 -2.4788  0.9385 -3.2290
 6438TIP3    H240806   1.751   5.924   3.214 -0.0049 -0.2653 -0.0101
 6439TIP3   OH240807   6.362   2.033  16.368 -0.6862  0.0426 -0.0555
 6439TIP3    H140808   6.436   1.976  16.348  0.2806  0.5318  1.9660
 6439TIP3    H240809   6.350   2.086  16.289 -0.5133 -1.7813 -1.3232
 6440TIP3   OH240810   1.582   2.860  13.872 -0.0396 -0.1263  0.4091
 6440TIP3    H140811   1.566   2.947  13.835 -0.4059 -0.1774  0.4430
 6440TIP3    H240812   1.513   2.805  13.834 -0.6944 -0.0817  1.4958
 6441TIP3   OH240813   1.384   3.301  14.180 -0.6716  0.1669  0.2759
 6441TIP3    H140814   1.406   3.298  14.087 -0.2663 -0.4001  0.3867
 6441TIP3    H240815   1.308   3.359  14.185 -0.4354  0.5417 -0.3572
 6442TIP3   OH240816   2.153   6.587   5.703 -0.1749  0.1747 -1.0444
 6442TIP3    H140817   2.074   6.609   5.752  1.3801  1.8039  0.8175
 6442TIP3    H240818   2.137   6.622   5.616 -1.3506  0.8316 -0.5843
 6443TIP3   OH240819   1.650   3.646   5.236  0.5943 -0.3184  0.0667
 6443TIP3    H140820   1.734   3.680   5.268  0.5909 -1.3090  1.1628
 6443TIP3    H240821   1.585   3.677   5.298  0.1053  0.5891 -0.8757
 6444TIP3   OH240822   4.854   0.188   2.050 -0.4164  0.2945  0.0350
 6444TIP3    H140823   4.892   0.176   1.963  0.6259  0.7924  0.4043
 6444TIP3    H240824   4.860   0.283   2.065 -2.2361  0.4320 -0.0818
 6445TIP3   OH240825   0.439   2.345  14.313 -0.5302 -0.0113 -0.1642
 6445TIP3    H140826   0.466   2.437  14.323 -1.4864 -0.0160  2.8671
 6445TIP3    H240827   0.456   2.325  14.221  2.9721  2.1659 -0.0819
 6446TIP3   OH240828   0.475   4.443  16.603 -0.3832  0.1791 -0.4440
 6446TIP3    H140829   0.518   4.436  16.517  2.2451  0.3186  0.7989
 6446TIP3    H240830   0.405   4.507  16.590 -0.7327 -0.6392 -2.7551
 6447TIP3   OH240831   3.780   4.419  12.239 -0.1711 -0.8921  0.1477
 6447TIP3    H140832   3.803   4.420  12.147 -3.0775 -0.1363 -0.6194
 6447TIP3    H240833   3.693   4.381  12.242 -0.6388  0.2429  2.4342
 6448TIP3   OH240834   5.277   6.456   2.266 -0.6727  0.0164  0.1441
 6448TIP3    H140835   5.338   6.428   2.334  1.5240 -0.0369 -1.8020
 6448TIP3    H240836   5.257   6.547   2.289 -0.5513 -0.2292  1.2709
 6449TIP3   OH240837   5.297   4.119  12.270 -0.1641 -0.4804 -0.5775
 6449TIP3    H140838   5.332   4.135  12.357 -1.8181 -0.8633  0.1660
 6449TIP3    H240839   5.375   4.112  12.214  1.0631 -3.4966  1.3945
 6450TIP3   OH240840   5.213   3.791   0.207 -0.1955  0.0432 -0.1712
 6450TIP3    H140841   5.308   3.795   0.201 -0.1119  0.1138  1.1513
 6450TIP3    H240842   5.195   3.745   0.289 -1.2978 -0.5036 -0.7047
 6451TIP3   OH240843   2.204   6.174  16.356  0.3805 -0.1306  0.3079
 6451TIP3    H140844   2.185   6.225  16.435 -2.4634 -0.9668  0.2203
 6451TIP3    H240845   2.156   6.220  16.287 -0.0231 -1.3850 -0.2631
 6452TIP3   OH240846   6.435   3.837  14.759  0.2697  0.8929 -0.2346
 6452TIP3    H140847   6.524   3.808  14.779 -0.0955  2.1745  3.8564
 6452TIP3    H240848   6.446   3.920  14.712  1.2065  0.0514 -1.5192
 6453TIP3   OH240849   3.647   0.885   1.511  0.7938 -0.3741  0.0489
 6453TIP3    H140850   3.640   0.863   1.418 -1.2252  1.5248 -0.2753
 6453TIP3    H240851   3.631   0.802   1.557  0.3756 -1.0337 -1.2698
 6454TIP3   OH240852   1.482   6.699  15.437  0.1300  0.5669 -0.1479
 6454TIP3    H140853   1.449   6.638  15.369 -0.3380 -0.0087  0.5855
 6454TIP3    H240854   1.409   6.706  15.499  1.5659 -1.1310  1.7849
 6455TIP3   OH240855   1.195   5.885   1.827 -0.8489  0.8755  0.2428
 6455TIP3    H140856   1.160   5.962   1.783 -0.0496  1.1545  0.1067
 6455TIP3    H240857   1.256   5.920   1.892 -0.9628  0.3908  0.6128
 6456TIP3   OH240858   5.975   0.206   3.656  0.1297  0.4416 -0.0058
 6456TIP3    H140859   6.033   0.236   3.726  0.2481 -1.2913  0.6911
 6456TIP3    H240860   6.029   0.206   3.578  0.3792  1.1472  0.1686
 6457TIP3   OH240861   5.190   1.017  14.809  0.5544  0.3419 -0.1145
 6457TIP3    H140862   5.226   1.075  14.877  2.0486 -0.7287  0.0350
 6457TIP3    H240863   5.112   0.980  14.849  0.9253  0.4130  0.6966
 6458TIP3   OH240864   6.672   4.201   0.014  0.1801 -0.3964  0.8294
 6458TIP3    H140865   6.753   4.150   0.013  2.1887  2.6476  1.5926
 6458TIP3    H240866   6.679   4.262  -0.059 -2.1788 -1.1506 -0.0903
 6459TIP3   OH240867   2.526   3.981  14.253  0.1208 -0.3823 -0.8652
 6459TIP3    H140868   2.511   3.937  14.337  0.7455 -0.4963 -0.8088
 6459TIP3    H240869   2.458   4.047  14.248  0.0751 -0.3777 -0.2654
 6460TIP3   OH240870   6.134   4.261  13.560 -0.4239 -0.2572 -0.3106
 6460TIP3    H140871   6.140   4.351  13.591 -0.6829 -0.0786 -0.7726
 6460TIP3    H240872   6.224   4.237  13.538 -0.3238 -0.1911  0.0191
 6461TIP3   OH240873   6.700   6.142   2.172 -0.6458 -0.4987  0.0723
 6461TIP3    H140874   6.686   6.088   2.250 -0.7536 -1.6881 -0.7501
 6461TIP3    H240875   6.620   6.194   2.164  0.0110  0.7691  1.6296
 6462TIP3   OH240876   3.061   6.235   0.308 -0.0686 -0.7652  0.5644
 6462TIP3    H140877   3.016   6.198   0.384  0.0025 -0.6148  0.6804
 6462TIP3    H240878   2.994   6.287   0.264 -0.1077 -0.8466  0.5267
 6463TIP3   OH240879   3.529   2.262   4.810  0.1338  0.3664  0.0819
 6463TIP3    H140880   3.442   2.300   4.801 -0.3103 -0.6176  0.1849
 6463TIP3    H240881   3.587   2.338   4.820 -0.5546  1.0873 -1.1905
 6464TIP3   OH240882   3.451   3.237   2.297  0.0826  0.2567  0.0838
 6464TIP3    H140883   3.394   3.160   2.297  0.4779 -0.0369 -0.0769
 6464TIP3    H240884   3.395   3.308   2.268 -0.2251 -0.0155  0.0039
 6465TIP3   OH240885   4.548   2.257   5.641  0.3236  0.1492  0.6953
 6465TIP3    H140886   4.582   2.279   5.554  2.8099 -0.9285  1.3620
 6465TIP3    H240887   4.526   2.164   5.635 -0.6868  0.3645  0.8799
 6466TIP3   OH240888   0.412   0.592   1.344  0.1051 -0.4752  0.7355
 6466TIP3    H140889   0.347   0.604   1.274  0.3925  0.3229  0.5961
 6466TIP3    H240890   0.468   0.521   1.313 -0.7874 -1.2746  0.9225
 6467TIP3   OH240891   0.667   2.992  14.118  0.8677 -0.4249  0.4181
 6467TIP3    H140892   0.573   2.992  14.136  0.6648 -0.1738 -0.6150
 6467TIP3    H240893   0.682   3.072  14.067  1.4262 -1.0643 -0.4432
 6468TIP3   OH240894   1.618   5.513  14.865 -0.9587 -0.1016 -0.4526
 6468TIP3    H140895   1.559   5.448  14.904  0.5354 -0.4486  1.3206
 6468TIP3    H240896   1.586   5.597  14.899 -0.3343 -0.3038  0.6535
 6469TIP3   OH240897   0.641   3.498   5.916  0.0062 -0.6210 -0.1704
 6469TIP3    H140898   0.571   3.548   5.958 -0.7024 -1.0380 -0.8441
 6469TIP3    H240899   0.698   3.565   5.877 -1.2169 -0.3273 -1.5135
 6470TIP3   OH240900   0.310   5.546  15.144  0.3465  0.0219  0.0884
 6470TIP3    H140901   0.218   5.527  15.125  0.2870 -1.5904  1.8732
 6470TIP3    H240902   0.308   5.633  15.185 -0.2406  0.4950 -0.9244
 6471TIP3   OH240903   1.991   4.201  10.383  0.2260 -0.0275 -0.2586
 6471TIP3    H140904   1.973   4.290  10.414  0.1899 -0.2314  0.3171
 6471TIP3    H240905   1.908   4.154  10.396  0.7437 -0.5972  1.0703
 6472TIP3   OH240906   0.535   4.932   2.728 -0.2400 -0.5969  0.0486
 6472TIP3    H140907   0.586   4.889   2.660 -0.2802  0.2702 -0.5291
 6472TIP3    H240908   0.595   4.995   2.767 -0.0822 -1.3793  1.1134
 6473TIP3   OH240909   3.766   5.383  12.900  0.0701  0.1510 -0.2707
 6473TIP3    H140910   3.835   5.364  12.964 -0.1141 -1.2085 -0.4514
 6473TIP3    H240911   3.750   5.477  12.908  1.6596  0.3952  0.0569
 6474TIP3   OH240912   1.767   3.164  16.597 -0.0395 -0.0846  0.0883
 6474TIP3    H140913   1.853   3.199  16.617  0.4022 -1.3439  0.4002
 6474TIP3    H240914   1.765   3.158  16.501  0.0932  0.2253  0.0648
 6475TIP3   OH240915   0.636   0.302  15.940  0.2832  0.1156 -0.1490
 6475TIP3    H140916   0.591   0.330  15.860  2.3352  1.5548 -0.8485
 6475TIP3    H240917   0.698   0.236  15.910 -0.8128 -1.3215  0.6960
 6476TIP3   OH240918   5.274   0.284   4.666  0.5331  0.5257  0.3606
 6476TIP3    H140919   5.201   0.224   4.649  0.4336  0.2653  1.6530
 6476TIP3    H240920   5.277   0.291   4.761  2.5299  0.1259  0.3479
 6477TIP3   OH240921   0.413   3.003  12.505 -0.0526  0.0593  0.4284
 6477TIP3    H140922   0.442   3.026  12.594  1.9533 -0.1377 -0.1427
 6477TIP3    H240923   0.343   2.939  12.518  2.6248 -2.7018  1.8548
 6478TIP3   OH240924   1.842   2.565  14.142  0.0889  0.2700  0.0603
 6478TIP3    H140925   1.831   2.642  14.086  0.0810 -1.3032 -2.1475
 6478TIP3    H240926   1.932   2.572  14.175 -0.5439  2.2342  1.4843
 6479TIP3   OH240927   6.067   0.029  14.701  0.0349 -0.0969 -0.2885
 6479TIP3    H140928   6.094   0.120  14.715 -0.0965  0.0499 -0.9682
 6479TIP3    H240929   6.008   0.011  14.774  0.3691  0.2383  0.0688
 6480TIP3   OH240930   2.840   5.147   6.186  0.2852  0.0082  1.0061
 6480TIP3    H140931   2.753   5.110   6.200 -0.2681  1.4123  1.3312
 6480TIP3    H240932   2.890   5.076   6.145 -0.1544 -1.7843  3.4628
 6481TIP3   OH240933   0.880   4.175   5.241  0.3887  0.5815 -0.0647
 6481TIP3    H140934   0.873   4.238   5.169 -1.2491  0.8535  0.3254
 6481TIP3    H240935   0.801   4.188   5.293  1.5737  0.4214  1.8213
 6482TIP3   OH240936   3.142   3.155  15.303 -0.0016 -0.1597  0.1468
 6482TIP3    H140937   3.133   3.069  15.342  0.9287 -0.0210  0.6793
 6482TIP3    H240938   3.083   3.154  15.228 -0.2871 -1.1184  0.3859
 6483TIP3   OH240939   1.139   2.359  16.022  0.6170  0.1833 -0.6361
 6483TIP3    H140940   1.181   2.445  16.019  1.4549 -0.1972  0.0062
 6483TIP3    H240941   1.088   2.354  15.942  0.4629  1.3374 -0.6179
 6484TIP3   OH240942   1.212   1.545  15.885 -0.2927  0.1057  0.4474
 6484TIP3    H140943   1.200   1.451  15.897  0.0679 -0.0197 -0.1246
 6484TIP3    H240944   1.285   1.568  15.942 -1.1307  0.2602  1.4665
 6485TIP3   OH240945   4.364   4.703  12.706 -0.4076 -0.7422  0.2134
 6485TIP3    H140946   4.366   4.611  12.734 -2.3045 -0.8579  0.0297
 6485TIP3    H240947   4.307   4.704  12.630 -2.1865  0.9001  1.5004
 6486TIP3   OH240948   1.092   1.733   1.251  0.0126  0.2259  0.0911
 6486TIP3    H140949   1.000   1.756   1.263  0.1581  1.0682 -0.4127
 6486TIP3    H240950   1.134   1.765   1.331 -0.0341  0.3817  0.0544
 6487TIP3   OH240951   3.100   4.150  12.869 -0.2407 -0.2920  0.3613
 6487TIP3    H140952   3.122   4.235  12.907 -3.7237  0.7021  0.3095
 6487TIP3    H240953   3.039   4.111  12.931 -0.0275 -2.0210 -0.4826
 6488TIP3   OH240954   3.868   5.567  13.591 -0.4406 -0.6588 -0.2701
 6488TIP3    H140955   3.839   5.509  13.661  1.7923 -1.6461 -0.1334
 6488TIP3    H240956   3.797   5.631  13.582 -0.2404  0.2584  3.7468
 6489TIP3   OH240957   2.721   4.957   1.179 -0.3163  0.2879 -0.1083
 6489TIP3    H140958   2.689   5.027   1.237  1.2165  0.9911 -0.0852
 6489TIP3    H240959   2.699   4.876   1.224 -1.6049  0.7713  0.1443
 6490TIP3   OH240960   1.030   5.035   3.450  0.4033  0.7339  0.1010
 6490TIP3    H140961   0.995   5.055   3.537 -0.2086  0.4552 -0.0752
 6490TIP3    H240962   1.066   5.118   3.419 -0.2099  1.0623  0.2470
 6491TIP3   OH240963   1.869   1.380  15.367 -0.3536  0.5606  0.0434
 6491TIP3    H140964   1.936   1.317  15.395 -0.1035  0.7255 -0.1841
 6491TIP3    H240965   1.829   1.410  15.448  1.6102  2.4278  0.3650
 6492TIP3   OH240966   5.260   5.082  13.541 -0.1656 -0.6773 -0.1260
 6492TIP3    H140967   5.220   5.168  13.555  0.4033 -0.4978  0.3920
 6492TIP3    H240968   5.286   5.053  13.629  1.8570 -0.3055 -0.5776
 6493TIP3   OH240969   6.074   4.977  15.855 -0.0090  0.3469  0.6936
 6493TIP3    H140970   6.008   4.989  15.786  0.2835  0.8050  0.4838
 6493TIP3    H240971   6.037   4.912  15.914  1.2067 -2.6769 -1.7614
 6494TIP3   OH240972   1.874   3.408   3.469  0.1619 -0.2180 -0.6828
 6494TIP3    H140973   1.935   3.468   3.512 -0.4458  0.8605 -1.2819
 6494TIP3    H240974   1.927   3.331   3.448  0.5780 -0.5563  1.4916
 6495TIP3   OH240975   5.293   0.634  11.663  0.2902 -0.2709 -0.7766
 6495TIP3    H140976   5.386   0.615  11.651 -0.1579 -2.2823 -1.1985
 6495TIP3    H240977   5.266   0.672  11.580  0.7509  0.4581 -0.6037
 6496TIP3   OH240978   2.718   3.627   0.652 -0.5099  0.3986  0.1376
 6496TIP3    H140979   2.779   3.554   0.660 -1.2110  0.0234  2.4401
 6496TIP3    H240980   2.729   3.658   0.562  2.2254 -0.4004  0.1418
 6497TIP3   OH240981   2.819   3.842  14.514 -0.0637  0.0968  0.3662
 6497TIP3    H140982   2.767   3.794  14.449 -1.1946 -0.1325  1.4261
 6497TIP3    H240983   2.868   3.774  14.560 -2.4526 -0.2097  2.5714
 6498TIP3   OH240984   4.680   1.756  13.410 -0.6831  1.1418 -0.5558
 6498TIP3    H140985   4.587   1.779  13.416 -0.5594  1.8165 -1.1626
 6498TIP3    H240986   4.723   1.837  13.383  0.2616  1.1733  1.0097
 6499TIP3   OH240987   4.487   0.375   3.558  0.1672  0.5926 -0.1298
 6499TIP3    H140988   4.580   0.362   3.574  0.0212 -0.5811 -0.1996
 6499TIP3    H240989   4.481   0.463   3.520  0.9688  1.7651  2.3117
 6500TIP3   OH240990   2.265   2.503   3.960  0.1481  0.2352 -0.0367
 6500TIP3    H140991   2.207   2.427   3.957  2.8264 -1.9236  0.6163
 6500TIP3    H240992   2.289   2.512   4.052  1.2781  0.7373 -0.3691
 6501TIP3   OH240993   3.772   2.395  12.530 -0.1592 -0.2279 -0.7675
 6501TIP3    H140994   3.729   2.459  12.586  1.9756  1.4563 -0.9544
 6501TIP3    H240995   3.771   2.313  12.580 -2.0567  0.1830 -0.1169
 6502TIP3   OH240996   5.094   2.172   3.222  0.7217 -0.0313  0.8175
 6502TIP3    H140997   5.184   2.148   3.198  0.3981  1.0675 -1.6382
 6502TIP3    H240998   5.064   2.228   3.150 -2.7022 -2.1350  0.4963
 6503TIP3   OH240999   3.838   6.543  15.891  0.1466 -0.5250 -0.3308
 6503TIP3    H141000   3.767   6.508  15.944  0.7788 -2.3374 -0.6400
 6503TIP3    H241001   3.904   6.571  15.954 -1.4217  2.5367  0.0097
 6504TIP3   OH241002   4.399   0.914  10.716  0.0942  0.0903  0.2912
 6504TIP3    H141003   4.416   0.968  10.638 -5.3264  2.8377  0.7468
 6504TIP3    H241004   4.350   0.839  10.683 -0.7579  0.4276  0.7380
 6505TIP3   OH241005   2.440   3.468  15.698  0.0858 -0.0629  0.1054
 6505TIP3    H141006   2.381   3.515  15.757  0.1506 -0.5549  0.5613
 6505TIP3    H241007   2.431   3.376  15.722 -2.2783 -0.6707 -2.7270
 6506TIP3   OH241008   3.656   2.660  11.167 -0.6868 -0.2986  0.4794
 6506TIP3    H141009   3.582   2.630  11.116 -0.1741  0.1545 -0.5599
 6506TIP3    H241010   3.688   2.582  11.212 -0.6818 -0.8693 -0.4967
 6507TIP3   OH241011   2.839   3.339  10.959 -0.4456 -0.2382  0.1598
 6507TIP3    H141012   2.765   3.281  10.937 -0.8063 -0.4634  1.9352
 6507TIP3    H241013   2.904   3.281  10.998 -0.6664  0.4838  1.6339
 6508TIP3   OH241014   4.397   1.773   0.473 -0.4994  0.0475  0.1645
 6508TIP3    H141015   4.379   1.851   0.525  0.2939  0.8134 -0.6778
 6508TIP3    H241016   4.315   1.753   0.429 -0.4662  1.0005 -0.3657
 6509TIP3   OH241017   4.215   4.469   0.608 -0.0407 -0.2791 -0.0206
 6509TIP3    H141018   4.303   4.490   0.578  0.3054 -0.1861  1.0391
 6509TIP3    H241019   4.228   4.425   0.692 -1.0658  0.9486  0.7909
 6510TIP3   OH241020   1.966   5.681  13.231 -0.9173 -0.1625  0.0640
 6510TIP3    H141021   2.001   5.652  13.147 -0.1853  0.3392  0.1824
 6510TIP3    H241022   2.043   5.715  13.278 -1.2918 -0.5982  0.9985
 6511TIP3   OH241023   5.777   2.615  11.971  0.4153 -0.7985 -0.1271
 6511TIP3    H141024   5.810   2.600  11.883 -0.4307  0.1823 -0.6295
 6511TIP3    H241025   5.687   2.581  11.970 -0.0565  0.3936 -0.0522
 6512TIP3   OH241026   6.383   1.980  14.857 -0.6672  0.1124  0.2424
 6512TIP3    H141027   6.342   2.041  14.795  1.1761 -0.2413 -1.3299
 6512TIP3    H241028   6.414   2.037  14.928 -0.4747  0.8216 -0.3970
 6513TIP3   OH241029   1.018   2.358   0.744 -0.1079 -0.5019 -0.7263
 6513TIP3    H141030   1.055   2.370   0.657  0.2929 -0.1128 -0.5065
 6513TIP3    H241031   1.094   2.363   0.803 -0.2641 -1.6219 -0.4282
 6514TIP3   OH241032   3.577   3.477  11.627  0.4475  0.2556  0.1409
 6514TIP3    H141033   3.568   3.484  11.722 -0.5463  2.4292 -0.0771
 6514TIP3    H241034   3.511   3.537  11.593  0.6594 -0.6566 -1.9415
 6515TIP3   OH241035   4.106   1.121   0.885 -0.2989 -0.1125  0.3916
 6515TIP3    H141036   4.170   1.167   0.830 -0.0538 -1.1122 -0.1660
 6515TIP3    H241037   4.158   1.078   0.952 -0.5808  0.9304  1.3013
 6516TIP3   OH241038   4.198   3.946   1.276  0.6535 -0.2146  0.2090
 6516TIP3    H141039   4.236   4.020   1.228 -2.7793  1.6045  0.1775
 6516TIP3    H241040   4.200   3.974   1.368  2.1797 -1.4138  0.5596
 6517TIP3   OH241041   2.334   2.302   0.562  0.2067  0.2544 -0.0169
 6517TIP3    H141042   2.293   2.345   0.487  0.3599  1.7504  0.7261
 6517TIP3    H241043   2.379   2.226   0.525 -1.1047  0.0223 -1.1920
 6518TIP3   OH241044   2.463   4.240   1.399 -0.5103  0.1951  0.0317
 6518TIP3    H141045   2.546   4.193   1.406 -1.0673 -0.5511  1.8078
 6518TIP3    H241046   2.407   4.200   1.465 -3.0842 -0.8844 -2.7046
 6519TIP3   OH241047   3.225   0.921   0.178  1.0065  0.3096  0.1707
 6519TIP3    H141048   3.198   0.854   0.241 -0.0785  0.8754  0.3101
 6519TIP3    H241049   3.170   0.997   0.198  2.1657  1.2152 -0.0431
 6520TIP3   OH241050   2.769   6.321  16.772 -0.8595  0.4446  0.7188
 6520TIP3    H141051   2.780   6.416  16.774 -0.6651  0.4245  0.5907
 6520TIP3    H241052   2.768   6.298  16.679 -1.0274  0.3331  0.7465
 6521TIP3   OH241053   0.320   1.001  14.688  0.5534  0.0775 -0.7748
 6521TIP3    H141054   0.410   0.993  14.720  0.7075  1.1327 -0.9314
 6521TIP3    H241055   0.330   1.013  14.594  0.2898  1.2181 -0.6556
 6522TIP3   OH241056   5.781   5.547   4.019 -0.5496 -0.1579  0.2358
 6522TIP3    H141057   5.769   5.496   4.099  0.8827  0.4154  0.8346
 6522TIP3    H241058   5.748   5.634   4.041  0.6869  0.2516  0.5144
 6523TIP3   OH241059   4.441   5.028   4.924 -0.7569  0.5352  0.0215
 6523TIP3    H141060   4.449   5.121   4.907 -0.6768  0.4190 -0.5932
 6523TIP3    H241061   4.532   4.996   4.925 -0.7763  0.4818  0.3558
 6524TIP3   OH241062   2.758   0.976   1.829 -0.4696 -0.1526  0.4149
 6524TIP3    H141063   2.771   0.896   1.779 -0.6369 -0.2072  0.4610
 6524TIP3    H241064   2.836   0.982   1.886 -0.3575 -0.1723  0.2628
 6525TIP3   OH241065   3.868   0.863  14.278 -0.0081  0.3407 -0.6339
 6525TIP3    H141066   3.781   0.903  14.284  1.6237  4.0997 -0.7182
 6525TIP3    H241067   3.924   0.933  14.246  3.4033 -1.5119  1.0196
 6526TIP3   OH241068   2.162   3.633  12.631  0.1612  0.3941  0.0086
 6526TIP3    H141069   2.126   3.544  12.633  2.0481 -0.4280 -1.0423
 6526TIP3    H241070   2.131   3.670  12.549 -0.2507  0.5387  0.2304
 6527TIP3   OH241071   6.018   2.770  15.968 -0.3812  0.3417 -0.2085
 6527TIP3    H141072   6.070   2.771  16.048  0.1965  0.7250 -0.5843
 6527TIP3    H241073   6.062   2.708  15.911 -1.3175 -0.6261  0.1044
 6528TIP3   OH241074   2.466   6.713   4.698 -0.1615  0.3937  0.8217
 6528TIP3    H141075   2.491   6.797   4.734  1.1446 -0.3304  1.6496
 6528TIP3    H241076   2.529   6.698   4.627 -0.3232  0.0726  0.7448
 6529TIP3   OH241077   1.342   2.809   5.615 -0.1398 -0.2982  0.1382
 6529TIP3    H141078   1.345   2.770   5.703 -0.1688 -1.1740 -0.2456
 6529TIP3    H241079   1.412   2.765   5.567 -0.1691  0.1322 -0.3018
 6530TIP3   OH241080   6.338   1.218  14.490 -0.5791  0.0525 -0.3235
 6530TIP3    H141081   6.283   1.255  14.559  0.2361 -0.7311  0.7607
 6530TIP3    H241082   6.427   1.246  14.513 -0.1408 -1.3113 -0.3051
 6531TIP3   OH241083   6.727   4.456   5.411  0.2783  0.3053  0.2577
 6531TIP3    H141084   6.746   4.487   5.322 -1.8314 -1.3507 -0.8065
 6531TIP3    H241085   6.682   4.530   5.452  0.0091  0.5802 -0.5119
 6532TIP3   OH241086   3.874   0.508  10.691 -0.5747 -0.1020  0.0346
 6532TIP3    H141087   3.794   0.470  10.726 -1.0050  0.6179 -0.1409
 6532TIP3    H241088   3.865   0.602  10.708  0.1945 -0.0088 -0.0588
 6533TIP3   OH241089   3.786   5.905   6.452 -0.6627 -0.7849  0.0640
 6533TIP3    H141090   3.783   5.828   6.508 -0.9350  0.3601  1.6609
 6533TIP3    H241091   3.700   5.947   6.463 -0.2102  0.2083 -0.0976
 6534TIP3   OH241092   4.072   0.914  13.409 -0.0958  0.1475  0.5962
 6534TIP3    H141093   4.056   0.897  13.502 -0.3924 -1.2200  0.2988
 6534TIP3    H241094   4.125   0.994  13.408  0.8145 -0.4265  1.9857
 6535TIP3   OH241095   6.661   3.088   4.131 -0.0936 -0.2827  0.6630
 6535TIP3    H141096   6.753   3.113   4.139  0.1574 -1.8415  3.0876
 6535TIP3    H241097   6.647   3.079   4.037  2.2971 -0.2990  0.2747
 6536TIP3   OH241098   3.702   4.998  17.288 -0.1825 -0.2283 -0.3227
 6536TIP3    H141099   3.643   4.932  17.324  0.6481 -1.6569 -1.5028
 6536TIP3    H241100   3.774   5.003  17.350 -1.3652  1.3354  0.9923
 6537TIP3   OH241101   3.059   6.820  13.049  0.1432  0.0832 -0.2932
 6537TIP3    H141102   3.136   6.876  13.041  1.0392 -1.5285 -3.4239
 6537TIP3    H241103   2.987   6.871  13.011  0.4707  0.0764 -0.9246
 6538TIP3   OH241104   5.206   1.286   0.136  0.2477 -0.1505 -0.0886
 6538TIP3    H141105   5.120   1.248   0.123  0.2818  0.0410 -0.8507
 6538TIP3    H241106   5.206   1.314   0.228 -1.3107  1.8757 -0.6810
 6539TIP3   OH241107   3.602   3.142   2.532 -0.6786 -0.5795  0.6881
 6539TIP3    H141108   3.564   3.178   2.452 -0.2083 -0.8584  0.3377
 6539TIP3    H241109   3.588   3.048   2.525 -3.7226 -0.3326  2.5540
 6540TIP3   OH241110   4.908   5.312  13.381  0.0046  0.4084 -0.4357
 6540TIP3    H141111   4.933   5.336  13.291 -1.1078 -0.0538 -0.8834
 6540TIP3    H241112   4.882   5.220  13.375  2.7095 -0.4878  0.9530
 6541TIP3   OH241113   5.672   1.692  12.435 -0.2226 -0.2651  0.0505
 6541TIP3    H141114   5.719   1.734  12.363  0.3914 -2.2600 -0.7622
 6541TIP3    H241115   5.593   1.744  12.447  1.0106  1.7256 -0.1928
 6542TIP3   OH241116   2.422   2.195   3.388 -0.5478 -0.0238 -0.1558
 6542TIP3    H141117   2.395   2.204   3.480 -1.1550  0.5739 -0.3864
 6542TIP3    H241118   2.443   2.102   3.378  0.3740  0.0601  0.8211
 6543TIP3   OH241119   6.392   0.770   1.235 -0.6494 -0.0746  0.5567
 6543TIP3    H141120   6.325   0.764   1.167 -0.8703 -1.3958  0.8911
 6543TIP3    H241121   6.345   0.753   1.317  0.0610 -0.8251  0.8106
 6544TIP3   OH241122   3.961   1.389  14.721  0.2617 -0.0160  1.2021
 6544TIP3    H141123   3.936   1.438  14.643 -0.1046  0.6516  1.7377
 6544TIP3    H241124   4.056   1.375  14.711 -0.2237 -2.3197 -0.6838
 6545TIP3   OH241125   1.237   5.204  12.660 -0.1646  0.2466 -0.0085
 6545TIP3    H141126   1.172   5.168  12.719 -1.6754  2.6125 -0.1350
 6545TIP3    H241127   1.321   5.180  12.697 -1.0932 -3.1342 -0.0060
 6546TIP3   OH241128   3.549   4.747   2.926  0.3490 -0.1745  0.1463
 6546TIP3    H141129   3.578   4.704   3.007 -1.6181 -0.8616  0.5187
 6546TIP3    H241130   3.516   4.832   2.954 -1.1787 -0.7715  0.2157
 6547TIP3   OH241131   0.010   1.390   2.643 -0.7046  0.5542 -0.2093
 6547TIP3    H141132  -0.026   1.442   2.571 -0.0059  1.9245  0.4048
 6547TIP3    H241133   0.100   1.373   2.616 -0.5182  0.8564  0.2094
 6548TIP3   OH241134   6.235   1.812  13.193  0.1914 -0.7707 -0.3020
 6548TIP3    H141135   6.272   1.778  13.111 -1.5080  0.5387 -1.6425
 6548TIP3    H241136   6.309   1.855  13.236  0.3499  1.5308 -2.7912
 6549TIP3   OH241137   6.480   2.982  16.272  0.2737  0.5693 -0.2546
 6549TIP3    H141138   6.496   3.076  16.282 -2.9313  0.9987  1.4973
 6549TIP3    H241139   6.535   2.941  16.338  0.3081  1.3742  0.2247
 6550TIP3   OH241140   5.461   0.453   2.921 -0.1178 -0.4507  0.2303
 6550TIP3    H141141   5.556   0.451   2.929 -0.0722  1.3624  0.2166
 6550TIP3    H241142   5.441   0.383   2.859  1.2426 -0.5369 -0.1236
 6551TIP3   OH241143   1.510   5.927  11.891  0.2731 -0.0333  0.0340
 6551TIP3    H141144   1.581   5.931  11.826  0.8822  0.0291  0.6966
 6551TIP3    H241145   1.475   6.016  11.894  0.3630  0.0055 -0.0735
 6552TIP3   OH241146   6.227   2.515  16.548 -0.2458 -0.1664  0.5113
 6552TIP3    H141147   6.228   2.466  16.630  0.1844  0.0258  0.6212
 6552TIP3    H241148   6.165   2.586  16.564 -0.4752 -0.3681  0.5313
 6553TIP3   OH241149   3.935   2.550   3.882 -0.0478 -0.5194  0.0896
 6553TIP3    H141150   3.857   2.514   3.925 -0.2805 -0.2011 -0.0701
 6553TIP3    H241151   4.005   2.536   3.946 -0.7111  1.5088  1.3112
 6554TIP3   OH241152   4.580   2.902   2.288  0.2446 -0.1594 -0.0117
 6554TIP3    H141153   4.568   2.958   2.211 -1.7223 -1.3260 -0.5619
 6554TIP3    H241154   4.492   2.879   2.316  0.9650 -0.6742  1.9426
 6555TIP3   OH241155   6.334   2.948   6.701  0.0212  0.9677  0.2852
 6555TIP3    H141156   6.285   2.948   6.618  0.4874  0.6783  0.0093
 6555TIP3    H241157   6.279   2.999   6.761 -0.5997  0.6816 -0.0358
 6556TIP3   OH241158   6.360   4.694   3.037 -0.4787 -0.9741 -0.1026
 6556TIP3    H141159   6.421   4.735   3.098  0.5677 -0.5954 -1.3928
 6556TIP3    H241160   6.285   4.668   3.092  0.0653  0.1343  1.1886
 6557TIP3   OH241161   4.684   0.115   0.107 -0.4806 -0.2079  0.2405
 6557TIP3    H141162   4.698   0.145   0.017 -0.4568  0.0424  0.3271
 6557TIP3    H241163   4.639   0.188   0.149  0.1462 -0.0435  0.6267
 6558TIP3   OH241164   1.055   0.706  15.535  0.5915 -0.4251  0.4288
 6558TIP3    H141165   1.104   0.640  15.486 -0.7225 -3.8519  3.5530
 6558TIP3    H241166   1.121   0.748  15.591  0.8264 -1.5488  0.9995
 6559TIP3   OH241167   0.950   0.974   5.599 -0.1321  0.5320  0.3029
 6559TIP3    H141168   0.873   0.940   5.553  0.4610 -1.1903  0.5274
 6559TIP3    H241169   1.017   0.907   5.584  1.0971  1.6672  0.7247
 6560TIP3   OH241170   5.690   3.439   0.420 -0.3400 -0.1571  0.2720
 6560TIP3    H141171   5.748   3.419   0.493 -0.0588 -1.5942 -0.3198
 6560TIP3    H241172   5.608   3.465   0.462 -0.0194 -0.4576  1.1082
 6561TIP3   OH241173   3.584   4.645  12.984 -0.5040 -0.5178 -1.2192
 6561TIP3    H141174   3.488   4.645  12.983 -0.5072  0.1891 -1.4642
 6561TIP3    H241175   3.608   4.724  13.033 -0.0481 -1.1836 -0.3767
 6562TIP3   OH241176   4.413   6.286  11.228  0.7508 -0.1622  0.8510
 6562TIP3    H141177   4.359   6.243  11.294 -1.8027  0.9952 -0.4183
 6562TIP3    H241178   4.408   6.379  11.248  1.1432  0.0762 -0.1006
 6563TIP3   OH241179   5.644   3.568  15.655  0.3162  0.1844  0.2369
 6563TIP3    H141180   5.736   3.546  15.641  0.2447  0.4010 -0.6092
 6563TIP3    H241181   5.633   3.654  15.613 -0.2638  0.1681  0.3469
 6564TIP3   OH241182   0.247   2.295  14.496  0.1254 -0.3480 -0.4270
 6564TIP3    H141183   0.305   2.310  14.421  2.6776  2.2819  1.9136
 6564TIP3    H241184   0.278   2.213  14.534  0.6806 -0.2586 -0.6713
 6565TIP3   OH241185   4.969   0.588   3.395 -0.6103 -0.0354 -0.1485
 6565TIP3    H141186   5.056   0.626   3.408 -0.4518 -0.5998  0.4583
 6565TIP3    H241187   4.920   0.613   3.473 -1.6230  1.9898 -1.3820
 6566TIP3   OH241188   0.415   1.674   2.506  0.2341 -0.3951 -0.1537
 6566TIP3    H141189   0.477   1.735   2.547  1.3391 -1.4060 -0.3066
 6566TIP3    H241190   0.339   1.729   2.483 -0.5527  0.1682  3.4791
 6567TIP3   OH241191   2.539   1.817   1.224  0.5977  0.2759  0.2314
 6567TIP3    H141192   2.615   1.874   1.233  0.3793  0.3551  1.7842
 6567TIP3    H241193   2.565   1.735   1.268 -0.1021  0.2046  0.5167
 6568TIP3   OH241194   3.108   0.647  14.627  0.5124 -0.1019 -0.3137
 6568TIP3    H141195   3.129   0.739  14.645  1.2024 -0.1313 -0.9525
 6568TIP3    H241196   3.019   0.636  14.660  0.0773  1.0431 -1.0839
 6569TIP3   OH241197   2.997   1.796   3.714 -0.4510  0.0760 -0.1252
 6569TIP3    H141198   3.052   1.733   3.667 -0.4887  1.2342 -1.8057
 6569TIP3    H241199   2.990   1.762   3.803  0.4742 -1.6670 -0.7075
 6570TIP3   OH241200   2.616   3.916  15.716 -0.2893 -0.4614  0.3494
 6570TIP3    H141201   2.591   3.880  15.801 -0.6063  0.5815  0.7101
 6570TIP3    H241202   2.540   3.968  15.689  0.3448  0.3367  0.0739
 6571TIP3   OH241203   6.172   3.773   2.776  0.1941  0.8803  0.1275
 6571TIP3    H141204   6.183   3.836   2.848  0.4587  1.8888 -0.7851
 6571TIP3    H241205   6.253   3.721   2.778  0.2453  0.9736  0.4962
 6572TIP3   OH241206   6.193   4.797  12.689 -0.0921 -0.5590  0.3525
 6572TIP3    H141207   6.148   4.870  12.731  0.7432 -0.1849  0.6089
 6572TIP3    H241208   6.129   4.725  12.691 -0.0145 -0.6087  2.4411
 6573TIP3   OH241209   2.754   4.762  15.741 -0.3967 -0.1450  0.1077
 6573TIP3    H141210   2.748   4.681  15.792 -0.1580  1.4695  2.7555
 6573TIP3    H241211   2.848   4.780  15.737 -0.4198 -0.2416 -0.8699
 6574TIP3   OH241212   1.553   5.875  12.528  0.2676 -0.1415 -0.4828
 6574TIP3    H141213   1.549   5.917  12.614 -0.6305 -0.6544 -0.2653
 6574TIP3    H241214   1.536   5.946  12.466 -2.5011 -0.3511 -0.0607
 6575TIP3   OH241215   6.369   3.304   3.258 -0.2160  0.5094  0.2686
 6575TIP3    H141216   6.307   3.374   3.239 -0.3519  0.2718 -0.1755
 6575TIP3    H241217   6.438   3.315   3.194 -0.9519 -0.6387 -0.7482
 6576TIP3   OH241218   3.526   4.579  16.692  0.7326 -0.1285 -0.9438
 6576TIP3    H141219   3.602   4.521  16.680 -0.1697 -2.0272  2.0243
 6576TIP3    H241220   3.565   4.665  16.712  2.1066 -0.5150 -1.9062
 6577TIP3   OH241221   4.858   3.802   2.457 -0.1096  0.0518  0.3899
 6577TIP3    H141222   4.916   3.873   2.430 -0.4844 -0.4366 -1.8086
 6577TIP3    H241223   4.900   3.764   2.534  1.3853  1.0385  0.0778
 6578TIP3   OH241224   6.116   3.351  13.037 -0.4494  0.2467 -0.0027
 6578TIP3    H141225   6.152   3.437  13.059  0.5108 -0.5018  1.4570
 6578TIP3    H241226   6.077   3.321  13.119 -1.1453 -0.5358 -0.6199
 6579TIP3   OH241227   3.948   0.689   3.011 -0.0065  0.0322  0.5355
 6579TIP3    H141228   4.034   0.704   2.971  0.3884 -0.4467  1.1995
 6579TIP3    H241229   3.912   0.777   3.023 -0.7634  0.1501 -2.2362
 6580TIP3   OH241230   1.423   6.042   1.967  0.2605 -0.5257  0.2690
 6580TIP3    H141231   1.513   6.063   1.991  0.7484 -1.9097 -0.3095
 6580TIP3    H241232   1.394   6.119   1.917  1.3803 -0.4088 -0.2223
 6581TIP3   OH241233   3.228   0.993  16.150 -0.1892  0.2865 -0.2378
 6581TIP3    H141234   3.138   0.963  16.158 -0.2615  0.2251 -1.1585
 6581TIP3    H241235   3.237   1.062  16.216 -0.3681 -0.9382  1.0807
 6582TIP3   OH241236   2.920   1.295  11.943  0.0063 -0.2894  0.3649
 6582TIP3    H141237   2.925   1.272  12.036  0.0071 -0.3556  0.3483
 6582TIP3    H241238   2.989   1.360  11.931 -1.1598  1.0497  0.8047
 6583TIP3   OH241239   3.785   6.325  16.433 -0.3352 -0.6253 -0.2387
 6583TIP3    H141240   3.851   6.335  16.364 -0.3733 -1.2157 -0.3620
 6583TIP3    H241241   3.720   6.393  16.414  0.1958 -0.0901 -0.1613
 6584TIP3   OH241242   0.887   2.347  10.566 -0.0986  0.1347 -0.3939
 6584TIP3    H141243   0.910   2.438  10.585  0.3910 -0.1052  0.1875
 6584TIP3    H241244   0.948   2.295  10.619 -1.6157 -0.5253  0.7304
 6585TIP3   OH241245   2.311   1.853  15.221 -0.0580  0.7111 -0.4647
 6585TIP3    H141246   2.303   1.795  15.145 -0.8635  0.8216 -0.4738
 6585TIP3    H241247   2.263   1.932  15.196 -0.7318  0.5690  0.3276
 6586TIP3   OH241248   6.754   4.757   4.548  0.2135 -0.2687 -0.0540
 6586TIP3    H141249   6.734   4.684   4.606 -0.0469  0.8189  1.2549
 6586TIP3    H241250   6.834   4.731   4.504 -0.7748 -2.0577 -0.8493
 6587TIP3   OH241251   0.656   5.858  12.340  0.2334 -0.0580  0.3460
 6587TIP3    H141252   0.690   5.812  12.417 -0.4281  0.1268  0.7499
 6587TIP3    H241253   0.731   5.907  12.306  0.8147 -1.0272  0.2128
 6588TIP3   OH241254   4.161   1.177   4.774 -0.6643 -0.2969 -0.3205
 6588TIP3    H141255   4.075   1.151   4.808 -0.2285 -2.0270 -0.4895
 6588TIP3    H241256   4.223   1.120   4.819  0.2867  0.1246 -1.0801
 6589TIP3   OH241257   0.759   2.004  16.075 -0.1203  0.2099  0.3946
 6589TIP3    H141258   0.831   1.941  16.070 -0.2203  0.1108  0.2100
 6589TIP3    H241259   0.702   1.982  16.001 -0.0546  0.6447  0.2149
 6590TIP3   OH241260   4.955   3.670   0.745 -0.3110  0.1205  0.2205
 6590TIP3    H141261   5.029   3.622   0.708 -2.2566 -1.3676 -1.8003
 6590TIP3    H241262   4.952   3.752   0.695 -0.5843 -0.2029 -0.2892
 6591TIP3   OH241263   5.939   1.994   3.666 -0.1836  0.5385  0.5084
 6591TIP3    H141264   5.869   1.980   3.731 -0.5972  0.5558  0.0703
 6591TIP3    H241265   5.971   1.906   3.648 -1.2786  0.3499 -0.5868
 6592TIP3   OH241266   5.645   2.284   1.710  0.0813  0.2995  0.3053
 6592TIP3    H141267   5.670   2.322   1.626 -0.8409  0.2032 -0.0222
 6592TIP3    H241268   5.727   2.255   1.749  0.3755 -0.9895 -1.2230
 6593TIP3   OH241269   2.465   4.537   3.419  0.2438 -0.0667 -0.1637
 6593TIP3    H141270   2.410   4.488   3.358 -0.4147  0.9754 -0.4020
 6593TIP3    H241271   2.542   4.481   3.431 -1.1704 -1.8957  0.7552
 6594TIP3   OH241272   0.235   0.422   1.591 -0.4355 -0.0378 -0.1115
 6594TIP3    H141273   0.169   0.369   1.546 -1.5144  0.9693  0.2754
 6594TIP3    H241274   0.278   0.472   1.521  0.2876 -1.0514 -0.4241
 6595TIP3   OH241275   4.859   6.699   2.774  0.0363  0.0635  0.1052
 6595TIP3    H141276   4.922   6.655   2.833 -0.8194 -2.2134 -0.6130
 6595TIP3    H241277   4.853   6.641   2.698 -1.0628  1.5272 -0.9520
 6596TIP3   OH241278   1.790   3.628   2.336 -0.4638 -0.3643  0.4198
 6596TIP3    H141279   1.849   3.614   2.410 -0.3327  0.7019  0.5158
 6596TIP3    H241280   1.767   3.539   2.307  1.6813 -0.7978 -0.0287
 6597TIP3   OH241281   3.804   4.825   1.452  0.1699 -0.3171 -0.3562
 6597TIP3    H141282   3.882   4.819   1.397 -1.4949 -3.6591 -2.4975
 6597TIP3    H241283   3.761   4.905   1.424  1.6618  0.3786 -0.7109
 6598TIP3   OH241284   0.904   2.086  17.121 -0.3783 -0.2231  0.1726
 6598TIP3    H141285   0.933   2.025  17.053 -0.5747  0.0985 -0.2062
 6598TIP3    H241286   0.981   2.100  17.176  0.0636  0.2848 -0.5677
 6599TIP3   OH241287   0.645   5.413   3.897  0.5943 -0.6858  0.2556
 6599TIP3    H141288   0.655   5.347   3.966  0.6285 -0.7286  0.2105
 6599TIP3    H241289   0.696   5.378   3.823  2.4919  0.5055  0.9895
 6600TIP3   OH241290   2.099   0.333   4.508  0.1765 -0.3464  0.4618
 6600TIP3    H141291   2.134   0.335   4.597  0.2440 -0.2367  0.4333
 6600TIP3    H241292   2.176   0.317   4.452  0.1581 -0.2587  0.4118
 6601TIP3   OH241293   4.953   2.588   2.234 -0.0155 -0.1580 -0.2393
 6601TIP3    H141294   4.954   2.494   2.214  0.7975 -0.0890 -0.5180
 6601TIP3    H241295   4.944   2.592   2.329 -1.0134 -0.5078 -0.3103
 6602TIP3   OH241296   2.142   3.258   3.953  0.1405  0.0332 -0.1282
 6602TIP3    H141297   2.218   3.225   3.906  0.5727 -1.5093  1.5779
 6602TIP3    H241298   2.138   3.351   3.931  1.1758 -0.3485 -2.0094
 6603TIP3   OH241299   3.320   1.605   1.373  0.4569 -0.1027 -0.1026
 6603TIP3    H141300   3.336   1.640   1.461  0.9446  1.1344 -0.6631
 6603TIP3    H241301   3.323   1.510   1.384 -2.8162 -0.0649  1.8127
 6604TIP3   OH241302   1.759   1.479  15.594 -0.1659  0.7364 -0.0360
 6604TIP3    H141303   1.670   1.455  15.619 -0.3407 -0.2687 -1.5211
 6604TIP3    H241304   1.769   1.569  15.623 -0.3144 -0.3733  3.6113
 6605TIP3   OH241305   0.149   5.100  14.046 -0.1395 -0.3794  0.2241
 6605TIP3    H141306   0.145   5.018  13.997 -1.5583 -0.5313  0.5698
 6605TIP3    H241307   0.062   5.109  14.084  0.3274  0.7649  1.0457
 6606TIP3   OH241308   6.705   2.055   6.088  0.2753 -0.0236 -0.5112
 6606TIP3    H141309   6.732   1.986   6.028  0.1334  0.7073 -1.4265
 6606TIP3    H241310   6.741   2.135   6.050  0.5233  0.4006  0.5906
 6607TIP3   OH241311   0.250   2.362   4.527 -0.2382  0.3580 -0.3426
 6607TIP3    H141312   0.181   2.297   4.537 -0.6188  0.8032 -0.0557
 6607TIP3    H241313   0.213   2.427   4.466 -0.3380  0.9580  0.3499
 6608TIP3   OH241314   4.455   3.314   5.363 -0.5332 -0.4879 -0.0391
 6608TIP3    H141315   4.362   3.336   5.370 -0.9212 -1.4257 -2.0633
 6608TIP3    H241316   4.500   3.398   5.375 -1.5034 -0.3496  3.1123
 6609TIP3   OH241317   2.781   3.497   4.118  0.1772  0.3266  0.6033
 6609TIP3    H141318   2.774   3.423   4.179  0.0063  0.1776  0.4032
 6609TIP3    H241319   2.775   3.574   4.174  0.1244  0.1913  0.7870
 6610TIP3   OH241320   2.418   0.401  14.383  0.1515 -0.0367  0.5573
 6610TIP3    H141321   2.393   0.403  14.290  3.2467 -0.1805 -0.3513
 6610TIP3    H241322   2.387   0.485  14.418 -1.0312  0.0300 -0.5884
 6611TIP3   OH241323   5.908   0.557  11.954  0.0428 -0.1485  0.1709
 6611TIP3    H141324   5.906   0.530  12.046  2.1459 -1.9432 -0.2571
 6611TIP3    H241325   5.976   0.624  11.950  1.1198 -1.2375 -0.3181
 6612TIP3   OH241326   0.779   1.793   1.035  0.6903 -0.4649  0.2205
 6612TIP3    H141327   0.803   1.860   1.099  1.5695 -1.1578  0.6228
 6612TIP3    H241328   0.741   1.842   0.962  1.8250  0.5237  0.2808
 6613TIP3   OH241329   1.829   6.444  12.966  0.3852 -0.3066 -0.9592
 6613TIP3    H141330   1.783   6.494  13.034 -1.6276 -1.2590 -1.5890
 6613TIP3    H241331   1.917   6.482  12.964 -0.3445  1.5255  0.3053
 6614TIP3   OH241332   5.334   2.280  15.616 -0.0746 -0.2363  0.3071
 6614TIP3    H141333   5.410   2.229  15.588 -0.4787 -1.0619  0.7089
 6614TIP3    H241334   5.272   2.273  15.543 -0.0630 -0.1821  0.2926
 6615TIP3   OH241335   2.467   5.800   1.053  0.1078 -0.3717  0.3250
 6615TIP3    H141336   2.464   5.802   0.957  2.6063 -1.1035  0.1781
 6615TIP3    H241337   2.426   5.716   1.076  0.9280 -0.9333 -0.2161
 6616TIP3   OH241338   5.534   5.707  15.170 -0.2054 -0.5454 -0.4470
 6616TIP3    H141339   5.545   5.614  15.156 -1.9400 -0.7353 -0.7159
 6616TIP3    H241340   5.455   5.730  15.121 -1.8744  0.3196  2.5191
 6617TIP3   OH241341   2.338   2.335  16.291  0.0086 -0.0464 -0.0848
 6617TIP3    H141342   2.249   2.345  16.258  0.5353 -0.9222 -1.8480
 6617TIP3    H241343   2.335   2.255  16.344 -0.0586 -0.6319 -0.9512
 6618TIP3   OH241344   1.124   1.169   4.571 -0.0396  0.0271  0.1660
 6618TIP3    H141345   1.193   1.235   4.571 -1.4124  1.4892  1.7434
 6618TIP3    H241346   1.054   1.207   4.519 -0.3079 -0.7718 -0.0691
 6619TIP3   OH241347   3.273   4.430  15.097  0.1524  0.5583  0.1153
 6619TIP3    H141348   3.185   4.401  15.123  0.8239 -2.1426 -0.4005
 6619TIP3    H241349   3.274   4.421  15.002  0.7008  1.4741  0.0294
 6620TIP3   OH241350   6.717   5.604   4.273 -0.2671  0.2264  0.3685
 6620TIP3    H141351   6.692   5.662   4.200 -0.2992  0.0859  0.2683
 6620TIP3    H241352   6.684   5.649   4.351  0.4359  0.7508  0.3635
 6621TIP3   OH241353   6.818   1.576   2.216  0.5164 -0.0539 -0.1848
 6621TIP3    H141354   6.755   1.557   2.285  0.6575  2.4118  0.6626
 6621TIP3    H241355   6.833   1.670   2.222  2.3892 -0.1968 -2.0005
 6622TIP3   OH241356   2.008   5.306   4.523 -0.4308  0.8222  0.5996
 6622TIP3    H141357   1.916   5.333   4.527 -1.1021 -1.5041  1.1508
 6622TIP3    H241358   2.006   5.211   4.515  1.9509  0.6995  0.9223
 6623TIP3   OH241359   6.441   3.808  12.464 -0.0370  0.4979 -0.4853
 6623TIP3    H141360   6.458   3.833  12.374 -0.6950 -0.5741 -0.9200
 6623TIP3    H241361   6.480   3.878  12.517 -0.4552  1.5878 -1.6142
 6624TIP3   OH241362   1.035   6.356   3.018 -0.3782 -0.1127  0.0648
 6624TIP3    H141363   0.975   6.394   3.082 -0.8825  0.3958 -0.7013
 6624TIP3    H241364   1.122   6.377   3.051 -0.6410  0.5845  0.3236
 6625TIP3   OH241365   4.890   4.350  16.955 -0.0745  0.1242  0.5073
 6625TIP3    H141366   4.860   4.403  16.881 -1.0045  0.2572  0.9718
 6625TIP3    H241367   4.820   4.286  16.968 -0.2965  0.6347  1.8022
 6626TIP3   OH241368   1.610   3.112   5.129 -0.0979 -0.4033  0.0736
 6626TIP3    H141369   1.539   3.049   5.117 -0.0661 -0.7743  1.6557
 6626TIP3    H241370   1.571   3.182   5.182  0.3451  0.0442 -0.1888
 6627TIP3   OH241371   5.003   0.918  14.564  1.3393 -0.0381  0.3103
 6627TIP3    H141372   5.017   0.862  14.488  1.1100  0.5390 -0.1586
 6627TIP3    H241373   4.942   0.869  14.619  0.1532  0.3054 -0.6909
 6628TIP3   OH241374   1.987   5.122  13.304 -0.3958  0.2163  0.1403
 6628TIP3    H141375   2.042   5.046  13.287  0.5885  0.7820  0.7820
 6628TIP3    H241376   2.040   5.179  13.359 -1.1620  1.3236 -0.2369
 6629TIP3   OH241377   4.275   5.881  15.946 -0.5085 -0.3887 -0.4755
 6629TIP3    H141378   4.197   5.841  15.908 -0.3873 -0.1853 -0.9396
 6629TIP3    H241379   4.242   5.935  16.017 -0.6836 -1.2194  0.0798
 6630TIP3   OH241380   2.829   4.601  16.183 -0.1312  0.4485 -0.7649
 6630TIP3    H141381   2.783   4.681  16.210 -0.6847 -0.1696  0.1386
 6630TIP3    H241382   2.916   4.610  16.221 -1.5590 -1.4063  3.1601
 6631TIP3   OH241383   0.625   3.304   5.718 -0.8520 -0.6364 -0.1825
 6631TIP3    H141384   0.531   3.293   5.700 -0.5803 -2.1751 -0.7499
 6631TIP3    H241385   0.629   3.366   5.791 -2.2806  0.0359 -0.6634
 6632TIP3   OH241386   4.067   3.580  14.027  0.0216  0.5328  0.4575
 6632TIP3    H141387   3.975   3.554  14.025  0.1328  0.0944  0.8867
 6632TIP3    H241388   4.076   3.629  14.109  0.5923 -1.0491  1.3627
 6633TIP3   OH241389   4.754   4.514  14.202  0.1373 -0.6017 -0.3058
 6633TIP3    H141390   4.768   4.586  14.140  1.0172 -0.8784 -0.4324
 6633TIP3    H241391   4.663   4.488  14.187  0.6103 -1.2743 -2.1323
 6634TIP3   OH241392   0.892   3.394   5.184 -0.0951 -0.2240  0.4177
 6634TIP3    H141393   0.987   3.388   5.193  0.0305 -0.1974 -0.7951
 6634TIP3    H241394   0.868   3.474   5.231  0.4316 -0.4407  1.0563
 6635TIP3   OH241395   0.986   2.605  17.118 -0.2919 -0.2333  0.0927
 6635TIP3    H141396   0.992   2.520  17.161 -0.0542  0.8540  2.2621
 6635TIP3    H241397   1.070   2.647  17.136 -0.0324  0.0980 -1.7894
 6636TIP3   OH241398   5.381   4.587   0.188  0.6666 -0.4225  0.6139
 6636TIP3    H141399   5.362   4.498   0.161 -1.8608  0.4024 -0.4626
 6636TIP3    H241400   5.477   4.593   0.186  0.8012 -2.6061 -0.8952
 6637TIP3   OH241401   5.831   6.384  17.094 -0.1396 -0.4060 -0.1624
 6637TIP3    H141402   5.885   6.419  17.165 -1.2268  0.7301  0.1162
 6637TIP3    H241403   5.755   6.441  17.092 -0.0464 -0.3294 -2.3477
 6638TIP3   OH241404   4.109   4.551   5.523  0.0103  0.3187 -0.6564
 6638TIP3    H141405   4.050   4.476   5.515  0.3574 -0.0168 -0.0416
 6638TIP3    H241406   4.177   4.522   5.584  0.7679  0.7309 -1.2987
 6639TIP3   OH241407   0.540   3.125   3.962 -0.0655  0.6387  0.0696
 6639TIP3    H141408   0.482   3.200   3.978 -1.6219 -0.6035  0.4300
 6639TIP3    H241409   0.534   3.073   4.042 -1.3186 -1.3619 -1.2841
 6640TIP3   OH241410   6.747   3.944   2.991  0.6728 -0.1205  0.1340
 6640TIP3    H141411   6.694   3.942   2.911 -0.0402  2.1154  0.5077
 6640TIP3    H241412   6.770   3.853   3.007  0.1077 -0.6899 -2.1488
 6641TIP3   OH241413   3.433   3.049  16.757 -0.6763  0.5028  0.0884
 6641TIP3    H141414   3.515   3.042  16.806 -0.2679  2.5142 -0.2548
 6641TIP3    H241415   3.370   3.001  16.810  0.5491 -0.4282  0.7469
 6642TIP3   OH241416   3.410   2.091   0.375  0.5330  0.3650  0.5497
 6642TIP3    H141417   3.390   2.184   0.368  1.5885  0.5871  0.4959
 6642TIP3    H241418   3.377   2.053   0.293  0.0334  0.6686  0.6049
 6643TIP3   OH241419   0.748   3.737  11.329  0.2022 -0.1114 -0.1688
 6643TIP3    H141420   0.683   3.793  11.287  0.1987 -1.6882 -2.3798
 6643TIP3    H241421   0.715   3.648  11.316  1.4241 -0.7634  1.1073
 6644TIP3   OH241422   2.070   4.618  11.818 -0.2933 -0.9018  0.3411
 6644TIP3    H141423   2.045   4.549  11.879  0.5494 -2.4439 -1.0223
 6644TIP3    H241424   2.030   4.593  11.735  0.5797 -0.1101 -0.3349
 6645TIP3   OH241425   4.346   1.848   2.509 -0.3811  0.2023  0.4652
 6645TIP3    H141426   4.352   1.766   2.558 -0.2678  0.0015  0.1169
 6645TIP3    H241427   4.423   1.848   2.453 -0.6567  0.3008  0.0873
 6646TIP3   OH241428   2.986   3.678  14.647  0.8820 -0.5496 -0.1171
 6646TIP3    H141429   3.005   3.587  14.625 -1.6155 -1.3137  0.6450
 6646TIP3    H241430   2.992   3.681  14.743 -2.2149 -0.7784  0.1585
 6647TIP3   OH241431   2.137   2.519   4.816  0.3843  0.0233  0.2564
 6647TIP3    H141432   2.046   2.503   4.790 -0.0222  0.7099  1.2075
 6647TIP3    H241433   2.185   2.526   4.733 -0.3587 -0.6985 -0.2464
 6648TIP3   OH241434   4.829   5.073  11.636 -0.5471 -0.0993  0.2731
 6648TIP3    H141435   4.924   5.073  11.626 -0.7235  1.2222 -1.7488
 6648TIP3    H241436   4.803   5.165  11.626 -2.1414 -0.5950 -0.4150
 6649TIP3   OH241437   4.366   5.809  14.139  0.9559 -0.0961 -0.2016
 6649TIP3    H141438   4.436   5.776  14.196  2.0744  1.4042 -0.6705
 6649TIP3    H241439   4.290   5.818  14.197  1.1666 -1.6155  0.3427
 6650TIP3   OH241440   2.139   4.197  14.739  0.0734  0.1065  0.2992
 6650TIP3    H141441   2.142   4.207  14.835 -0.3648  0.3552  0.2888
 6650TIP3    H241442   2.079   4.266  14.710 -0.6893 -0.6973 -0.0454
 6651TIP3   OH241443   0.030   3.391   0.465  0.2889 -0.0888  0.1364
 6651TIP3    H141444   0.074   3.332   0.525  0.4312 -0.6272 -0.4893
 6651TIP3    H241445  -0.063   3.373   0.478  0.2959  0.3074  0.7130
 6652TIP3   OH241446   4.365   6.816   3.273 -0.6958  0.1193 -0.0805
 6652TIP3    H141447   4.402   6.893   3.317 -1.2378  0.0190  0.5502
 6652TIP3    H241448   4.441   6.768   3.241 -0.3254  0.4794  0.2596
 6653TIP3   OH241449   1.221   2.976   2.947  0.4343  0.0611 -0.2261
 6653TIP3    H141450   1.213   2.883   2.967 -2.6018  1.1724  4.4730
 6653TIP3    H241451   1.132   3.003   2.924  0.7137  2.3217  1.2474
 6654TIP3   OH241452   1.445   6.297  12.875  0.6653  0.1142  0.0693
 6654TIP3    H141453   1.503   6.368  12.904 -0.2858  0.7603  0.4199
 6654TIP3    H241454   1.366   6.342  12.846  0.7329 -0.6965 -1.4055
 6655TIP3   OH241455   4.934   5.788   5.397 -0.0797 -0.5567 -0.1781
 6655TIP3    H141456   4.873   5.858   5.422 -0.5540 -0.9995 -0.0701
 6655TIP3    H241457   4.957   5.746   5.480 -0.5686 -1.1475 -0.3305
 6656TIP3   OH241458   0.113   0.377   4.734  0.2633 -0.5964 -0.3734
 6656TIP3    H141459   0.148   0.461   4.762 -0.4747 -0.5099  0.3040
 6656TIP3    H241460   0.135   0.317   4.805 -1.2772 -0.4572  0.2436
 6657TIP3   OH241461   4.073   3.470  17.108 -0.0191  0.1699 -0.1720
 6657TIP3    H141462   4.123   3.431  17.037  0.2290 -3.7088  1.9655
 6657TIP3    H241463   4.139   3.502  17.170 -0.2125  0.9134 -0.3458
 6658TIP3   OH241464   2.735   1.544   3.356  0.2140 -0.2873 -0.2530
 6658TIP3    H141465   2.718   1.455   3.327  0.0141 -0.2169 -0.3562
 6658TIP3    H241466   2.804   1.576   3.298  0.1264 -0.2987 -0.3645
 6659TIP3   OH241467   0.991   3.104   5.158 -0.0762  0.2789  0.2776
 6659TIP3    H141468   1.015   3.034   5.097  0.5550 -1.3677  2.3433
 6659TIP3    H241469   1.070   3.119   5.209 -0.8501  1.0361  1.2694
 6660TIP3   OH241470   3.777   0.743  16.840 -1.0481 -0.3069  0.2379
 6660TIP3    H141471   3.797   0.826  16.884 -1.0764  1.4558 -2.9008
 6660TIP3    H241472   3.857   0.692  16.846 -1.1931 -0.3061  2.6551
 6661TIP3   OH241473   0.012   6.438  14.680 -0.3003  0.5559  0.1650
 6661TIP3    H141474   0.026   6.345  14.663 -0.9993  0.6472 -0.9753
 6661TIP3    H241475   0.100   6.475  14.685 -0.0461  0.1447 -1.1891
 6662TIP3   OH241476   3.441   1.047  15.256  0.7984 -0.4419 -0.3415
 6662TIP3    H141477   3.451   1.111  15.327 -0.4749  1.1513 -1.5541
 6662TIP3    H241478   3.348   1.026  15.255  0.4666  0.9371 -2.6638
 6663TIP3   OH241479   3.641   1.099   4.735  1.2737 -0.3863  0.2941
 6663TIP3    H141480   3.704   1.071   4.668  1.0721  0.1714 -0.1280
 6663TIP3    H241481   3.556   1.096   4.690  1.2259  0.7055  0.3153
 6664TIP3   OH241482   0.925   0.556   1.331  0.4686  0.3110  0.0046
 6664TIP3    H141483   0.984   0.484   1.354 -1.6000 -1.4198  0.1141
 6664TIP3    H241484   0.965   0.596   1.253  2.4665  0.0484  0.8723
 6665TIP3   OH241485   1.309   1.111  15.124  0.6054  0.0365 -0.1449
 6665TIP3    H141486   1.252   1.043  15.089 -0.5319  0.4932  0.7917
 6665TIP3    H241487   1.397   1.086  15.095  0.0979 -1.3879 -0.4825
 6666TIP3   OH241488   1.790   6.053  13.240 -0.0139 -0.0728 -0.1834
 6666TIP3    H141489   1.882   6.061  13.263 -0.4249  0.2837  1.4343
 6666TIP3    H241490   1.749   6.133  13.275 -0.9759 -0.3708 -0.6029
 6667TIP3   OH241491   3.494   2.544  16.718 -0.2446 -0.3454 -0.1527
 6667TIP3    H141492   3.524   2.510  16.803 -1.8932 -0.1084  0.5292
 6667TIP3    H241493   3.433   2.477  16.686 -1.1614  0.5259 -0.2262
 6668TIP3   OH241494   1.340   3.919   1.598 -0.3449 -0.0547 -0.0302
 6668TIP3    H141495   1.359   3.868   1.519 -1.7310 -1.1153  0.2891
 6668TIP3    H241496   1.389   4.000   1.587  1.3141 -1.1413 -0.9014
 6669TIP3   OH241497   3.897   1.603  16.878  0.3670 -0.7688 -0.3658
 6669TIP3    H141498   3.966   1.546  16.915  0.9579  0.6911  0.8166
 6669TIP3    H241499   3.830   1.606  16.946  0.5689  0.3552 -0.2179
 6670TIP3   OH241500   2.580   6.314   0.297 -0.2037 -0.0744  0.4080
 6670TIP3    H141501   2.610   6.223   0.300  0.0874  0.0603  2.0557
 6670TIP3    H241502   2.509   6.318   0.361 -2.6941  0.0174 -2.2378
 6671TIP3   OH241503   5.823   2.527   5.767 -1.0013  0.5314  0.0386
 6671TIP3    H141504   5.767   2.480   5.829  0.6403 -1.3626  0.1598
 6671TIP3    H241505   5.909   2.529   5.810 -0.8621  3.0418 -0.3016
 6672TIP3   OH241506   6.241   5.884   4.784  0.7281  0.0508 -0.3387
 6672TIP3    H141507   6.273   5.965   4.744  0.3686 -0.1548 -1.0410
 6672TIP3    H241508   6.151   5.875   4.754  0.2629  0.2031  0.9977
 6673TIP3   OH241509   2.309   0.199   2.321  0.1417 -1.0410 -0.1754
 6673TIP3    H141510   2.290   0.236   2.234  1.2886  0.8511  0.3390
 6673TIP3    H241511   2.232   0.219   2.373 -0.2633 -1.5678 -0.5649
 6674TIP3   OH241512   1.598   5.328  11.108 -0.0613  0.1097  0.1362
 6674TIP3    H141513   1.568   5.238  11.095  0.5944 -0.2098  0.7925
 6674TIP3    H241514   1.533   5.382  11.063 -1.1209 -0.6230  0.7928
 6675TIP3   OH241515   0.007   6.334   5.557  0.2316  0.4231 -0.2763
 6675TIP3    H141516   0.037   6.373   5.639  0.0161  0.0695 -0.0286
 6675TIP3    H241517   0.068   6.368   5.491  0.9283  0.0231  0.1622
 6676TIP3   OH241518   3.150   5.451  16.074  0.0084 -0.5782  0.0863
 6676TIP3    H141519   3.196   5.501  16.142 -0.4744 -0.8972  0.6558
 6676TIP3    H241520   3.216   5.393  16.037  0.2805 -0.3874  0.2694
 6677TIP3   OH241521   4.007   2.314   0.133 -0.2801  0.5619 -0.1628
 6677TIP3    H141522   3.922   2.271   0.132  1.6747 -3.4726 -0.3887
 6677TIP3    H241523   4.012   2.358   0.049 -1.9326  0.4724 -0.3310
 6678TIP3   OH241524   3.763   0.399   3.868 -0.3790  0.2885  0.1143
 6678TIP3    H141525   3.758   0.362   3.779  2.2198  1.4570 -0.5670
 6678TIP3    H241526   3.818   0.338   3.916  2.6497  2.3726 -0.5951
 6679TIP3   OH241527   4.862   1.378  12.035  0.1291 -0.1585 -0.3021
 6679TIP3    H141528   4.873   1.283  12.043 -0.7042 -0.3325 -1.1174
 6679TIP3    H241529   4.905   1.400  11.952  0.2308  0.1576 -0.1658
 6680TIP3   OH241530   0.277   3.630   0.668 -0.3119 -0.4794 -0.1061
 6680TIP3    H141531   0.367   3.607   0.693 -0.9573 -0.8178  1.9502
 6680TIP3    H241532   0.222   3.568   0.715 -1.6709  0.2443 -0.7200
 6681TIP3   OH241533   0.325   3.459  15.100 -0.0766 -0.0469 -0.1727
 6681TIP3    H141534   0.410   3.465  15.143  0.1998 -1.1270 -0.5748
 6681TIP3    H241535   0.316   3.367  15.076 -1.7470 -0.1232  0.6648
 6682TIP3   OH241536   4.657   0.704   2.238  0.3437 -0.2677 -0.3726
 6682TIP3    H141537   4.706   0.713   2.157  0.0404 -0.3887 -0.5691
 6682TIP3    H241538   4.661   0.790   2.279  2.0293 -0.6597  0.3618
 6683TIP3   OH241539   1.877   4.067   1.337  0.2265  0.1856 -0.1496
 6683TIP3    H141540   1.883   3.997   1.272 -0.4312 -0.6431  0.6646
 6683TIP3    H241541   1.946   4.046   1.400 -0.1513  0.1111  0.2397
 6684TIP3   OH241542   2.607   4.680  12.386 -0.0394 -0.1821 -0.5783
 6684TIP3    H141543   2.637   4.590  12.380 -0.3424 -0.1790 -2.4489
 6684TIP3    H241544   2.639   4.722  12.306  1.9416  1.9585  1.2389
 6685TIP3   OH241545   5.998   0.433  17.184 -0.4364  0.0768  0.0030
 6685TIP3    H141546   6.058   0.365  17.152  1.1645  0.4244  2.1512
 6685TIP3    H241547   5.998   0.422  17.279 -2.3939  1.2582  0.1644
 6686TIP3   OH241548   3.805   2.615   2.843 -0.3448 -0.6569 -0.3094
 6686TIP3    H141549   3.785   2.553   2.912  2.4850 -2.2458 -0.8194
 6686TIP3    H241550   3.855   2.684   2.886  1.5144 -1.7035 -0.7509
 6687TIP3   OH241551   2.928   4.590   1.268 -0.3116 -0.6513  0.2456
 6687TIP3    H141552   2.985   4.591   1.346  0.5394  2.1903 -0.3517
 6687TIP3    H241553   2.864   4.521   1.286  0.9222 -1.2132  2.7103
 6688TIP3   OH241554   2.579   3.356   5.957  0.0691 -0.2516 -0.1439
 6688TIP3    H141555   2.610   3.297   5.888  1.5656  2.3867 -1.8122
 6688TIP3    H241556   2.560   3.299   6.031  0.7764 -2.8944 -1.9336
 6689TIP3   OH241557   0.019   6.619  14.372 -0.3374  0.3889  0.0139
 6689TIP3    H141558  -0.068   6.660  14.369 -0.5829 -0.2605 -2.6237
 6689TIP3    H241559   0.004   6.528  14.350  0.6797 -0.4031  2.4346
 6690TIP3   OH241560   4.165   1.651   2.903  0.6012 -0.9494  0.6048
 6690TIP3    H141561   4.069   1.650   2.898  0.6140  1.7187 -1.1411
 6690TIP3    H241562   4.186   1.586   2.970 -2.4800 -0.8293  1.7620
 6691TIP3   OH241563   1.479   5.821  11.348 -0.1121  0.3957  0.2961
 6691TIP3    H141564   1.558   5.772  11.327 -0.0827 -0.3321  2.0088
 6691TIP3    H241565   1.510   5.900  11.392 -0.3633 -0.9098  2.9507
 6692TIP3   OH241566   6.747   2.792   3.229 -0.3879  0.2072  0.4012
 6692TIP3    H141567   6.773   2.745   3.150 -0.2572  0.4912  0.2733
 6692TIP3    H241568   6.672   2.846   3.201  0.0389  0.7648  0.3190
 6693TIP3   OH241569   6.194   2.325  13.411  0.6640  0.0535 -0.4336
 6693TIP3    H141570   6.217   2.274  13.489 -1.5383 -0.9743 -0.4320
 6693TIP3    H241571   6.210   2.266  13.338  0.8755  0.3649 -0.6429
 6694TIP3   OH241572   1.033   0.086  11.137  0.6004 -0.6897 -0.0988
 6694TIP3    H141573   1.018   0.031  11.061  0.4908 -1.0122  0.1546
 6694TIP3    H241574   1.123   0.066  11.164  2.2511  2.7213 -2.8151
 6695TIP3   OH241575   3.173   4.681  17.049 -0.4290 -0.2582 -0.0500
 6695TIP3    H141576   3.213   4.600  17.080 -0.1405  0.9235  2.7688
 6695TIP3    H241577   3.157   4.666  16.955  0.1705 -3.3133  0.3098
 6696TIP3   OH241578   4.360   0.713  14.227 -0.3568  0.2396  0.2717
 6696TIP3    H141579   4.336   0.621  14.229 -2.5897  0.7697 -0.3151
 6696TIP3    H241580   4.303   0.754  14.292 -2.3173  1.7971 -2.2986
 6697TIP3   OH241581   4.752   0.684   4.253 -0.5411 -0.7087  0.0841
 6697TIP3    H141582   4.770   0.606   4.306  1.8551 -0.5491 -0.4309
 6697TIP3    H241583   4.809   0.751   4.289  0.0077 -0.1864 -1.7230
 6698TIP3   OH241584   1.284   2.286   2.687 -0.4573 -0.1843 -0.0863
 6698TIP3    H141585   1.303   2.373   2.651 -0.4583  0.0041  0.3665
 6698TIP3    H241586   1.219   2.249   2.628  0.5962 -0.4447 -1.1033
 6699TIP3   OH241587   2.131   2.068  14.310 -0.4457  0.2229 -0.3762
 6699TIP3    H141588   2.226   2.052  14.314 -0.2626  1.9285  3.7302
 6699TIP3    H241589   2.096   2.023  14.386 -2.4931  2.4839  0.0720
 6700TIP3   OH241590   2.078   1.921   3.465 -0.2716  0.1777 -0.6802
 6700TIP3    H141591   2.009   1.921   3.532  0.5441 -0.6412  0.1746
 6700TIP3    H241592   2.159   1.920   3.515  0.3514  0.3034 -1.6894
 6701TIP3   OH241593   2.535   3.076   0.686 -0.0671 -0.2251  1.1469
 6701TIP3    H141594   2.543   3.166   0.654  1.2498 -1.1822 -1.3773
 6701TIP3    H241595   2.465   3.038   0.632 -0.2871 -0.8755  1.8720
 6702TIP3   OH241596   6.475   5.539  15.448  0.4346 -0.2503 -0.4769
 6702TIP3    H141597   6.393   5.578  15.418  0.1684 -0.6760 -0.2924
 6702TIP3    H241598   6.535   5.614  15.455 -0.3040  0.2545  0.6432
 6703TIP3   OH241599   2.183   5.720   0.257 -0.0075 -0.1056 -0.2129
 6703TIP3    H141600   2.221   5.805   0.279 -1.1624  0.5800 -0.7938
 6703TIP3    H241601   2.126   5.738   0.182  0.9105 -1.6850 -1.3078
 6704TIP3   OH241602   5.403   6.647  16.555  0.0115 -0.2601  0.6349
 6704TIP3    H141603   5.358   6.717  16.603 -0.7732 -1.0271  1.0379
 6704TIP3    H241604   5.467   6.613  16.618  1.5688  1.2149 -0.1338
 6705TIP3   OH241605   4.166   1.036   1.837 -0.2597  0.3437 -0.2068
 6705TIP3    H141606   4.156   1.082   1.920 -0.9269 -0.6430  0.2656
 6705TIP3    H241607   4.085   1.054   1.790 -1.0197 -1.2389  0.4390
 6706TIP3   OH241608   1.790   6.374   4.996 -0.2714 -0.2010 -0.7867
 6706TIP3    H141609   1.871   6.368   5.046 -0.6824 -0.3608 -0.1310
 6706TIP3    H241610   1.781   6.288   4.954  0.8510  0.4409 -2.3548
 6707TIP3   OH241611   0.249   1.682   4.540 -0.0198 -0.4497 -0.0234
 6707TIP3    H141612   0.336   1.692   4.500  1.0958 -2.8564  1.7286
 6707TIP3    H241613   0.188   1.693   4.467  1.6730  2.1222 -1.1499
 6708TIP3   OH241614   0.380   2.211   2.473 -0.0851 -0.0627 -0.4140
 6708TIP3    H141615   0.320   2.148   2.512  0.9499  0.1030  1.5387
 6708TIP3    H241616   0.324   2.280   2.439 -1.0099  0.2244  1.6070
 6709TIP3   OH241617   1.415   3.906  15.228  0.1857  0.0653  0.4774
 6709TIP3    H141618   1.392   3.814  15.219  0.1549  0.2240 -1.3513
 6709TIP3    H241619   1.442   3.916  15.319 -0.2135 -1.6507  0.7951
 6710TIP3   OH241620   2.448   3.868  12.015 -0.1178 -0.5067  0.5268
 6710TIP3    H141621   2.433   3.961  12.029 -1.5346 -0.6930  0.2810
 6710TIP3    H241622   2.435   3.828  12.101  0.6468 -0.4678  0.6656
 6711TIP3   OH241623   2.949   0.321  16.208  0.0761  0.1964 -0.2782
 6711TIP3    H141624   2.856   0.336  16.223  0.5076  1.7517  1.0158
 6711TIP3    H241625   2.975   0.388  16.145  0.6977  0.9599  0.7717
 6712TIP3   OH241626   3.042   0.123  14.506 -0.2154 -0.2979 -0.2570
 6712TIP3    H141627   3.071   0.076  14.428  2.9883 -1.1088  1.3520
 6712TIP3    H241628   3.035   0.056  14.574 -1.9202  0.5756  0.4703
 6713TIP3   OH241629   1.593   3.343   5.971 -0.6117 -0.3894  0.4126
 6713TIP3    H141630   1.519   3.292   6.002 -0.9035 -0.2999 -0.1347
 6713TIP3    H241631   1.632   3.379   6.050 -0.1092 -1.8557  0.8506
 6714TIP3   OH241632   1.202   1.327   4.260  0.3560 -0.2605  0.4633
 6714TIP3    H141633   1.131   1.382   4.228  1.3180  0.4264 -0.5428
 6714TIP3    H241634   1.211   1.352   4.353  0.3559  0.8357  0.1817
 6715TIP3   OH241635   4.293   6.070  13.975 -0.0478 -1.0524 -0.1719
 6715TIP3    H141636   4.316   6.101  13.888  1.7732  0.4892  0.8158
 6715TIP3    H241637   4.316   5.977  13.975  1.0614 -0.7795 -0.9609
 6716TIP3   OH241638   4.454   0.467   2.902  0.1709  0.0823 -0.7185
 6716TIP3    H141639   4.534   0.520   2.896  0.5125 -0.5121 -1.4488
 6716TIP3    H241640   4.481   0.380   2.871 -0.1787 -0.7406  1.1927
 6717TIP3   OH241641   0.175   3.555  15.686 -0.0174  0.1440  0.4713
 6717TIP3    H141642   0.190   3.531  15.778 -0.9333 -0.4400  0.4735
 6717TIP3    H241643   0.241   3.505  15.638  0.3410  0.3046  0.7881
 6718TIP3   OH241644   0.252   0.456  13.806 -0.4782 -0.1390  0.7146
 6718TIP3    H141645   0.288   0.400  13.875 -0.2679  0.3450  0.9964
 6718TIP3    H241646   0.168   0.486  13.842 -0.5024 -0.1182  0.6401
 6719TIP3   OH241647   4.398   2.962   0.047 -0.1300 -0.2357  0.0401
 6719TIP3    H141648   4.430   3.002  -0.034 -0.4751 -0.9344 -0.4408
 6719TIP3    H241649   4.375   2.873   0.022 -1.0768 -0.1805  0.7112
 6720TIP3   OH241650   1.620   1.573  14.862  0.1907 -0.2842 -0.5200
 6720TIP3    H141651   1.696   1.628  14.883 -0.0642  0.9701 -2.7334
 6720TIP3    H241652   1.551   1.605  14.920  0.3979  0.9445 -0.9210
 6721TIP3   OH241653   5.425   4.527  14.422 -0.2124  0.1735 -0.1078
 6721TIP3    H141654   5.340   4.558  14.453  0.4701 -0.1235  2.1004
 6721TIP3    H241655   5.477   4.515  14.501  1.4909 -0.8570 -1.3548
 6722TIP3   OH241656   2.655   1.205  15.746  0.5033  0.0747  0.0426
 6722TIP3    H141657   2.627   1.177  15.659 -0.7595  1.4321 -0.0059
 6722TIP3    H241658   2.608   1.287  15.761  1.6757  0.4992  1.4897
 6723TIP3   OH241659   0.230   6.157  12.008 -0.0860  0.4056 -0.4058
 6723TIP3    H141660   0.234   6.062  12.022 -2.3763  0.2589 -0.5169
 6723TIP3    H241661   0.144   6.171  11.969  0.0569  2.5887  0.0358
 6724TIP3   OH241662   3.112   0.851   2.758 -0.0870  0.0201  0.3273
 6724TIP3    H141663   3.055   0.881   2.687 -0.2648 -1.5799 -0.2175
 6724TIP3    H241664   3.138   0.932   2.803 -0.6008  0.9874 -1.0633
 6725TIP3   OH241665   5.918   1.602   5.386 -0.4839 -0.0762  0.4391
 6725TIP3    H141666   5.869   1.637   5.311  2.4670  2.6746 -0.3315
 6725TIP3    H241667   5.917   1.508   5.373 -1.3311  0.2615 -2.2488
 6726TIP3   OH241668   2.387   1.465   1.906 -0.1406  0.9292 -0.0787
 6726TIP3    H141669   2.326   1.471   1.832  1.1979  0.0027 -1.2825
 6726TIP3    H241670   2.432   1.382   1.893 -0.9726  0.0143  2.6460
 6727TIP3   OH241671   4.467   2.388   2.291  0.4302 -0.4622 -0.1632
 6727TIP3    H141672   4.515   2.313   2.325 -0.4677  0.2449  2.7751
 6727TIP3    H241673   4.508   2.464   2.333 -0.0341  0.5573 -1.4992
 6728TIP3   OH241674   2.419   4.507   0.675  0.6324  0.0397 -0.3636
 6728TIP3    H141675   2.480   4.532   0.605  0.9405  0.2668 -0.0102
 6728TIP3    H241676   2.405   4.413   0.660  0.3901  0.1656 -0.9695
 6729TIP3   OH241677   6.338   5.651   0.761 -0.3152 -0.6054 -0.1659
 6729TIP3    H141678   6.320   5.689   0.674 -2.4333 -1.8733 -0.3355
 6729TIP3    H241679   6.387   5.571   0.742  0.4299 -0.1583 -0.1095
 6730TIP3   OH241680   6.756   6.505   0.665 -0.2087 -0.5157  0.6630
 6730TIP3    H141681   6.702   6.557   0.605  0.6359  0.6736  0.9092
 6730TIP3    H241682   6.779   6.426   0.616 -2.2842 -1.1112  0.6123
 6731TIP3   OH241683   2.269   4.726  14.839  0.2560 -0.1245  0.4414
 6731TIP3    H141684   2.272   4.793  14.771 -0.7102  0.7465  1.2517
 6731TIP3    H241685   2.342   4.748  14.897 -0.7366  0.8916  1.3194
 6732TIP3   OH241686   3.834   4.044  16.097 -0.0820  0.5071  0.2064
 6732TIP3    H141687   3.840   4.057  16.002  0.1304  0.2723  0.1871
 6732TIP3    H241688   3.814   3.952  16.108  2.7379 -0.1257  0.4543
 6733TIP3   OH241689   0.316   0.151  12.454  0.1379  0.4418  0.0984
 6733TIP3    H141690   0.256   0.080  12.435 -0.8651  1.6153 -1.2398
 6733TIP3    H241691   0.305   0.168  12.548  1.2075 -1.8670  0.6626
 6734TIP3   OH241692   2.013   3.457   1.567  0.3441  0.4776  0.0007
 6734TIP3    H141693   2.021   3.440   1.661 -1.0870  2.1848  0.4548
 6734TIP3    H241694   1.952   3.390   1.536  1.5009 -0.6500  0.0877
 6735TIP3   OH241695   3.399   5.695   1.134 -0.3876 -0.6148  0.1959
 6735TIP3    H141696   3.355   5.758   1.077  0.8818  0.6960  0.6146
 6735TIP3    H241697   3.328   5.651   1.182 -1.3171  0.1129 -0.4970
 6736TIP3   OH241698   1.285   0.037   2.142 -0.4620  0.4070 -0.4439
 6736TIP3    H141699   1.370   0.029   2.098 -0.2615 -1.4855  0.2591
 6736TIP3    H241700   1.305   0.035   2.235 -1.0642  2.5797 -0.2398
 6737TIP3   OH241701   3.925   6.535   2.945  0.0655 -0.5683  0.4086
 6737TIP3    H141702   4.012   6.568   2.966  0.6928 -0.5807 -2.0732
 6737TIP3    H241703   3.868   6.572   3.013  1.5912  1.4645  0.6088
 6738TIP3   OH241704   6.174   2.058  13.986 -0.4035  0.2699 -0.7132
 6738TIP3    H141705   6.127   2.133  13.950  0.0538  0.9835  0.1189
 6738TIP3    H241706   6.204   2.089  14.072  1.2750 -0.2652 -1.0831
 6739TIP3   OH241707   5.534   1.920  14.254 -0.0642 -0.2463  0.0386
 6739TIP3    H141708   5.534   1.833  14.213 -1.4568 -0.3982  0.3675
 6739TIP3    H241709   5.616   1.959  14.224 -0.2888 -0.9694 -1.5982
 6740TIP3   OH241710   0.430   0.878  16.484 -0.2142 -0.4408  0.6121
 6740TIP3    H141711   0.450   0.796  16.530 -0.2179  0.2589  1.8838
 6740TIP3    H241712   0.512   0.902  16.441  0.0884 -0.5620  1.1159
 6741TIP3   OH241713   4.889   1.800  12.779 -0.0473 -0.1341 -0.7650
 6741TIP3    H141714   4.926   1.723  12.736 -2.5311 -1.3136 -0.8460
 6741TIP3    H241715   4.795   1.793  12.765 -0.5292  1.6353  1.3185
 6742TIP3   OH241716   1.970   0.390  16.472  0.2180 -0.2111  0.5890
 6742TIP3    H141717   2.051   0.376  16.423 -0.0579  1.0383 -0.2295
 6742TIP3    H241718   1.963   0.485  16.482 -1.8546 -0.2005 -0.5848
 6743TIP3   OH241719   4.485   1.853   2.264  0.0125 -0.4242  0.2661
 6743TIP3    H141720   4.493   1.852   2.169  3.3082  0.6697  0.4421
 6743TIP3    H241721   4.546   1.785   2.294 -0.4502 -0.2731  1.6041
 6744TIP3   OH241722   3.467   3.814   4.803  0.2482 -0.2844  0.3534
 6744TIP3    H141723   3.542   3.767   4.767 -1.4172 -1.6126 -1.5349
 6744TIP3    H241724   3.414   3.747   4.846 -0.7709  0.3134  0.0576
 6745TIP3   OH241725   5.998   0.657   0.847 -0.0453 -0.1856  0.9411
 6745TIP3    H141726   5.920   0.604   0.864 -0.2906 -0.6145 -1.4075
 6745TIP3    H241727   5.966   0.732   0.797  0.8720  0.2416  0.9885
 6746TIP3   OH241728   2.891   3.023   6.084 -0.5127 -0.3741 -0.3128
 6746TIP3    H141729   2.883   3.107   6.038 -0.1019 -0.6182 -0.8246
 6746TIP3    H241730   2.977   3.025   6.125 -0.6006 -0.4484 -0.1192
 6747TIP3   OH241731   5.606   6.529   2.551 -0.5743 -0.0490  0.0896
 6747TIP3    H141732   5.544   6.546   2.621  0.2431  0.7326  0.6412
 6747TIP3    H241733   5.604   6.608   2.497 -0.8066 -0.4322 -0.4725
 6748TIP3   OH241734   4.516   1.282   2.930 -0.3264  0.7029  0.2990
 6748TIP3    H141735   4.514   1.225   2.852  1.5853 -1.0603  1.4959
 6748TIP3    H241736   4.590   1.341   2.915 -1.4805  2.0168 -0.3241
 6749TIP3   OH241737   5.680   2.201  17.193  0.2087 -0.1199 -0.0609
 6749TIP3    H141738   5.714   2.133  17.251 -0.2338 -0.3250 -0.0367
 6749TIP3    H241739   5.657   2.273  17.253  1.6651  0.4639 -0.1980
 6750TIP3   OH241740   4.185   0.439   0.609 -0.2660 -0.2806 -0.2621
 6750TIP3    H141741   4.271   0.480   0.613  0.1930 -1.2575 -0.0217
 6750TIP3    H241742   4.184   0.392   0.526 -1.0442  0.7463 -0.8524
 6751TIP3   OH241743   1.593   5.498   1.386  0.4798 -0.6134  0.0337
 6751TIP3    H141744   1.601   5.549   1.467  0.2769  0.7256 -0.7745
 6751TIP3    H241745   1.537   5.551   1.329  0.9221 -1.3598 -1.1193
 6752TIP3   OH241746   0.115   6.171   2.776 -0.1528  0.3642 -0.1822
 6752TIP3    H141747   0.166   6.090   2.768  1.1499  1.1923 -0.4616
 6752TIP3    H241748   0.092   6.194   2.686  1.9713  1.8313 -0.3991
 6753TIP3   OH241749   5.229   5.371  11.186  0.1135 -0.1172 -0.0686
 6753TIP3    H141750   5.267   5.455  11.158  1.0579 -0.0776  1.3144
 6753TIP3    H241751   5.182   5.392  11.266  0.5159 -0.9488  0.3909
 6754TIP3   OH241752   3.374   1.680  12.056 -0.1201  0.2796 -0.3112
 6754TIP3    H141753   3.351   1.603  12.108 -0.8949  0.7470  0.0553
 6754TIP3    H241754   3.290   1.710  12.019 -0.0287  1.6807  0.5845
 6755TIP3   OH241755   2.165   3.995  12.122 -0.3980 -0.5998  0.0293
 6755TIP3    H141756   2.107   4.071  12.127 -1.5131 -1.5083  1.5980
 6755TIP3    H241757   2.243   4.020  12.171  1.1056  1.0506 -3.0542
 6756TIP3   OH241758   4.642   3.437  13.533 -0.6956  0.4948  0.8406
 6756TIP3    H141759   4.607   3.520  13.565 -0.8042  0.2410  1.3979
 6756TIP3    H241760   4.564   3.381  13.523 -0.5597  0.2505  1.1186
 6757TIP3   OH241761   2.302   2.029   6.573 -0.1524 -0.1037 -0.0372
 6757TIP3    H141762   2.292   2.107   6.519 -0.3256  1.7729  2.5973
 6757TIP3    H241763   2.341   2.062   6.654 -2.6513 -2.3046  2.1555
 6758TIP3   OH241764   1.016   5.987   2.736  0.0702  0.2360  0.3274
 6758TIP3    H141765   1.033   5.897   2.763 -4.6416 -0.4995  1.3153
 6758TIP3    H241766   1.025   6.038   2.817 -1.2165 -0.0202  0.6545
 6759TIP3   OH241767   1.437   2.547   3.272 -0.4756  0.4724 -0.6373
 6759TIP3    H141768   1.478   2.626   3.239 -0.2972  0.5727 -0.1838
 6759TIP3    H241769   1.415   2.567   3.363 -0.2817 -0.0536 -0.4710
 6760TIP3   OH241770   3.531   4.626   0.564  0.3261  0.5480  0.2925
 6760TIP3    H141771   3.609   4.571   0.579  0.8996  1.7926  2.0561
 6760TIP3    H241772   3.549   4.670   0.481  1.4417  0.6918  0.5931
 6761TIP3   OH241773   4.044   3.687   4.302 -0.6383 -0.0002  0.4475
 6761TIP3    H141774   4.115   3.627   4.323  0.1770  0.0538 -1.9443
 6761TIP3    H241775   3.969   3.631   4.282 -0.7703 -0.1062  1.2131
 6762TIP3   OH241776   5.134   1.038   2.226 -0.4054  0.0950  0.1577
 6762TIP3    H141777   5.051   0.996   2.204 -1.0120  0.8424  0.9685
 6762TIP3    H241778   5.167   0.989   2.301 -1.1957  1.1400  1.2115
 6763TIP3   OH241779   2.886   1.495   3.116  0.3813  0.3364  0.1394
 6763TIP3    H141780   2.902   1.403   3.135  0.6218  0.6211  1.3972
 6763TIP3    H241781   2.801   1.496   3.073  0.4670 -0.4983 -0.0541
 6764TIP3   OH241782   6.243   3.788   6.049 -0.0838  0.0121 -0.0563
 6764TIP3    H141783   6.241   3.726   6.122  2.5971  0.9778  0.9018
 6764TIP3    H241784   6.206   3.869   6.084 -2.3167 -0.5999 -0.9131
 6765TIP3   OH241785   5.649   4.125   3.133  0.0798 -0.2116 -0.2173
 6765TIP3    H141786   5.608   4.208   3.110 -0.8398 -0.2765  1.1783
 6765TIP3    H241787   5.623   4.065   3.063 -0.2330  0.3651 -0.5946
 6766TIP3   OH241788   3.364   5.666   6.038 -0.2040 -0.1288 -0.5044
 6766TIP3    H141789   3.432   5.678   6.104 -0.1174  0.9349 -0.7826
 6766TIP3    H241790   3.319   5.750   6.034 -2.7380 -1.3498  0.9935
 6767TIP3   OH241791   6.786   5.862  16.635  0.2016  0.3807 -0.1047
 6767TIP3    H141792   6.830   5.896  16.556  0.1996  0.6538  0.0078
 6767TIP3    H241793   6.780   5.768  16.621  1.9991  0.1582  0.4366
 6768TIP3   OH241794   6.767   6.282  12.686  0.1478 -0.2669  0.1000
 6768TIP3    H141795   6.855   6.284  12.723  0.1481 -0.4648  0.1135
 6768TIP3    H241796   6.711   6.256  12.759 -0.1173  1.2793  0.4616
 6769TIP3   OH241797   3.886   4.806  17.108 -0.0044  0.0819 -0.1553
 6769TIP3    H141798   3.847   4.873  17.051  1.5919  0.9094 -0.3249
 6769TIP3    H241799   3.866   4.835  17.197 -1.1290 -0.3549 -0.2601
 6770TIP3   OH241800   2.553   1.989   6.176 -0.3007 -0.4287  0.5857
 6770TIP3    H141801   2.470   1.947   6.198 -1.1182 -0.1914 -1.9468
 6770TIP3    H241802   2.596   1.928   6.116 -1.0488  1.8279 -2.3430
 6771TIP3   OH241803   0.880   5.655  12.057  0.2035 -1.3761  0.4974
 6771TIP3    H141804   0.912   5.695  12.138  0.4971 -0.2511 -0.1711
 6771TIP3    H241805   0.880   5.726  11.993  0.6224 -2.4192 -0.6722
 6772TIP3   OH241806   5.183   4.574  12.357  0.2443 -0.3258 -0.1753
 6772TIP3    H141807   5.263   4.598  12.404 -0.7388  1.8928  0.4453
 6772TIP3    H241808   5.204   4.591  12.265  0.0846  1.6426  0.1109
 6773TIP3   OH241809   4.586   1.869  15.880  0.7068 -0.6974  0.1086
 6773TIP3    H141810   4.674   1.836  15.901  0.7395 -0.3572  0.5152
 6773TIP3    H241811   4.545   1.883  15.965  0.1129 -1.2374 -0.0878
 6774TIP3   OH241812   3.674   2.491  13.099 -0.0391  0.1026  0.0270
 6774TIP3    H141813   3.588   2.484  13.141  0.1774 -1.1842  0.2656
 6774TIP3    H241814   3.729   2.428  13.146  1.0802  1.0330 -0.0198
 6775TIP3   OH241815   3.618   3.023  16.284 -0.3151 -0.0404  0.0854
 6775TIP3    H141816   3.627   2.957  16.216 -1.5791 -2.3600  2.0798
 6775TIP3    H241817   3.563   2.981  16.351 -2.4479  3.5514  0.7296
 6776TIP3   OH241818   1.498   0.914  15.747 -0.0083  0.4023  0.1676
 6776TIP3    H141819   1.587   0.891  15.772  0.0030  0.8151  0.5059
 6776TIP3    H241820   1.477   0.855  15.674 -0.0008 -0.7328  1.0744
 6777TIP3   OH241821   3.918   1.332  16.162 -0.8551 -0.6507  0.3987
 6777TIP3    H141822   3.974   1.344  16.238  1.2024 -1.1400 -0.9963
 6777TIP3    H241823   3.918   1.238  16.147 -1.7374 -0.6145  0.1451
 6778TIP3   OH241824   6.548   1.212   2.501 -0.2783  0.0276  0.3455
 6778TIP3    H141825   6.568   1.142   2.563  0.9479 -0.2740 -0.3729
 6778TIP3    H241826   6.607   1.196   2.428 -2.1631 -0.0290 -1.2127
 6779TIP3   OH241827   2.300   2.306   5.055  0.3111 -0.1873 -0.4369
 6779TIP3    H141828   2.374   2.351   5.097  0.2021  1.0939 -1.5691
 6779TIP3    H241829   2.264   2.371   4.994 -2.2382 -0.5366  0.6547
 6780TIP3   OH241830   3.687   4.096   5.174  0.4643  0.3323 -0.2029
 6780TIP3    H141831   3.687   4.144   5.091  1.0389 -0.6045 -0.7613
 6780TIP3    H241832   3.694   4.004   5.148  2.0154  0.1108  0.9150
 6781TIP3   OH241833   4.888   6.523  11.631 -0.2475 -0.4525  0.4491
 6781TIP3    H141834   4.839   6.534  11.549 -0.2972  2.5016  0.8160
 6781TIP3    H241835   4.821   6.509  11.698 -0.3093 -0.9333  0.2920
 6782TIP3   OH241836   5.863   6.161   6.345  0.2055 -0.0939  0.1088
 6782TIP3    H141837   5.813   6.192   6.420 -1.4025 -0.6715 -0.6876
 6782TIP3    H241838   5.954   6.186   6.363 -0.4382  1.3363  1.3915
 6783TIP3   OH241839   4.661   6.602  14.951 -0.0800  0.2846  0.1125
 6783TIP3    H141840   4.678   6.640  14.865  1.1336  1.1666  0.7229
 6783TIP3    H241841   4.675   6.509  14.939  0.5227  0.4544 -0.5478
 6784TIP3   OH241842   0.030   5.985  15.118 -0.0412  0.5941 -0.5660
 6784TIP3    H141843   0.059   5.919  15.056 -3.4194 -1.3357 -0.2013
 6784TIP3    H241844  -0.015   6.050  15.065 -0.8430  0.1674 -0.4126
 6785TIP3   OH241845   3.282   2.095   4.300  0.0241  0.4426 -0.3726
 6785TIP3    H141846   3.310   2.181   4.269 -0.7772  0.7973 -0.1241
 6785TIP3    H241847   3.353   2.036   4.274  0.5691  1.1706 -0.5614
 6786TIP3   OH241848   6.354   1.316   0.998  0.2981 -0.1079 -0.4036
 6786TIP3    H141849   6.449   1.313   1.011  0.3927 -1.1817 -1.2415
 6786TIP3    H241850   6.334   1.409   0.988  0.9046  0.3232  2.2019
 6787TIP3   OH241851   1.074   0.367   1.465 -0.2874 -0.5202 -0.0535
 6787TIP3    H141852   1.075   0.338   1.556 -2.2816  1.4369  0.6332
 6787TIP3    H241853   1.155   0.418   1.456 -1.1653  1.1578  1.2877
 6788TIP3   OH241854   6.362   0.834  11.949 -0.4529  0.0874  0.6335
 6788TIP3    H141855   6.422   0.900  11.914  0.1196 -0.4521  0.5923
 6788TIP3    H241856   6.418   0.759  11.970 -1.3076 -0.9516 -0.7337
 6789TIP3   OH241857   5.435   2.897   3.342 -0.1476 -0.1766  0.3537
 6789TIP3    H141858   5.455   2.859   3.256 -1.4617 -0.2655  0.0882
 6789TIP3    H241859   5.393   2.981   3.323 -1.8651 -0.8936  0.8771
 6790TIP3   OH241860   6.803   5.072  15.592 -0.1739 -0.5628 -0.6519
 6790TIP3    H141861   6.890   5.107  15.571 -0.2214 -1.1048 -1.7872
 6790TIP3    H241862   6.788   5.005  15.525 -0.9245 -1.3621  0.3001
 6791TIP3   OH241863   4.096   6.096   1.321  0.5116 -0.1104 -0.1890
 6791TIP3    H141864   4.089   6.138   1.235 -0.2131 -0.5367 -0.3434
 6791TIP3    H241865   4.080   6.167   1.383 -1.1093 -0.2191 -0.4615
 6792TIP3   OH241866   3.517   0.936   2.088  0.2110  0.1355 -0.3306
 6792TIP3    H141867   3.464   1.011   2.061  0.7057  0.1117 -1.4218
 6792TIP3    H241868   3.546   0.896   2.006  0.1979 -1.0805  0.2397
 6793TIP3   OH241869   1.301   4.087  12.898 -0.3989  0.4942 -0.1736
 6793TIP3    H141870   1.360   4.037  12.842  1.7423 -0.4702  2.8165
 6793TIP3    H241871   1.254   4.021  12.949 -1.2387  1.3967  0.2522
 6794TIP3   OH241872   2.986   1.325   3.331  0.3617 -0.3216  0.1264
 6794TIP3    H141873   3.055   1.262   3.310  0.1540  0.0193 -1.6536
 6794TIP3    H241874   3.028   1.410   3.325 -0.3099 -0.0794 -1.4981
 6795TIP3   OH241875   5.379   2.132  12.384  0.3178 -0.3098 -0.4417
 6795TIP3    H141876   5.380   2.156  12.292  0.2402 -0.8157 -0.5752
 6795TIP3    H241877   5.293   2.160  12.416  1.0474  1.5600 -0.0662
 6796TIP3   OH241878   6.750   0.018  11.886  0.2630  0.2665  0.2843
 6796TIP3    H141879   6.739   0.111  11.867  0.6503  0.5600  1.4390
 6796TIP3    H241880   6.788  -0.018  11.806  0.9312  1.2683  0.1332
 6797TIP3   OH241881   1.920   2.017   0.445  0.1383  0.6178 -0.1182
 6797TIP3    H141882   1.921   2.111   0.465  0.0842  0.6517 -0.2732
 6797TIP3    H241883   1.953   1.976   0.524 -1.0307  0.6882  0.4122
 6798TIP3   OH241884   4.751   0.683   1.976 -0.3232  0.2141 -0.2019
 6798TIP3    H141885   4.824   0.701   1.916 -0.1874  2.4507  0.5953
 6798TIP3    H241886   4.673   0.706   1.927 -0.6434 -3.1601 -1.4304
 6799TIP3   OH241887   0.947   3.620  15.473 -0.4618 -0.3483  0.1394
 6799TIP3    H141888   0.991   3.692  15.427 -2.3510 -0.5549 -2.0547
 6799TIP3    H241889   0.855   3.628  15.448 -1.9595  0.6118  5.2946
 6800TIP3   OH241890   0.063   6.411   0.899  0.3285  1.0432 -0.2485
 6800TIP3    H141891  -0.017   6.433   0.947  0.0472  0.3614 -0.3976
 6800TIP3    H241892   0.046   6.439   0.810 -0.3186 -0.4365 -0.6017
 6801TIP3   OH241893   1.881   1.150   3.789 -0.5301 -0.6310 -0.0605
 6801TIP3    H141894   1.830   1.223   3.756  1.1888  0.6716  0.0671
 6801TIP3    H241895   1.892   1.169   3.882  2.9488  0.9109 -0.6740
 6802TIP3   OH241896   1.777   1.727   1.248 -0.0535  0.2844 -0.0806
 6802TIP3    H141897   1.763   1.727   1.153 -0.5675 -1.2214 -0.0291
 6802TIP3    H241898   1.801   1.817   1.269 -1.3821  0.9868 -1.4410
 6803TIP3   OH241899   2.476   2.951   3.154 -0.1630  0.3354 -0.3452
 6803TIP3    H141900   2.535   2.947   3.078  1.2321 -0.7162  0.7609
 6803TIP3    H241901   2.415   2.879   3.141  0.8316 -0.5979  0.1315
 6804TIP3   OH241902   2.446   4.504   0.070 -0.1257  0.2382  0.2007
 6804TIP3    H141903   2.537   4.497   0.097 -0.3098  0.9160  1.0280
 6804TIP3    H241904   2.413   4.580   0.117 -1.5966 -1.0158  1.2699
 6805TIP3   OH241905   2.551   6.100   0.699 -0.1862 -0.0621 -0.7201
 6805TIP3    H141906   2.633   6.145   0.680  0.3933  0.4628  2.6978
 6805TIP3    H241907   2.496   6.115   0.622  1.5183  2.8869 -1.4149
 6806TIP3   OH241908   6.160   2.940   4.702 -0.1007 -0.1262 -0.3426
 6806TIP3    H141909   6.077   2.962   4.742  0.6208  0.2050  0.9836
 6806TIP3    H241910   6.177   2.849   4.728  1.5153  0.8465  2.1323
 6807TIP3   OH241911   1.783   3.992   1.870 -0.4356 -0.6767 -0.1153
 6807TIP3    H141912   1.727   4.061   1.836  0.5067 -0.2881 -0.9140
 6807TIP3    H241913   1.738   3.911   1.847 -0.1214 -0.4040 -1.7795
 6808TIP3   OH241914   2.416   2.574  16.427 -0.3277  0.5381  0.1615
 6808TIP3    H141915   2.416   2.503  16.364  1.3659  0.7685 -0.1160
 6808TIP3    H241916   2.465   2.540  16.502  2.5315  2.1431 -0.8796
 6809TIP3   OH241917   2.828   5.466   6.076 -0.2579  0.2957 -0.5920
 6809TIP3    H141918   2.888   5.403   6.036  0.7124 -0.6864  2.2975
 6809TIP3    H241919   2.845   5.548   6.029  1.2277 -0.6658 -1.7810
 6810TIP3   OH241920   0.917   5.015   6.830  0.3353  0.5839 -0.0436
 6810TIP3    H141921   0.959   5.022   6.744  1.0006  1.9975  0.3849
 6810TIP3    H241922   0.838   4.963   6.814  1.0399 -0.1256 -1.2905
 6811TIP3   OH241923   6.028   6.553   5.137 -0.3174 -0.4132  0.2468
 6811TIP3    H141924   5.958   6.566   5.072 -1.5416 -2.6500  1.0561
 6811TIP3    H241925   6.104   6.526   5.085 -0.1880  1.5128 -0.5984
 6812TIP3   OH241926   6.719   3.315  13.046 -0.0212  0.0678  0.1172
 6812TIP3    H141927   6.758   3.354  13.124 -0.7188 -0.3391  0.6740
 6812TIP3    H241928   6.642   3.369  13.028  0.1765  0.2066 -0.3381
 6813TIP3   OH241929   1.691   0.540   0.327 -0.3934 -0.0221  0.6288
 6813TIP3    H141930   1.627   0.490   0.275 -0.7239  0.6591  0.3687
 6813TIP3    H241931   1.728   0.603   0.264 -0.1145  0.1833  0.9995
 6814TIP3   OH241932   2.586   2.722   4.213 -0.3881  0.3574 -0.6650
 6814TIP3    H141933   2.566   2.639   4.258 -1.4749  0.5353 -0.8085
 6814TIP3    H241934   2.507   2.742   4.163  0.0683  1.2120 -1.0558
 6815TIP3   OH241935   3.482   5.365   4.040 -0.1035  0.6194  0.2840
 6815TIP3    H141936   3.543   5.360   4.114 -0.5795 -1.5166  0.5563
 6815TIP3    H241937   3.430   5.285   4.046 -1.6402  1.4806 -1.0857
 6816TIP3   OH241938   3.118   3.746   3.507 -0.1845 -0.6547  0.8379
 6816TIP3    H141939   3.098   3.839   3.501  1.4275 -0.3297  0.1124
 6816TIP3    H241940   3.083   3.709   3.426  1.7829 -0.1462 -0.2778
 6817TIP3   OH241941   3.225   0.277  15.055 -0.0079  0.3518 -0.3073
 6817TIP3    H141942   3.300   0.319  15.013 -0.2236  1.6275  0.5528
 6817TIP3    H241943   3.186   0.223  14.987  1.0196  0.5817 -1.0802
 6818TIP3   OH241944   1.959   5.240  12.413  0.0006 -0.1201  0.5943
 6818TIP3    H141945   2.037   5.258  12.465  0.2171  1.9400 -0.3932
 6818TIP3    H241946   1.992   5.219  12.326 -0.4338 -2.0442  0.8703
 6819TIP3   OH241947   5.027   1.421  11.814 -0.3154  0.4031 -0.7274
 6819TIP3    H141948   5.112   1.380  11.797 -0.9674 -0.8445 -1.0855
 6819TIP3    H241949   4.990   1.439  11.728 -1.0546 -0.4485 -0.5995
 6820TIP3   OH241950   0.683   4.869  12.444  0.1450  0.3231  0.1093
 6820TIP3    H141951   0.603   4.826  12.476  0.0408  0.9369  0.6949
 6820TIP3    H241952   0.727   4.899  12.524 -0.2931  2.2012 -0.3134
 6821TIP3   OH241953   4.977   0.946  16.508 -0.4194  0.2431  0.1759
 6821TIP3    H141954   4.971   0.851  16.504  0.5719  0.1223  1.3497
 6821TIP3    H241955   5.059   0.966  16.463  1.4095  0.2220  3.3660
 6822TIP3   OH241956   1.320   3.605   1.766 -0.0508  0.2015 -0.0526
 6822TIP3    H141957   1.390   3.544   1.743 -0.1661  0.3318 -0.7407
 6822TIP3    H241958   1.365   3.679   1.807  0.3120  0.7202 -1.3518
 6823TIP3   OH241959   1.899   3.819   3.921  0.1362 -0.4234 -0.3146
 6823TIP3    H141960   1.856   3.745   3.879 -2.1606  0.3819  0.5424
 6823TIP3    H241961   1.876   3.894   3.867  2.4938 -0.2937 -1.2074
 6824TIP3   OH241962   2.530   4.370  10.858 -0.7716 -0.5587  0.3323
 6824TIP3    H141963   2.467   4.441  10.869  0.3094  0.5820 -0.8017
 6824TIP3    H241964   2.485   4.306  10.802 -1.7059 -0.7495  1.2846
 6825TIP3   OH241965   2.558   3.145   2.728 -0.5128 -0.2952 -0.0243
 6825TIP3    H141966   2.602   3.064   2.707 -1.9269 -1.3883  1.0819
 6825TIP3    H241967   2.575   3.159   2.821 -1.5932 -0.1783  0.1696
 6826TIP3   OH241968   6.095   2.877   2.360 -0.1915  0.3778  0.3863
 6826TIP3    H141969   6.091   2.890   2.265  2.4699 -2.4911 -0.1837
 6826TIP3    H241970   6.006   2.855   2.386 -0.8317  0.6807 -1.5403
 6827TIP3   OH241971   3.324   3.806  13.136 -0.2521 -0.4771  0.0168
 6827TIP3    H141972   3.290   3.864  13.203 -1.6438  1.2029 -2.0699
 6827TIP3    H241973   3.285   3.839  13.054  1.0220 -2.7264 -1.5396
 6828TIP3   OH241974   4.376   4.113   4.949 -0.0479  0.2524 -0.0909
 6828TIP3    H141975   4.356   4.102   5.042 -1.2600  2.1832 -0.1040
 6828TIP3    H241976   4.291   4.108   4.905  0.2272  1.8825 -0.8335
 6829TIP3   OH241977   5.247   3.065   3.168 -0.2130 -0.9929  0.3997
 6829TIP3    H141978   5.279   3.064   3.078 -1.8781  0.1825 -0.2364
 6829TIP3    H241979   5.158   3.101   3.161  0.0832  0.2544  2.6502
 6830TIP3   OH241980   2.276   5.509   0.399 -0.0949  0.6879 -0.5208
 6830TIP3    H141981   2.365   5.536   0.378  0.6511 -1.1370  0.2452
 6830TIP3    H241982   2.221   5.580   0.364  1.4759  0.5757 -3.3864
 6831TIP3   OH241983   6.031   4.855   2.761  0.5268 -0.0296 -0.0850
 6831TIP3    H141984   6.028   4.868   2.666  1.2156  0.8715  0.0027
 6831TIP3    H241985   6.125   4.850   2.781  0.3652 -1.4844  0.3958
 6832TIP3   OH241986   1.998   2.111  16.201  0.6757 -0.0578 -0.5934
 6832TIP3    H141987   2.054   2.047  16.245 -0.8149 -0.8956  0.1024
 6832TIP3    H241988   1.942   2.146  16.270 -0.7582 -0.3895 -1.5698
 6833TIP3   OH241989   1.728   3.452  15.823  0.2030 -0.2261  0.3595
 6833TIP3    H141990   1.776   3.530  15.795  1.6278 -0.9367  0.7632
 6833TIP3    H241991   1.656   3.444  15.761  0.6575  0.8240 -0.3117
 6834TIP3   OH241992   1.758   0.862   4.187  0.3596 -0.0834  0.3476
 6834TIP3    H141993   1.668   0.852   4.220  0.3911 -0.5430  0.2925
 6834TIP3    H241994   1.750   0.850   4.093  0.5116 -0.3376  0.3670
 6835TIP3   OH241995   5.212   5.054  14.893 -0.1301 -0.3987 -0.7009
 6835TIP3    H141996   5.128   5.090  14.923 -1.6664 -2.9888 -1.6776
 6835TIP3    H241997   5.248   5.121  14.836 -1.9492  0.4278 -0.9300
 6836TIP3   OH241998   6.681   1.594   5.253 -0.2378 -0.5031  0.0958
 6836TIP3    H141999   6.689   1.687   5.229 -0.7358 -0.4622  0.0935
 6836TIP3    H242000   6.590   1.573   5.236 -0.0211 -1.1117 -0.3139
 6837TIP3   OH242001   2.605   4.478   1.645  0.0153  0.0751 -0.4689
 6837TIP3    H142002   2.585   4.528   1.724 -0.3252 -2.1772  0.9199
 6837TIP3    H242003   2.520   4.445   1.615  0.3165 -0.2912 -0.9364
 6838TIP3   OH242004   0.859   0.923   2.914 -0.0702  0.5777 -0.4152
 6838TIP3    H142005   0.805   0.856   2.872  0.4014  0.5748 -1.0221
 6838TIP3    H242006   0.920   0.951   2.845  0.1103  1.2172  0.0042
 6839TIP3   OH242007   3.410   0.955   1.127 -0.3813 -0.1311 -0.2627
 6839TIP3    H142008   3.343   0.929   1.064 -1.7226  1.0897  0.6140
 6839TIP3    H242009   3.404   0.890   1.197  1.3288 -1.6739 -1.5082
 6840TIP3   OH242010   2.212   5.902   4.831  0.3544 -1.0456  0.1165
 6840TIP3    H142011   2.152   5.836   4.796  1.8611 -1.9533 -0.8103
 6840TIP3    H242012   2.291   5.853   4.853  1.4796  0.4361 -0.5394
 6841TIP3   OH242013   5.884   1.376  13.967  0.2427  0.1292 -0.3255
 6841TIP3    H142014   5.904   1.313  13.898 -1.2531 -0.7004 -0.0189
 6841TIP3    H242015   5.885   1.324  14.048 -0.6132  0.5746 -0.0260
 6842TIP3   OH242016   3.998   3.906   1.087  0.6672 -0.0331 -0.0898
 6842TIP3    H142017   4.058   3.928   1.158 -0.3029  1.6796  0.2263
 6842TIP3    H242018   4.031   3.955   1.011 -0.7764  1.5744  0.2950
 6843TIP3   OH242019   5.994   0.338   0.455  0.0465 -0.3516 -0.1379
 6843TIP3    H142020   6.071   0.392   0.476 -1.2912  1.0492  1.2980
 6843TIP3    H242021   6.020   0.249   0.482  1.1923  0.0823  0.2352
 6844TIP3   OH242022   3.564   4.237  16.838  0.0603  0.1093  0.0634
 6844TIP3    H142023   3.595   4.277  16.919 -0.7498 -0.3027  0.5879
 6844TIP3    H242024   3.576   4.143  16.852 -1.7504 -0.0922  0.4383
 6845TIP3   OH242025   5.008   2.444  11.022 -0.1104  0.1951  0.2091
 6845TIP3    H142026   4.994   2.404  11.108 -2.6573 -1.1313 -0.7557
 6845TIP3    H242027   5.103   2.451  11.014  0.1771  0.1375  3.0271
 6846TIP3   OH242028   2.578   4.276   2.932  0.1159 -0.5148 -0.7473
 6846TIP3    H142029   2.636   4.207   2.902  3.2580  1.3285  0.8543
 6846TIP3    H242030   2.584   4.273   3.027 -1.7707  0.2941 -0.5663
 6847TIP3   OH242031   3.359   2.423  13.657 -0.1134 -0.4723 -0.4409
 6847TIP3    H142032   3.307   2.502  13.640  0.8181 -0.2406 -2.4556
 6847TIP3    H242033   3.409   2.411  13.576 -0.6144 -3.4169 -0.3557
 6848TIP3   OH242034   3.898   1.092   5.437  0.2974  0.1617 -0.4595
 6848TIP3    H142035   3.810   1.056   5.425  1.2499 -1.7040 -2.1652
 6848TIP3    H242036   3.893   1.140   5.520 -2.2476 -0.1038 -0.4125
 6849TIP3   OH242037   6.716   5.883   1.797 -0.0836 -0.6442 -0.3181
 6849TIP3    H142038   6.688   5.844   1.715 -1.6488  2.0715 -1.1547
 6849TIP3    H242039   6.653   5.852   1.862 -0.8625 -0.1138 -0.8194
 6850TIP3   OH242040   1.673   1.037  16.081  0.4866 -0.2854 -0.4754
 6850TIP3    H142041   1.633   1.119  16.108  0.2353 -0.6392  0.2256
 6850TIP3    H242042   1.620   0.969  16.122  0.4386 -0.8162 -1.3891
 6851TIP3   OH242043   1.446   0.906  14.806  0.2380  0.2738  0.0904
 6851TIP3    H142044   1.458   0.849  14.883  1.5304 -0.7338 -0.8285
 6851TIP3    H242045   1.391   0.854  14.747 -0.3031  0.8331  0.0986
 6852TIP3   OH242046   3.229   0.939  15.434 -0.1126  0.2009 -0.2574
 6852TIP3    H142047   3.236   0.849  15.400 -1.3337  0.6899 -1.8886
 6852TIP3    H242048   3.285   0.940  15.512 -1.1718 -2.3617  0.5776
 6853TIP3   OH242049   1.509   1.047   1.197 -0.0452 -0.3312  0.7037
 6853TIP3    H142050   1.589   1.100   1.202 -0.0160 -0.3220  0.1919
 6853TIP3    H242051   1.480   1.038   1.287 -0.3161  0.9677  0.7546
 6854TIP3   OH242052   4.155   2.729   4.815  0.9491  0.1987 -0.4259
 6854TIP3    H142053   4.213   2.664   4.775  1.2504 -0.2952  0.7989
 6854TIP3    H242054   4.084   2.677   4.853 -0.1590  0.7821 -1.6740
 6855TIP3   OH242055   6.550   4.825  10.311 -0.0515 -0.3636 -0.1323
 6855TIP3    H142056   6.560   4.787  10.224 -1.4691 -1.6840  0.2599
 6855TIP3    H242057   6.634   4.868  10.328  1.2689 -2.5052 -0.9899
 6856TIP3   OH242058   3.547   1.673  12.352 -0.8304  0.0129  0.3866
 6856TIP3    H142059   3.471   1.623  12.382 -2.2589  3.0585  2.0384
 6856TIP3    H242060   3.554   1.745  12.414  0.8327  2.1836 -2.2378
 6857TIP3   OH242061   2.360   3.351   2.835  0.4862 -0.2152 -0.2482
 6857TIP3    H142062   2.421   3.299   2.887  0.8065  0.9746  0.5861
 6857TIP3    H242063   2.296   3.383   2.899  1.1086  1.5858 -0.5169
 6858TIP3   OH242064   1.434   6.042  13.994  0.5323 -0.1055  0.2673
 6858TIP3    H142065   1.379   5.996  13.929  0.7271  0.6107 -0.4078
 6858TIP3    H242066   1.399   6.013  14.078 -2.8972  2.6423 -0.0982
 6859TIP3   OH242067   4.420   1.108  14.797 -0.1694  0.6026  0.5313
 6859TIP3    H142068   4.422   1.199  14.827  0.9940  0.0154  2.3603
 6859TIP3    H242069   4.484   1.105  14.726 -0.5989  1.3222  0.1057
 6860TIP3   OH242070   0.670   0.379  14.218 -0.4658 -0.6014  0.6850
 6860TIP3    H142071   0.757   0.412  14.238 -0.3121 -0.7527  0.2526
 6860TIP3    H242072   0.676   0.346  14.129 -1.4657  1.0659 -0.0118
 6861TIP3   OH242073   1.683   1.606  13.596  0.8230  0.1187 -0.5193
 6861TIP3    H142074   1.701   1.568  13.510  2.8513  0.1263 -0.1132
 6861TIP3    H242075   1.601   1.564  13.623  0.9667 -1.0327 -1.7748
 6862TIP3   OH242076   1.560   3.018   0.970 -0.0562 -0.4629 -0.1035
 6862TIP3    H142077   1.579   2.972   1.052 -1.1962  2.3678  1.8526
 6862TIP3    H242078   1.645   3.023   0.925  0.5724 -2.1436  0.8702
 6863TIP3   OH242079   1.946   2.802  17.011  0.3370 -0.3869  0.0349
 6863TIP3    H142080   1.862   2.781  16.972  0.1955  0.1964  0.0256
 6863TIP3    H242081   1.927   2.870  17.075  0.9274  0.3612 -0.5689
 6864TIP3   OH242082   0.005   3.984   1.553  0.0951  0.1120 -0.4039
 6864TIP3    H142083  -0.069   3.949   1.602 -1.7648  1.4262 -2.1493
 6864TIP3    H242084  -0.030   4.063   1.512  3.0538  1.8500  0.3133
 6865TIP3   OH242085   2.679   5.834  11.775 -0.3004 -0.0799  0.3678
 6865TIP3    H142086   2.586   5.814  11.762  0.0312 -1.0164 -0.6205
 6865TIP3    H242087   2.708   5.868  11.691  0.1626  0.6094  0.8001
 6866TIP3   OH242088   2.752   3.341   1.366 -0.0813  0.0129  0.8042
 6866TIP3    H142089   2.807   3.331   1.443 -1.3808 -3.3581  1.3980
 6866TIP3    H242090   2.803   3.395   1.306  2.2384  0.1149  2.8002
 6867TIP3   OH242091   5.888   4.915  13.779 -0.3355  0.2978 -0.1174
 6867TIP3    H142092   5.842   4.839  13.816  0.5391  0.0361  0.4631
 6867TIP3    H242093   5.969   4.920  13.830 -0.4649  1.7349 -0.0325
 6868TIP3   OH242094   4.161   3.478   1.688 -0.1333  0.8459 -0.2820
 6868TIP3    H142095   4.219   3.516   1.623  1.1002 -1.7995 -0.7682
 6868TIP3    H242096   4.073   3.498   1.656  0.4558  3.5447 -0.3220
 6869TIP3   OH242097   4.977   6.679   5.079 -0.1823 -0.4047 -0.1306
 6869TIP3    H142098   4.959   6.718   4.993  1.7906 -1.0476 -0.8401
 6869TIP3    H242099   5.025   6.747   5.127  0.9143 -0.9711 -0.4227
 6870TIP3   OH242100   2.069   1.361   6.763  0.1329  0.1967  0.2124
 6870TIP3    H142101   2.006   1.416   6.716  0.0752  0.8882  1.0984
 6870TIP3    H242102   2.110   1.308   6.694 -0.2872  0.8645 -0.5574
 6871TIP3   OH242103   0.718   3.720   0.972 -0.1355  0.1233 -0.0982
 6871TIP3    H142104   0.630   3.737   1.005  0.4518  1.9396  0.5622
 6871TIP3    H242105   0.704   3.681   0.885 -1.6107 -1.8040  0.9554
 6872TIP3   OH242106   5.107   5.653  11.587 -0.1578  0.5330 -1.0139
 6872TIP3    H142107   5.020   5.619  11.565  0.6677 -1.9589 -0.5722
 6872TIP3    H242108   5.090   5.731  11.639 -2.1386  0.1343 -1.0398
 6873TIP3   OH242109   0.952   3.044   2.958 -0.1684  0.1043 -0.0653
 6873TIP3    H142110   0.932   2.997   3.039  1.0391  1.7695  1.2406
 6873TIP3    H242111   0.877   3.102   2.945  0.3456  0.9358  0.6961
 6874TIP3   OH242112   6.090   2.987  14.989  0.0126 -0.1582  0.4698
 6874TIP3    H142113   6.144   3.045  14.934  1.1491  1.0766  2.8096
 6874TIP3    H242114   6.152   2.924  15.025 -0.4616 -0.0891  1.4282
 6875TIP3   OH242115   1.412   3.366  13.871 -0.2161 -0.4801  0.1341
 6875TIP3    H142116   1.332   3.344  13.823 -0.0726 -1.3816  0.2872
 6875TIP3    H242117   1.460   3.425  13.813 -0.1777 -1.3315 -0.7062
 6876TIP3   OH242118   6.419   0.365   5.600  0.5355 -0.3626  0.0668
 6876TIP3    H142119   6.448   0.438   5.545 -1.5211 -1.5588 -2.7308
 6876TIP3    H242120   6.473   0.291   5.571 -0.0941 -0.8552  0.1402
 6877TIP3   OH242121   6.457   0.730  12.245 -0.1356 -0.9616 -1.0408
 6877TIP3    H142122   6.502   0.676  12.180 -1.2163 -0.7274 -2.0057
 6877TIP3    H242123   6.461   0.819  12.210  1.2951 -0.4607  0.3546
 6878TIP3   OH242124   6.670   5.744  15.484 -0.7415  0.5490  0.5178
 6878TIP3    H142125   6.690   5.777  15.571 -1.2611  0.9993  0.4661
 6878TIP3    H242126   6.636   5.820  15.436  0.7322  0.6065 -0.4664
 6879TIP3   OH242127   2.991   2.938  15.682 -0.1214 -0.4744 -0.4940
 6879TIP3    H142128   2.955   2.861  15.726  1.0456 -0.1675  1.0408
 6879TIP3    H242129   2.915   2.995  15.667 -0.5621 -0.6728  0.9630
 6880TIP3   OH242130   1.667   4.265  15.775 -0.6431  0.2818 -0.6890
 6880TIP3    H142131   1.576   4.294  15.786 -1.0083 -0.6686 -1.1540
 6880TIP3    H242132   1.677   4.193  15.837 -0.5765 -0.4095 -1.4990
 6881TIP3   OH242133   5.353   3.698  11.761  0.9500 -0.4039 -0.5300
 6881TIP3    H142134   5.373   3.687  11.855 -1.7599  0.7843  0.2201
 6881TIP3    H242135   5.409   3.770  11.734  0.1184  0.7605  0.7609
 6882TIP3   OH242136   5.250   2.202  13.311 -0.1840  0.5291  0.8023
 6882TIP3    H142137   5.290   2.176  13.228  2.3652  0.0819  2.1158
 6882TIP3    H242138   5.256   2.123  13.365  0.0686  1.4128  2.0789
 6883TIP3   OH242139   0.800   1.276  15.896  0.2277 -0.2853 -0.6631
 6883TIP3    H142140   0.876   1.317  15.854  1.1623 -0.8931  0.4086
 6883TIP3    H242141   0.796   1.318  15.982  0.6765 -1.8409  0.1196
 6884TIP3   OH242142   6.762   6.748   5.307 -0.3555  0.5645 -0.3697
 6884TIP3    H142143   6.723   6.793   5.383 -1.4016  0.7411 -0.9989
 6884TIP3    H242144   6.818   6.681   5.345 -0.8472  0.6745  0.5620
 6885TIP3   OH242145   0.009   6.382   3.169  0.1483  0.4256  0.6999
 6885TIP3    H142146  -0.026   6.417   3.250 -3.1361 -0.8526 -0.0654
 6885TIP3    H242147   0.045   6.296   3.193  1.2819  1.0211  1.1801
 6886TIP3   OH242148   1.285   3.172  10.824 -0.2521 -0.1407  0.3225
 6886TIP3    H142149   1.284   3.267  10.835 -0.2857 -0.0877 -0.1318
 6886TIP3    H242150   1.326   3.139  10.904  0.7277  0.3176  0.0111
 6887TIP3   OH242151   6.465   4.777   1.564  0.0527  0.1443 -0.3535
 6887TIP3    H142152   6.506   4.792   1.479 -0.8012 -0.7582 -0.9403
 6887TIP3    H242153   6.532   4.801   1.628  0.7071  0.8152 -1.2774
 6888TIP3   OH242154   3.051   0.781  16.926  0.4966  0.7288  0.1828
 6888TIP3    H142155   3.145   0.788  16.937  0.7920 -2.5176  0.3768
 6888TIP3    H242156   3.014   0.816  17.007  1.3758  4.2276 -0.8626
 6889TIP3   OH242157   3.582   4.552  15.692 -0.2317 -0.1456  0.3694
 6889TIP3    H142158   3.579   4.647  15.703 -0.1547 -0.2517  1.3957
 6889TIP3    H242159   3.558   4.537  15.601 -2.2886  0.7382  0.7414
 6890TIP3   OH242160   6.095   4.316   2.183 -1.0366 -0.9443  0.0947
 6890TIP3    H142161   6.121   4.225   2.197  0.5700 -0.6765 -0.9645
 6890TIP3    H242162   6.159   4.368   2.232 -1.1596 -0.3527 -0.3554
 6891TIP3   OH242163   2.073   1.244  14.303  0.4240  0.4147 -0.1595
 6891TIP3    H142164   2.086   1.154  14.272 -0.2177 -0.3347  1.6281
 6891TIP3    H242165   2.157   1.287  14.288  0.5056 -0.2588 -1.7348
 6892TIP3   OH242166   2.965   5.008  17.238 -0.0327 -0.2311 -1.0367
 6892TIP3    H142167   2.997   4.936  17.292 -2.3188 -0.8547 -0.4813
 6892TIP3    H242168   2.901   5.053  17.292  1.8423  2.6982 -1.1187
 6893TIP3   OH242169   2.776   2.330  17.071  0.2197 -0.0862 -0.4528
 6893TIP3    H142170   2.789   2.412  17.120 -3.5308  1.8854 -2.5414
 6893TIP3    H242171   2.709   2.284  17.121 -0.0505 -0.3419 -1.0552
 6894TIP3   OH242172   5.036   2.087  13.654  0.0639  0.3224  0.6045
 6894TIP3    H142173   4.972   2.127  13.594  1.2418  0.6198 -0.4764
 6894TIP3    H242174   5.057   2.156  13.716 -2.8139 -0.6490  2.7451
 6895TIP3   OH242175   5.936   0.383  13.715 -0.3584  0.4674 -0.0461
 6895TIP3    H142176   5.919   0.388  13.621 -1.0595 -0.1448  0.0492
 6895TIP3    H242177   6.012   0.440  13.728 -1.2784  1.8879 -0.7189
 6896TIP3   OH242178   1.431   6.776  13.565  0.7399  0.2574 -0.5664
 6896TIP3    H142179   1.520   6.742  13.564  0.3275 -0.8451 -0.5275
 6896TIP3    H242180   1.403   6.775  13.473  0.8420  0.8105 -0.6074
 6897TIP3   OH242181   4.809   3.796  15.403  0.2442  0.0576  0.3502
 6897TIP3    H142182   4.729   3.770  15.450  0.2759  0.9834  0.9261
 6897TIP3    H242183   4.880   3.779  15.465  0.2354  1.8403  0.8753
 6898TIP3   OH242184   4.468   2.990   4.643 -0.2797 -0.1274  0.3596
 6898TIP3    H142185   4.460   2.948   4.729 -0.3684 -0.6031  0.1232
 6898TIP3    H242186   4.463   2.917   4.580 -3.7352  0.5505 -0.2313
 6899TIP3   OH242187   4.500   5.006  12.730 -0.2951  0.0943  0.0698
 6899TIP3    H142188   4.410   4.977  12.722 -0.2429  0.1916 -0.9767
 6899TIP3    H242189   4.499   5.067  12.804 -1.1937  0.5027 -0.2676
 6900TIP3   OH242190   1.386   5.751   1.545 -0.0598 -0.3475  0.2256
 6900TIP3    H142191   1.367   5.661   1.518 -0.9604  0.0770 -0.5933
 6900TIP3    H242192   1.454   5.742   1.612 -2.1095 -1.8238  2.2085
 6901TIP3   OH242193   0.222   4.400  13.254 -0.4653 -0.1303  0.0605
 6901TIP3    H142194   0.284   4.329  13.269 -0.5773 -0.5489 -1.3659
 6901TIP3    H242195   0.207   4.438  13.340  0.4135 -1.1583  0.6716
 6902TIP3   OH242196   1.302   0.822   6.375  0.4805  0.6442  0.9077
 6902TIP3    H142197   1.321   0.863   6.291  0.3287  0.9544  1.0253
 6902TIP3    H242198   1.277   0.894   6.432 -0.3380  0.3221  0.9558
 6903TIP3   OH242199   1.479   6.721   3.139 -0.1469  0.5907  0.3900
 6903TIP3    H142200   1.468   6.796   3.081 -0.3167 -0.6116 -1.1761
 6903TIP3    H242201   1.409   6.731   3.204  0.2507  2.1294  0.5919
 6904TIP3   OH242202   6.683   4.763  11.944 -0.4054 -0.3186  0.4244
 6904TIP3    H142203   6.590   4.779  11.961 -0.4640 -1.2866  1.0255
 6904TIP3    H242204   6.720   4.741  12.029  0.5958  1.0629  0.3684
 6905TIP3   OH242205   1.141   1.647   4.361 -0.7042 -0.0305  0.0076
 6905TIP3    H142206   1.076   1.632   4.292 -0.9398  1.5545 -0.1227
 6905TIP3    H242207   1.097   1.703   4.424  0.1101 -0.0169  0.5648
 6906TIP3   OH242208   4.226   6.546  14.101 -0.0053  0.0289 -0.3764
 6906TIP3    H142209   4.276   6.577  14.026  0.4651  1.3719  0.4886
 6906TIP3    H242210   4.152   6.499  14.062  1.5968 -1.5169 -1.6578
 6907TIP3   OH242211   6.630   3.851  16.128 -0.2548  0.1434  0.2029
 6907TIP3    H142212   6.611   3.765  16.091 -1.7987  1.0714 -1.2458
 6907TIP3    H242213   6.546   3.897  16.127  0.6402  1.8452  0.4495
 6908TIP3   OH242214   1.856   4.672   2.187 -0.1881  0.5336 -0.2921
 6908TIP3    H142215   1.806   4.720   2.253 -2.8200 -1.9744 -0.3907
 6908TIP3    H242216   1.921   4.624   2.237  0.0108  1.2482  0.1474
 6909TIP3   OH242217   4.086   3.724   0.431  0.5149 -0.9261 -0.0006
 6909TIP3    H142218   4.090   3.670   0.509 -1.6035  0.0986  0.8656
 6909TIP3    H242219   4.034   3.800   0.457 -0.1586 -0.5237 -2.3673
 6910TIP3   OH242220   3.115   4.645   4.598 -0.8874 -0.0246 -0.1240
 6910TIP3    H142221   3.100   4.581   4.529 -1.7068  0.4193 -0.3547
 6910TIP3    H242222   3.073   4.607   4.675  0.9724 -1.0463  0.4309
 6911TIP3   OH242223   4.159   0.587  16.779 -0.0670  0.0515  0.4093
 6911TIP3    H142224   4.209   0.529  16.722  1.6045  1.5383  0.3136
 6911TIP3    H242225   4.080   0.537  16.801  0.4266 -1.4915 -1.1998
 6912TIP3   OH242226   2.844   5.074   0.196  1.0943  0.1470  0.0742
 6912TIP3    H142227   2.876   5.138   0.261  0.6652  0.5492 -0.1068
 6912TIP3    H242228   2.756   5.104   0.175  0.4304 -1.1988  0.8760
 6913TIP3   OH242229   0.543   3.439  14.319 -0.3055  0.2710  0.4516
 6913TIP3    H142230   0.503   3.524  14.337  0.6422  1.0394 -0.9893
 6913TIP3    H242231   0.636   3.456  14.315 -0.0688 -0.9157  0.5296
 6914TIP3   OH242232   5.208   2.828   3.556  0.3494  0.6269  0.4006
 6914TIP3    H142233   5.256   2.845   3.474  1.2132 -2.7417  0.1622
 6914TIP3    H242234   5.276   2.828   3.623  0.0983  0.0757  0.6529
 6915TIP3   OH242235   1.898   5.681  10.784 -0.0931 -0.3468 -0.6473
 6915TIP3    H142236   1.983   5.719  10.802 -0.0636 -1.0776  0.8010
 6915TIP3    H242237   1.912   5.625  10.708  0.3744  0.6966 -1.3339
 6916TIP3   OH242238   5.666   3.000  12.657  0.0040 -0.0537 -0.0066
 6916TIP3    H142239   5.598   3.054  12.618  0.5068  1.6431  1.4227
 6916TIP3    H242240   5.738   3.003  12.594 -1.2912 -2.1024 -1.6659
 6917TIP3   OH242241   4.918   0.868   3.161 -0.2532 -0.5502 -0.5047
 6917TIP3    H142242   5.007   0.896   3.143 -0.3657  0.1110 -0.0301
 6917TIP3    H242243   4.863   0.932   3.117 -0.4950 -1.4485 -1.5334
 6918TIP3   OH242244   6.422   6.640   2.477  0.6900 -0.5781  0.3058
 6918TIP3    H142245   6.342   6.617   2.524  0.4510 -0.3375  0.0178
 6918TIP3    H242246   6.412   6.733   2.456  1.7697 -0.1212  1.7039
 6919TIP3   OH242247   5.502   6.458  13.554  0.1877  0.3343 -0.7923
 6919TIP3    H142248   5.509   6.492  13.644  0.6536 -1.0638 -0.2953
 6919TIP3    H242249   5.476   6.367  13.565 -0.2163  0.2905 -2.1028
 6920TIP3   OH242250   2.387   2.575   4.637  0.2113 -0.0251  0.4109
 6920TIP3    H142251   2.412   2.629   4.712  1.4665 -0.8646  0.6114
 6920TIP3    H242252   2.416   2.487   4.660 -2.1786 -0.8846  0.2646
 6921TIP3   OH242253   6.751   0.043   4.045 -0.5050  0.0601 -0.3862
 6921TIP3    H142254   6.701   0.014   4.121  1.3016 -1.3198  0.3223
 6921TIP3    H242255   6.832  -0.009   4.048  0.3245  1.1709 -2.3113
 6922TIP3   OH242256   5.799   3.517  16.233 -0.3040  0.1689 -0.3177
 6922TIP3    H142257   5.870   3.453  16.225 -1.6806 -1.7739  2.2171
 6922TIP3    H242258   5.824   3.571  16.309 -1.7189 -0.8475  0.9057
 6923TIP3   OH242259   3.452   0.544   4.516 -0.1193  0.0801 -0.1770
 6923TIP3    H142260   3.484   0.544   4.426 -2.1355  0.4275 -0.9189
 6923TIP3    H242261   3.379   0.482   4.516 -0.2589  0.2193  1.1683
 6924TIP3   OH242262   0.439   1.872   5.532 -0.1225  0.2320 -0.1940
 6924TIP3    H142263   0.400   1.885   5.445  0.2429 -1.0368 -0.5464
 6924TIP3    H242264   0.387   1.802   5.571  0.1380  0.3472  0.3643
 6925TIP3   OH242265   0.783   1.435  11.194  0.0370  0.0560 -0.1679
 6925TIP3    H142266   0.743   1.509  11.239  1.8779  0.9797 -0.0107
 6925TIP3    H242267   0.862   1.471  11.155  0.5672 -1.6701 -0.7175
 6926TIP3   OH242268   4.223   3.004  16.814 -0.2195 -0.0952 -0.0152
 6926TIP3    H142269   4.219   3.061  16.891  0.0420 -1.0064  0.6867
 6926TIP3    H242270   4.152   3.035  16.758 -0.8801  0.1328  0.9191
 6927TIP3   OH242271   2.582   0.177  16.039  0.0866 -0.1136 -0.2604
 6927TIP3    H142272   2.528   0.230  15.980 -1.5860 -0.3528  1.0299
 6927TIP3    H242273   2.558   0.086  16.019  0.2961 -0.2420  0.0554
 6928TIP3   OH242274   6.222   3.795  12.916  0.4303 -0.4832  0.3583
 6928TIP3    H142275   6.150   3.740  12.947 -0.1662 -0.5968 -1.1488
 6928TIP3    H242276   6.300   3.743  12.931 -0.0091 -1.2093  0.1731
 6929TIP3   OH242277   6.247   5.769  12.966  0.0070  0.4728  0.1093
 6929TIP3    H142278   6.221   5.709  13.035 -1.7270 -1.8610 -2.4653
 6929TIP3    H242279   6.330   5.733  12.934  0.2264  0.8743  0.2359
 6930TIP3   OH242280   4.439   1.438  16.936 -0.2874  0.4193 -0.1302
 6930TIP3    H142281   4.344   1.442  16.947 -0.3193  0.0561 -0.2500
 6930TIP3    H242282   4.471   1.521  16.969 -0.5304  0.0042  1.1673
 6931TIP3   OH242283   0.361   5.087  11.236  0.1548 -0.0965  0.0970
 6931TIP3    H142284   0.303   5.125  11.170  1.4965 -0.0487 -1.0713
 6931TIP3    H242285   0.386   5.002  11.200 -0.5463 -0.8653  1.3843
 6932TIP3   OH242286   2.400   6.795  10.787 -0.0634  0.4509 -0.2605
 6932TIP3    H142287   2.461   6.848  10.839  0.2897  0.3665 -0.5893
 6932TIP3    H242288   2.455   6.753  10.721 -0.1369 -1.3778  0.8012
 6933TIP3   OH242289   1.023   1.280  16.397 -0.2132 -0.5499 -0.1543
 6933TIP3    H142290   0.976   1.216  16.450 -0.1840 -0.4913 -0.0571
 6933TIP3    H242291   1.110   1.285  16.437 -0.3185 -0.2149  0.0282
 6934TIP3   OH242292   0.557   6.265  16.478 -0.2529 -0.0628  0.3215
 6934TIP3    H142293   0.501   6.342  16.490 -2.1597 -1.3838  0.0522
 6934TIP3    H242294   0.548   6.215  16.559 -0.7974 -1.1117 -0.3723
 6935TIP3   OH242295   6.764   4.080  15.639  0.5593 -0.1908 -0.6444
 6935TIP3    H142296   6.725   4.166  15.620 -0.3603 -0.9984 -2.6195
 6935TIP3    H242297   6.853   4.099  15.667 -0.4162  1.5539  1.3917
 6936TIP3   OH242298   3.072   5.695  11.917 -0.0036 -0.0091 -0.1482
 6936TIP3    H142299   3.106   5.646  11.842  0.3573 -1.3355  0.8484
 6936TIP3    H242300   3.072   5.786  11.889  2.4744 -0.2111 -0.8981
 6937TIP3   OH242301   4.139   4.565   1.689 -0.4426  0.1490  0.1073
 6937TIP3    H142302   4.131   4.577   1.783 -3.1260 -1.5624  0.1529
 6937TIP3    H242303   4.110   4.648   1.651 -0.8033  0.3270  0.7657
 6938TIP3   OH242304   2.547   4.121  10.365  0.0051  0.0112  0.5320
 6938TIP3    H142305   2.575   4.048  10.420 -0.6222 -0.2408  0.5252
 6938TIP3    H242306   2.451   4.111  10.360  0.1561 -0.6028 -1.4927
 6939TIP3   OH242307   5.084   6.483   6.265 -0.2357 -0.1638 -0.0777
 6939TIP3    H142308   5.166   6.513   6.225  0.1202  0.0405  0.7858
 6939TIP3    H242309   5.109   6.404   6.314 -0.1653  0.9315  1.7082
 6940TIP3   OH242310   0.221   4.890   6.115 -0.0354  0.3282 -0.0711
 6940TIP3    H142311   0.152   4.859   6.056 -0.8502 -1.2924  1.6617
 6940TIP3    H242312   0.244   4.813   6.167  0.7967  1.6580  1.5836
 6941TIP3   OH242313   2.265   0.888  16.578  0.2111 -0.1344 -0.1751
 6941TIP3    H142314   2.306   0.865  16.661  0.2693  2.3214  0.5090
 6941TIP3    H242315   2.339   0.894  16.516  0.3116 -0.7117 -0.1129
 6942TIP3   OH242316   6.687   5.737  14.938  0.0567 -0.1178  0.7294
 6942TIP3    H142317   6.665   5.815  14.886 -0.0465 -0.6117  0.0378
 6942TIP3    H242318   6.646   5.754  15.023 -1.6079 -0.2843 -0.0283
 6943TIP3   OH242319   2.339   4.429   6.127  0.0710 -0.3518 -0.0540
 6943TIP3    H142320   2.411   4.366   6.129  0.0741 -0.3366  0.3193
 6943TIP3    H242321   2.266   4.385   6.170 -0.5435 -0.8457 -1.5798
 6944TIP3   OH242322   3.469   2.528  14.715 -0.4812 -0.0015 -0.6269
 6944TIP3    H142323   3.383   2.560  14.688 -0.6359 -0.1531 -0.3104
 6944TIP3    H242324   3.451   2.463  14.782 -0.0898  0.4890 -0.0367
 6945TIP3   OH242325   6.153   2.602   5.724  0.3003  0.1288  0.7884
 6945TIP3    H142326   6.203   2.561   5.653  0.3815  0.1114  0.8568
 6945TIP3    H242327   6.140   2.533   5.788 -1.9422 -0.5402 -0.3493
 6946TIP3   OH242328   3.471   1.193  12.394 -0.4577  0.1918 -0.2908
 6946TIP3    H142329   3.489   1.214  12.302  3.2166 -2.2296 -0.2488
 6946TIP3    H242330   3.408   1.121  12.390  0.7890 -0.8922 -1.0324
 6947TIP3   OH242331   0.334   6.397   2.613 -0.3318  0.0633  0.5185
 6947TIP3    H142332   0.246   6.433   2.623 -0.8805 -1.1020  0.0132
 6947TIP3    H242333   0.320   6.305   2.591  1.0318 -0.4463  1.7076
 6948TIP3   OH242334   1.332   3.446  10.840  0.5430  0.5572 -0.0712
 6948TIP3    H142335   1.245   3.477  10.813  0.3508 -1.0482 -1.3869
 6948TIP3    H242336   1.389   3.522  10.831 -0.5966  1.4480  0.1576
 6949TIP3   OH242337   1.952   4.240   1.137  0.3289 -0.1132 -0.2361
 6949TIP3    H142338   1.910   4.161   1.171 -0.7524  0.3729 -0.4036
 6949TIP3    H242339   2.032   4.249   1.188  0.2701 -1.1075  0.0405
 6950TIP3   OH242340   2.472   2.323   3.869 -0.6806 -0.2201 -0.3133
 6950TIP3    H142341   2.410   2.375   3.918 -1.5320 -1.1830 -0.3414
 6950TIP3    H242342   2.521   2.386   3.816  1.0277  0.9572  2.5498
 6951TIP3   OH242343   4.461   3.916   5.399 -0.5025  0.1776  0.3465
 6951TIP3    H142344   4.512   3.887   5.323 -0.8200 -1.7486  0.8443
 6951TIP3    H242345   4.503   3.874   5.474 -0.8273  1.2305  1.1295
 6952TIP3   OH242346   5.068   2.261   1.783  0.4047 -0.0356 -0.1078
 6952TIP3    H142347   5.141   2.269   1.721  0.1317  0.2875 -0.3932
 6952TIP3    H242348   5.069   2.344   1.831  0.1282  0.0357 -0.2242
 6953TIP3   OH242349   6.627   0.281   5.901 -0.7249 -0.6190  0.4338
 6953TIP3    H142350   6.653   0.245   5.816 -1.1104  0.0297  0.0320
 6953TIP3    H242351   6.661   0.371   5.899 -3.4551  0.4529 -0.3371
 6954TIP3   OH242352   4.641   6.601  16.600  0.9350  0.0087 -0.2084
 6954TIP3    H142353   4.734   6.580  16.592  0.5661 -1.5234 -0.6127
 6954TIP3    H242354   4.596   6.517  16.594 -0.4646  0.6790  0.3850
 6955TIP3   OH242355   0.659   5.104   0.351  0.6269 -0.5389  0.3390
 6955TIP3    H142356   0.683   5.014   0.372  1.4396 -0.2232  0.8056
 6955TIP3    H242357   0.710   5.125   0.273 -0.8924 -1.0571 -0.8027
 6956TIP3   OH242358   1.545   1.369  11.473 -0.5790 -0.0219  0.0839
 6956TIP3    H142359   1.490   1.314  11.530 -2.2223  0.7922 -0.6653
 6956TIP3    H242360   1.488   1.442  11.449  1.3936  1.7227  0.6152
 6957TIP3   OH242361   2.559   0.206  16.459  0.2483  0.3143  0.4947
 6957TIP3    H142362   2.470   0.187  16.429  0.2465  0.9357  0.0697
 6957TIP3    H242363   2.591   0.271  16.396  0.9422  0.2068  0.7361
 6958TIP3   OH242364   5.982   0.077  16.444  0.2500 -0.4984  0.3475
 6958TIP3    H142365   5.943   0.163  16.461  0.8258  0.1071 -1.3575
 6958TIP3    H242366   6.028   0.087  16.361  1.1681 -2.1817  0.6378
 6959TIP3   OH242367   1.346   3.914  14.239  0.5323  0.4516  0.1252
 6959TIP3    H142368   1.314   3.831  14.274  0.0123  1.0156  0.9950
 6959TIP3    H242369   1.425   3.933  14.289  0.7482  0.3931 -0.1932
 6960TIP3   OH242370   6.157   6.327   3.116  0.1730  0.1657  0.3081
 6960TIP3    H142371   6.230   6.370   3.160  1.1104  1.2838 -2.2279
 6960TIP3    H242372   6.182   6.235   3.113  0.6899  0.2804  0.9702
 6961TIP3   OH242373   1.371   2.731   4.958 -0.7267  0.0458  0.3501
 6961TIP3    H142374   1.277   2.748   4.958 -0.9196 -0.9461 -0.3335
 6961TIP3    H242375   1.379   2.640   4.989 -0.2202 -0.8631 -2.2534
 6962TIP3   OH242376   0.294   1.625  14.772 -0.3514 -0.1507 -0.2162
 6962TIP3    H142377   0.298   1.718  14.792 -0.7121 -0.0310 -0.6926
 6962TIP3    H242378   0.317   1.619  14.679 -2.5218 -0.3121 -0.7738
 6963TIP3   OH242379   6.248   3.571  13.122 -0.4325  0.6367 -0.5838
 6963TIP3    H142380   6.169   3.577  13.177 -1.0889  0.6108 -1.5213
 6963TIP3    H242381   6.315   3.617  13.172 -0.5248 -1.0117  1.1263
 6964TIP3   OH242382   5.825   2.569  10.334  0.2561 -0.2958 -1.1631
 6964TIP3    H142383   5.891   2.618  10.384 -0.4462  0.7123 -1.2206
 6964TIP3    H242384   5.873   2.532  10.260  0.7800  0.3092 -1.1217
 6965TIP3   OH242385   0.516   0.485  15.500  0.1734  0.4452  0.3839
 6965TIP3    H142386   0.601   0.485  15.456 -0.2392  1.4839 -0.4543
 6965TIP3    H242387   0.496   0.578  15.511 -1.3558  0.2299 -0.4358
 6966TIP3   OH242388   4.072   5.432   1.305  0.6705 -0.4691  0.1843
 6966TIP3    H142389   4.062   5.519   1.266 -0.1025 -0.0046  1.3960
 6966TIP3    H242390   3.987   5.391   1.295  0.5133 -0.4052  1.2263
 6967TIP3   OH242391   6.294   5.062   3.511 -0.5738 -0.0176 -0.7359
 6967TIP3    H142392   6.352   5.032   3.442  1.2521  0.8926  0.3714
 6967TIP3    H242393   6.207   5.061   3.471  0.4681  0.7665 -3.1229
 6968TIP3   OH242394   2.628   1.129   0.468  0.3011 -0.0779 -0.0002
 6968TIP3    H142395   2.686   1.100   0.538 -1.6055 -0.2709  1.5368
 6968TIP3    H242396   2.591   1.048   0.433  0.7282  0.0613 -0.7822
 6969TIP3   OH242397   5.701   5.711   4.351  0.5280 -0.0537  0.3548
 6969TIP3    H142398   5.640   5.714   4.277  0.8840  0.6494  0.0837
 6969TIP3    H242399   5.647   5.690   4.427 -0.2124  1.5394  0.2817
 6970TIP3   OH242400   2.682   2.726   6.780  0.4847  0.0138  0.1610
 6970TIP3    H142401   2.638   2.665   6.721 -1.1450 -1.3278  2.6807
 6970TIP3    H242402   2.669   2.812   6.739 -2.9225 -0.5696 -0.1259
 6971TIP3   OH242403   2.626   1.274   3.412 -0.0245 -0.2024 -0.1956
 6971TIP3    H142404   2.653   1.202   3.469 -0.5758  0.0303  0.3650
 6971TIP3    H242405   2.636   1.239   3.323  1.7058 -0.2660  0.0027
 6972TIP3   OH242406   5.285   6.716   3.129  0.3963  0.2677  0.2395
 6972TIP3    H142407   5.310   6.796   3.083  1.0139  1.3869  2.4610
 6972TIP3    H242408   5.192   6.730   3.150 -0.1018 -0.5809 -1.2821
 6973TIP3   OH242409   6.650   2.316   0.030 -0.6902  0.4593 -0.6766
 6973TIP3    H142410   6.727   2.365   0.057  0.1092 -0.7494 -0.7330
 6973TIP3    H242411   6.672   2.281  -0.057 -0.5195 -1.4874  0.1096
 6974TIP3   OH242412   5.797   6.740  17.045 -0.0733 -0.2628 -0.1187
 6974TIP3    H142413   5.848   6.717  17.124 -0.5032 -0.0613  0.2178
 6974TIP3    H242414   5.832   6.824  17.017 -0.6349  0.1672  0.4666
 6975TIP3   OH242415   4.339   1.514   4.543 -0.2858  0.0808 -0.5096
 6975TIP3    H142416   4.279   1.547   4.476 -2.0798 -2.1508 -0.0588
 6975TIP3    H242417   4.302   1.546   4.625 -0.1436 -0.2521 -0.3174
 6976TIP3   OH242418   5.250   4.605  10.600 -0.1772 -0.3163 -0.1583
 6976TIP3    H142419   5.259   4.613  10.505  0.7762 -0.6374 -0.1028
 6976TIP3    H242420   5.307   4.531  10.623 -0.5402 -0.3481  0.6402
 6977TIP3   OH242421   1.735   3.503   4.344  0.1138 -0.4556 -0.1188
 6977TIP3    H142422   1.781   3.428   4.381  0.7539  0.4915  1.0394
 6977TIP3    H242423   1.647   3.471   4.327  0.5281 -1.6160 -0.1343
 6978TIP3   OH242424   0.062   5.430   3.636  0.1852  0.2017 -0.0092
 6978TIP3    H142425   0.090   5.520   3.617  0.5308  0.1022  0.0116
 6978TIP3    H242426   0.133   5.376   3.602 -0.2871 -0.0930 -0.5217
 6979TIP3   OH242427   3.217   3.862   1.096  0.4874  0.1068 -0.0600
 6979TIP3    H142428   3.271   3.859   1.017  0.1385 -1.8128 -0.2454
 6979TIP3    H242429   3.274   3.826   1.165 -0.1704 -0.8993 -0.0346
 6980TIP3   OH242430   5.876   4.402   3.658  0.3351 -0.3279 -0.4525
 6980TIP3    H142431   5.843   4.447   3.736  1.3730 -1.2277  0.5360
 6980TIP3    H242432   5.819   4.325   3.649 -0.1544  0.0894 -0.9328
 6981TIP3   OH242433   4.885   5.216  15.642 -0.2242  0.0809 -0.1657
 6981TIP3    H142434   4.946   5.154  15.683 -1.5384 -0.3344  1.2032
 6981TIP3    H242435   4.799   5.188  15.672 -0.8592  2.5161  0.4194
 6982TIP3   OH242436   3.441   4.233   3.997  0.3757 -0.2414  0.4275
 6982TIP3    H142437   3.446   4.190   4.083 -0.0476 -0.4928  0.3286
 6982TIP3    H242438   3.484   4.317   4.010  1.2118 -0.6980  0.6220
 6983TIP3   OH242439   5.607   3.688  16.491 -0.1957 -0.4207 -0.1410
 6983TIP3    H142440   5.620   3.718  16.401 -1.3991 -0.3326 -0.2886
 6983TIP3    H242441   5.605   3.592  16.484  0.2492 -0.4290 -0.1383
 6984TIP3   OH242442   5.417   0.019  13.279 -0.7363 -0.0626  0.1503
 6984TIP3    H142443   5.495   0.002  13.225  0.0464 -1.3431  1.6413
 6984TIP3    H242444   5.359  -0.054  13.261 -0.7535 -0.1469  0.5502
 6985TIP3   OH242445   4.126   1.702   1.442 -0.0547 -0.5194 -0.0649
 6985TIP3    H142446   4.142   1.729   1.532 -1.8955  0.6084 -0.0605
 6985TIP3    H242447   4.073   1.622   1.450 -0.7018 -0.1016 -0.1419
 6986TIP3   OH242448   4.315   2.167   1.829 -0.2035  0.2397 -0.2537
 6986TIP3    H142449   4.305   2.107   1.754 -2.1983  0.4911 -0.2077
 6986TIP3    H242450   4.398   2.141   1.869  0.2000 -0.8210 -1.7379
 6987TIP3   OH242451   4.689   6.277   5.943 -0.3065  0.4370  0.3341
 6987TIP3    H142452   4.696   6.199   5.888  0.7544  0.9546 -0.2867
 6987TIP3    H242453   4.780   6.299   5.963 -0.5409  2.2888 -0.5857
 6988TIP3   OH242454   5.508   2.893  12.972 -0.3396  0.3071 -0.1616
 6988TIP3    H142455   5.566   2.820  12.994 -1.7963  0.0780  3.2327
 6988TIP3    H242456   5.461   2.864  12.894  2.9324 -0.1147 -2.0758
 6989TIP3   OH242457   6.067   2.387   5.903 -0.4137  0.6401 -0.0040
 6989TIP3    H142458   6.113   2.314   5.862 -1.5057 -0.3649  0.5263
 6989TIP3    H242459   6.008   2.345   5.966  0.0097  2.0571  1.3648
 6990TIP3   OH242460   6.191   4.746   1.274  0.2846  0.5737 -0.2457
 6990TIP3    H142461   6.154   4.720   1.189  0.7894  0.3749 -0.4049
 6990TIP3    H242462   6.120   4.732   1.336  0.8288 -2.1399 -0.1664
 6991TIP3   OH242463   0.440   0.764   5.350  0.5113  0.3969  0.3427
 6991TIP3    H142464   0.521   0.797   5.311  1.8361 -0.4342  2.3019
 6991TIP3    H242465   0.435   0.673   5.321  0.2403  0.4804  0.1352
 6992TIP3   OH242466   5.382   3.984  10.565  0.0575 -0.0393  0.2850
 6992TIP3    H142467   5.450   4.017  10.624  1.9759  0.5849 -2.1933
 6992TIP3    H242468   5.336   4.062  10.536  1.2284 -0.0103 -1.5409
 6993TIP3   OH242469   1.163   2.669  12.244 -0.9788  0.1025  0.5225
 6993TIP3    H142470   1.251   2.656  12.208 -0.6945  1.3996  0.7331
 6993TIP3    H242471   1.177   2.710  12.329 -1.8450  3.6009 -0.8996
 6994TIP3   OH242472   0.588   4.274   4.953  0.4048 -0.1865  0.3388
 6994TIP3    H142473   0.673   4.258   4.912  1.4534  0.8147  2.1006
 6994TIP3    H242474   0.561   4.189   4.987  0.5208 -0.5779 -0.5332
 6995TIP3   OH242475   2.282   6.273   3.666 -0.0125 -0.1937  0.6642
 6995TIP3    H142476   2.372   6.305   3.676 -0.8942  2.3361  0.7359
 6995TIP3    H242477   2.269   6.216   3.741  0.9343  0.8500  1.6381
 6996TIP3   OH242478   3.877   5.208  14.767 -0.2699 -0.0626 -0.0514
 6996TIP3    H142479   3.886   5.295  14.729 -2.5377 -0.4490 -1.6235
 6996TIP3    H242480   3.944   5.156  14.723 -0.8280  0.2399 -1.3160
 6997TIP3   OH242481   1.087   5.010  11.597  0.2768  0.2486 -0.4855
 6997TIP3    H142482   1.167   5.039  11.640 -0.2303  1.5702 -0.4005
 6997TIP3    H242483   1.025   5.082  11.611 -0.7534 -0.5202 -1.0164
 6998TIP3   OH242484   4.967   3.604  13.385  0.2078  0.3977  0.3212
 6998TIP3    H142485   4.890   3.643  13.426 -0.6833 -0.2436 -0.7083
 6998TIP3    H242486   4.932   3.548  13.315  1.6456  0.8227 -0.7762
 6999TIP3   OH242487   6.425   1.492  12.874  0.6343 -0.0106  0.2087
 6999TIP3    H142488   6.479   1.571  12.868 -0.3348  0.8137  1.9302
 6999TIP3    H242489   6.393   1.492  12.964 -1.3069 -1.1004 -0.4576
 7000TIP3   OH242490   2.051   3.927   2.936 -0.0132 -0.1801  0.5451
 7000TIP3    H142491   2.126   3.897   2.988  0.2793 -1.6199 -0.6813
 7000TIP3    H242492   1.991   3.853   2.936 -0.4945  0.2133 -0.2491
 7001TIP3   OH242493   1.088   3.718  14.226  0.1940  0.1275  0.2095
 7001TIP3    H142494   1.079   3.813  14.214  0.7907 -0.0046 -1.3713
 7001TIP3    H242495   1.005   3.691  14.265 -0.7124  1.0374 -1.0445
 7002TIP3   OH242496   1.086   2.303  15.602  0.2197  0.1469 -0.1062
 7002TIP3    H142497   1.004   2.307  15.553 -0.3036  0.1372  0.7572
 7002TIP3    H242498   1.100   2.210  15.617  0.1240  0.1803  0.1891
 7003TIP3   OH242499   5.899   5.228   1.614  0.2320 -0.8145  0.3757
 7003TIP3    H142500   5.987   5.245   1.581  0.0776 -0.3193  0.2033
 7003TIP3    H242501   5.893   5.280   1.694 -1.1483  2.1741 -1.5286
 7004TIP3   OH242502   3.971   4.951  13.860 -0.4416 -0.3728  0.2380
 7004TIP3    H142503   3.919   5.029  13.878  0.2453  0.2519 -0.4448
 7004TIP3    H242504   4.061   4.977  13.881 -0.2423 -1.0574  0.2412
 7005TIP3   OH242505   6.770   2.506  14.673 -0.0447 -0.1393 -0.4558
 7005TIP3    H142506   6.787   2.534  14.763  0.4874  0.9134 -0.8708
 7005TIP3    H242507   6.675   2.501  14.666 -0.1173  0.6002 -0.0639
 7006TIP3   OH242508   5.597   4.010   3.845  0.0444 -0.0330 -0.1879
 7006TIP3    H142509   5.629   4.018   3.934 -2.5764 -0.4332  0.8268
 7006TIP3    H242510   5.575   4.100   3.819  0.6221  0.0572 -0.3741
 7007TIP3   OH242511   5.003   3.800  10.142  0.0159 -0.1808  0.5116
 7007TIP3    H142512   5.094   3.807  10.171  0.0642 -1.0109  0.5736
 7007TIP3    H242513   4.967   3.728  10.193 -0.1612 -1.0563 -0.8106
 7008TIP3   OH242514   5.885   0.989  17.142  0.5913 -0.2080  0.5673
 7008TIP3    H142515   5.885   1.050  17.216  0.2625 -0.4346  0.7556
 7008TIP3    H242516   5.977   0.985  17.114  0.4623  1.1777 -0.1192
 7009TIP3   OH242517   5.783   1.175   4.203  0.9259  0.0755 -0.1835
 7009TIP3    H142518   5.738   1.259   4.200  0.1886 -0.3016  0.1557
 7009TIP3    H242519   5.787   1.153   4.296  0.4366 -0.6141 -0.3183
 7010TIP3   OH242520   0.150   2.266  17.208 -0.8585 -0.0448  0.0727
 7010TIP3    H142521   0.109   2.230  17.130 -1.9311  0.7317  0.2657
 7010TIP3    H242522   0.240   2.284  17.182 -1.3454  0.6698 -1.1339
 7011TIP3   OH242523   0.012   4.861  13.142 -0.3536 -0.6766 -0.8417
 7011TIP3    H142524   0.065   4.781  13.138  1.8065  0.5970  0.9553
 7011TIP3    H242525   0.077   4.932  13.146 -2.2197  1.0084  0.0973
 7012TIP3   OH242526   4.648   0.981  13.936 -0.2559 -0.7392  1.2238
 7012TIP3    H142527   4.740   1.007  13.927 -0.4226 -0.1149  1.2923
 7012TIP3    H242528   4.604   1.060  13.968 -0.6012 -1.3878  2.3703
 7013TIP3   OH242529   5.631   1.567   3.739  0.1281  0.3410  0.3397
 7013TIP3    H142530   5.643   1.472   3.740  0.8900  0.3288 -3.0625
 7013TIP3    H242531   5.547   1.582   3.782  1.6090 -1.5460  4.0633
 7014TIP3   OH242532   3.410   6.510   6.070  0.5741 -0.2617 -0.1135
 7014TIP3    H142533   3.398   6.489   6.163 -0.5621  0.8153 -0.0153
 7014TIP3    H242534   3.323   6.502   6.032  0.7209  1.0252 -0.7360
 7015TIP3   OH242535   3.058   5.884  15.326  0.0870 -0.2289 -0.1666
 7015TIP3    H142536   3.120   5.822  15.288  0.7249  0.5259 -0.3709
 7015TIP3    H242537   3.048   5.856  15.417  0.8061 -0.2930 -0.1060
 7016TIP3   OH242538   1.512   2.316  14.786 -0.3968 -0.3856  0.2848
 7016TIP3    H142539   1.533   2.372  14.712 -1.5449  2.8475  2.3128
 7016TIP3    H242540   1.579   2.337  14.851 -0.5042 -1.7971  0.8646
 7017TIP3   OH242541   4.633   1.828   2.564 -0.2213  0.1811 -0.1849
 7017TIP3    H142542   4.608   1.756   2.622  0.7290 -2.3320 -2.7705
 7017TIP3    H242543   4.726   1.814   2.548 -0.8031 -0.1840 -3.5815
 7018TIP3   OH242544   3.572   2.419  15.373 -0.1680  0.1518  0.1587
 7018TIP3    H142545   3.643   2.483  15.377  0.2346 -0.3874  2.0722
 7018TIP3    H242546   3.616   2.334  15.369 -0.6957 -0.1310  0.2716
 7019TIP3   OH242547   1.417   6.285   1.129  0.0278  0.6305  0.0387
 7019TIP3    H142548   1.476   6.320   1.195  0.5776 -1.1934  0.5344
 7019TIP3    H242549   1.333   6.277   1.175 -0.3199  2.0540 -0.3167
 7020TIP3   OH242550   0.865   5.134  15.567  0.1961 -0.0875 -0.7604
 7020TIP3    H142551   0.827   5.187  15.637 -2.0067 -0.7370 -1.4167
 7020TIP3    H242552   0.950   5.106  15.601  0.2250  1.6249  0.6601
 7021TIP3   OH242553   1.209   4.539   0.603  0.4272 -0.5330  0.0806
 7021TIP3    H142554   1.183   4.512   0.691 -1.7160 -1.6897 -0.8490
 7021TIP3    H242555   1.132   4.522   0.549  1.9916 -0.7121 -2.1963
 7022TIP3   OH242556   2.352   2.657   5.319 -0.3753 -0.8076  0.1937
 7022TIP3    H142557   2.341   2.644   5.225 -1.3256 -1.6411  0.4195
 7022TIP3    H242558   2.332   2.750   5.333 -0.3532 -0.7141 -0.4012
 7023TIP3   OH242559   0.647   1.068   5.614  0.2499  0.0464  0.2598
 7023TIP3    H142560   0.570   1.124   5.620 -0.9403 -1.4254 -0.6601
 7023TIP3    H242561   0.647   1.018   5.695  2.5764  2.8752  2.0901
 7024TIP3   OH242562   2.695   1.407  13.465 -0.2273  0.2316  0.5322
 7024TIP3    H142563   2.652   1.426  13.381 -0.5077  1.9411  1.0391
 7024TIP3    H242564   2.783   1.445  13.456 -0.3741  0.7252  1.1188
 7025TIP3   OH242565   1.897   0.480  15.404  0.2981  0.0637 -0.3049
 7025TIP3    H142566   1.878   0.400  15.452  0.9847  0.0950  0.0359
 7025TIP3    H242567   1.826   0.489  15.341 -0.7469  0.1360  0.8541
 7026TIP3   OH242568   4.738   1.581   5.219  0.1774 -0.8637 -0.3734
 7026TIP3    H142569   4.816   1.628   5.189 -1.5170  1.6253 -1.0598
 7026TIP3    H242570   4.699   1.546   5.138 -1.6002  1.4429 -0.5718
 7027TIP3   OH242571   2.069   0.017  16.090  0.2523  0.0273  0.1363
 7027TIP3    H142572   2.033   0.095  16.047 -1.3112  1.0547  3.1279
 7027TIP3    H242573   1.993  -0.040  16.102  1.1216 -1.3168 -0.6550
 7028TIP3   OH242574   3.900   4.522  12.792 -0.1019 -0.1349  1.0915
 7028TIP3    H142575   3.858   4.567  12.718  1.1245 -0.6062  0.0976
 7028TIP3    H242576   3.948   4.591  12.838 -0.2548  0.0231  1.0144
 7029TIP3   OH242577   2.310   4.152   6.209  0.2173 -0.1775 -0.5478
 7029TIP3    H142578   2.293   4.059   6.224  0.4645 -0.1445 -0.0642
 7029TIP3    H242579   2.228   4.196   6.234  0.1311 -0.2530 -0.6929
 7030TIP3   OH242580   1.006   5.363  12.305  0.0556 -0.0174  0.7147
 7030TIP3    H142581   1.080   5.382  12.247 -0.5239  1.3394  0.3966
 7030TIP3    H242582   0.938   5.328  12.246 -0.5497  1.4051  0.5549
 7031TIP3   OH242583   2.846   2.520   5.369  0.1036 -0.3899  0.3831
 7031TIP3    H142584   2.767   2.465   5.361 -0.2159  0.3049 -1.4404
 7031TIP3    H242585   2.913   2.461   5.402 -0.3682 -1.7946 -1.1019
 7032TIP3   OH242586   0.216   4.342   5.229  0.3029 -0.4326  0.0627
 7032TIP3    H142587   0.231   4.361   5.137 -1.0402 -2.0551 -0.5210
 7032TIP3    H242588   0.268   4.263   5.247  0.3423 -0.2864  0.6077
 7033TIP3   OH242589   3.752   3.627   5.812  0.8438 -0.1204  0.2550
 7033TIP3    H142590   3.726   3.716   5.788  0.3605 -0.1506  0.6534
 7033TIP3    H242591   3.734   3.622   5.906 -2.9709 -1.9527 -0.4889
 7034TIP3   OH242592   0.141   5.823   3.240  0.0469  0.0371 -0.7020
 7034TIP3    H142593   0.131   5.778   3.156  0.0163  0.9643 -1.2003
 7034TIP3    H242594   0.188   5.904   3.219 -0.0516  0.3266  0.1553
 7035TIP3   OH242595   1.453   3.835   4.006  0.0123  0.0052 -0.1569
 7035TIP3    H142596   1.391   3.840   4.079  0.9245 -2.5308  0.8309
 7035TIP3    H242597   1.406   3.873   3.932 -1.4483  1.3132  1.3812
 7036TIP3   OH242598   5.494   5.772  13.044  0.3456 -0.0655  0.3589
 7036TIP3    H142599   5.462   5.692  13.002  3.0705 -1.8142  1.4664
 7036TIP3    H242600   5.479   5.841  12.978 -1.0282 -1.6645 -1.0494
 7037TIP3   OH242601   2.050   6.115  11.239  0.3383 -0.1796 -0.2757
 7037TIP3    H142602   2.119   6.173  11.271 -1.1634  1.6426 -0.2716
 7037TIP3    H242603   2.041   6.137  11.146 -0.1429 -0.5125 -0.3123
 7038TIP3   OH242604   5.290   4.088   1.077  0.3477  0.0820  0.3081
 7038TIP3    H142605   5.375   4.129   1.095  0.9499 -0.7081 -0.6057
 7038TIP3    H242606   5.313   4.009   1.028 -0.7342 -1.7110  2.6092
 7039TIP3   OH242607   0.060   6.211  11.386  0.0555  0.5408 -0.3938
 7039TIP3    H142608   0.131   6.148  11.374 -0.3954  0.3503 -2.1024
 7039TIP3    H242609  -0.001   6.167  11.446  1.3332  0.6952  1.0515
 7040TIP3   OH242610   1.440   3.018  12.615  0.4412  0.4279  0.0218
 7040TIP3    H142611   1.469   3.006  12.524  0.9998  2.4152 -0.0748
 7040TIP3    H242612   1.495   2.957  12.665  0.0307 -0.7941 -0.9757
 7041TIP3   OH242613   0.556   2.502  12.957  0.3449  0.2510  0.4446
 7041TIP3    H142614   0.637   2.544  12.926 -0.2710  1.1887  0.0803
 7041TIP3    H242615   0.545   2.536  13.046 -0.9162  2.0154 -0.3524
 7042TIP3   OH242616   4.011   2.438  15.467  0.2637 -0.0429  0.4072
 7042TIP3    H142617   3.993   2.367  15.406 -0.9821 -0.0655  0.8022
 7042TIP3    H242618   3.932   2.492  15.466  0.3691  0.1535  1.7198
 7043TIP3   OH242619   3.103   1.047  15.118  0.6229  0.8195 -1.1271
 7043TIP3    H142620   3.131   1.137  15.102  1.2416  0.6434 -1.0516
 7043TIP3    H242621   3.008   1.053  15.130  0.7911  1.5928 -0.1400
 7044TIP3   OH242622   1.610   6.630   1.181 -0.0878  0.0283 -0.5168
 7044TIP3    H142623   1.638   6.650   1.092  1.0370  1.1550  0.0735
 7044TIP3    H242624   1.647   6.544   1.199  0.3888  0.1686 -0.8324
 7045TIP3   OH242625   5.630   5.943  14.101 -0.2299  0.3321 -0.0563
 7045TIP3    H142626   5.597   5.853  14.104  4.2586 -1.4441 -0.2765
 7045TIP3    H242627   5.626   5.974  14.191  1.3120 -1.3289  0.5983
 7046TIP3   OH242628   2.720   6.718  13.059  0.4952  0.1484 -0.2753
 7046TIP3    H142629   2.679   6.736  13.143  1.8327 -0.2140  0.4639
 7046TIP3    H242630   2.688   6.631  13.035 -1.5372  1.1128 -1.1638
 7047TIP3   OH242631   5.065   0.055   6.509  0.6452 -0.6027 -0.4633
 7047TIP3    H142632   5.031  -0.031   6.536  1.0819 -1.0342 -1.2710
 7047TIP3    H242633   5.006   0.118   6.552 -1.0664 -1.3363 -1.6743
 7048TIP3   OH242634   6.053   0.669   2.271 -0.3100 -0.2113 -0.0765
 7048TIP3    H142635   6.023   0.706   2.354 -0.2875  0.7600 -0.5058
 7048TIP3    H242636   6.037   0.575   2.281  0.5149 -0.2196  1.3683
 7049TIP3   OH242637   1.033   1.789   3.340  0.9479 -0.0018  0.2329
 7049TIP3    H142638   0.961   1.783   3.402  1.0406  0.1633  0.3571
 7049TIP3    H242639   1.085   1.710   3.355 -0.6131 -1.4178 -1.6229
 7050TIP3   OH242640   1.631   6.510   4.246 -0.7105 -0.4488 -0.3171
 7050TIP3    H142641   1.554   6.552   4.209 -0.1663  1.0145  0.2038
 7050TIP3    H242642   1.623   6.526   4.340 -0.1275 -0.9032 -0.1917
 7051TIP3   OH242643   1.435   2.385  11.521  0.5559 -0.3377 -0.7321
 7051TIP3    H142644   1.351   2.421  11.490  0.1689 -1.9853 -1.6666
 7051TIP3    H242645   1.419   2.363  11.612  0.1633 -0.0988 -0.7400
 7052TIP3   OH242646   2.410   3.759  12.265  0.4763 -0.2315 -1.1945
 7052TIP3    H142647   2.479   3.746  12.330 -0.1525  1.9094 -0.0485
 7052TIP3    H242648   2.329   3.733  12.309 -0.2710  3.4171 -0.1935
 7053TIP3   OH242649   6.018   5.214  14.129 -0.3331 -0.4434  0.2301
 7053TIP3    H142650   5.988   5.301  14.153 -1.1255 -0.6637  0.0360
 7053TIP3    H242651   6.044   5.173  14.211  2.9192  1.0314  0.0516
 7054TIP3   OH242652   3.003   1.616  16.243 -0.1816 -0.3491  0.5245
 7054TIP3    H142653   2.909   1.602  16.232 -0.0221 -0.8311 -0.2435
 7054TIP3    H242654   3.011   1.661  16.328 -1.1695  0.4648  0.1952
 7055TIP3   OH242655   1.560   4.974   4.772  0.3171  0.1621 -0.8211
 7055TIP3    H142656   1.636   5.026   4.799  0.5077  1.2842 -3.3271
 7055TIP3    H242657   1.514   5.030   4.709 -2.9348 -0.2663  1.0692
 7056TIP3   OH242658   4.693   5.253  10.968  0.9806 -0.0177 -0.2229
 7056TIP3    H142659   4.698   5.336  10.921 -0.9041 -0.0376 -0.4726
 7056TIP3    H242660   4.713   5.187  10.901  1.0884  0.1281 -0.3363
 7057TIP3   OH242661   5.468   4.570   4.506  0.0077  0.5569 -0.0258
 7057TIP3    H142662   5.397   4.615   4.551 -1.8911 -2.5568  0.2267
 7057TIP3    H242663   5.539   4.567   4.569 -0.4086  1.7643  0.5073
 7058TIP3   OH242664   5.455   4.401   0.936 -0.1900 -0.2256 -0.0529
 7058TIP3    H142665   5.512   4.325   0.947  0.3119  0.3004  1.0331
 7058TIP3    H242666   5.473   4.432   0.848  0.0331 -1.0137 -0.2882
 7059TIP3   OH242667   3.179   4.793  16.431 -0.2919  0.0324  0.0306
 7059TIP3    H142668   3.251   4.730  16.433  0.0080  0.3644 -0.1413
 7059TIP3    H242669   3.215   4.869  16.384 -0.7421  0.2130 -0.0292
 7060TIP3   OH242670   2.401   0.723   3.774 -0.0510 -0.0916  0.4589
 7060TIP3    H142671   2.368   0.790   3.834  0.5501  0.2497  0.4174
 7060TIP3    H242672   2.467   0.769   3.722 -2.0765  0.2148 -1.9561
 7061TIP3   OH242673   6.299   0.694   3.427  0.1214 -1.0148 -0.0994
 7061TIP3    H142674   6.386   0.687   3.467  0.1836 -0.3008 -0.0956
 7061TIP3    H242675   6.308   0.652   3.342  0.6319 -0.4107 -0.3446
 7062TIP3   OH242676   1.159   2.455   5.152 -0.2581  0.4761 -0.3134
 7062TIP3    H142677   1.151   2.482   5.061 -1.4610  0.1403 -0.3155
 7062TIP3    H242678   1.226   2.386   5.151 -0.1580  0.5834 -0.9214
 7063TIP3   OH242679   2.694   6.612  16.039  0.0906 -0.1431  0.1628
 7063TIP3    H142680   2.635   6.640  15.969 -1.0850 -0.5120  0.9823
 7063TIP3    H242681   2.723   6.525  16.013 -0.4605 -0.3395  0.1977
 7064TIP3   OH242682   1.853   5.410   0.525  0.3519  0.0611  0.1023
 7064TIP3    H142683   1.863   5.504   0.507  1.7015  0.1425  1.2015
 7064TIP3    H242684   1.776   5.405   0.582  0.9529  0.6241  0.9772
 7065TIP3   OH242685   1.275   4.277   2.379  0.3321 -0.4803  0.1547
 7065TIP3    H142686   1.198   4.259   2.434  0.6818 -1.3455  0.3647
 7065TIP3    H242687   1.254   4.239   2.294 -0.3669  1.1916 -0.4443
 7066TIP3   OH242688   0.051   1.344   5.751  0.4802 -0.7013  0.0723
 7066TIP3    H142689  -0.034   1.384   5.770 -0.5585 -2.8459  0.0941
 7066TIP3    H242690   0.113   1.396   5.802 -0.9149  0.3548  0.7517
 7067TIP3   OH242691   3.030   3.934  15.611 -0.4630  0.2596  0.2583
 7067TIP3    H142692   3.059   3.901  15.526 -0.9115 -1.4151  0.7500
 7067TIP3    H242693   2.949   3.980  15.592 -2.2388 -2.7751  0.2111
 7068TIP3   OH242694   5.868   2.907   0.491 -0.1100  0.4920  0.3248
 7068TIP3    H142695   5.845   2.937   0.578  1.7608 -1.3529  1.4935
 7068TIP3    H242696   5.848   2.814   0.491  1.3125  0.1576 -0.6992
 7069TIP3   OH242697   2.917   0.774   5.384 -0.1402 -0.0843  0.5861
 7069TIP3    H142698   2.855   0.812   5.322  0.8310  2.6394  1.2227
 7069TIP3    H242699   2.982   0.729   5.330 -0.9228 -0.2456 -0.2163
 7070TIP3   OH242700   3.020   2.558  17.254 -0.3061 -0.5821  0.3042
 7070TIP3    H142701   2.929   2.576  17.278 -0.8514 -2.3342 -0.3822
 7070TIP3    H242702   3.071   2.620  17.306 -1.8547  0.0413  1.1127
 7071TIP3   OH242703   0.779   2.225  10.362 -0.1276  0.6626 -0.0085
 7071TIP3    H142704   0.832   2.272  10.426  2.1235  0.1130 -1.3898
 7071TIP3    H242705   0.749   2.293  10.302 -0.7291  0.9304  0.5877
 7072TIP3   OH242706   4.343   5.937   1.257 -0.2440  0.1887 -0.2060
 7072TIP3    H142707   4.295   6.007   1.301 -0.5921  0.8260 -1.5900
 7072TIP3    H242708   4.339   5.863   1.318  0.4963  1.4941  1.4502
 7073TIP3   OH242709   0.643   0.137   5.052 -0.4444 -0.1892  0.1083
 7073TIP3    H142710   0.626   0.113   5.143 -0.0850 -5.1075 -0.9498
 7073TIP3    H242711   0.737   0.125   5.041 -0.2316  1.8759 -0.5788
 7074TIP3   OH242712   2.776   3.099  14.118  0.1162 -0.3105  0.5724
 7074TIP3    H142713   2.840   3.029  14.107  2.0896  0.9472  3.2493
 7074TIP3    H242714   2.809   3.150  14.192 -1.4226  3.2339 -1.0180
 7075TIP3   OH242715   0.261   1.015   6.622 -0.4288 -0.2586  0.1446
 7075TIP3    H142716   0.233   0.967   6.544 -1.4667 -0.8056  0.8551
 7075TIP3    H242717   0.356   1.001   6.625 -0.3517 -0.1196 -1.0898
 7076TIP3   OH242718   4.083   0.891  12.335  0.5516  0.2521 -0.3560
 7076TIP3    H142719   3.994   0.926  12.344  0.9391  1.2297 -0.2373
 7076TIP3    H242720   4.098   0.841  12.415 -0.3716 -1.0164 -0.9645
 7077TIP3   OH242721   5.253   1.887  10.573  0.4660 -0.2360  0.1435
 7077TIP3    H142722   5.158   1.891  10.564  0.5135  1.2804  0.2500
 7077TIP3    H242723   5.273   1.793  10.578 -1.0737 -0.5406  0.6750
 7078TIP3   OH242724   0.660   5.677  13.825  0.0049 -0.1934  0.0373
 7078TIP3    H142725   0.606   5.753  13.847 -1.8634 -1.1611 -1.0515
 7078TIP3    H242726   0.745   5.714  13.803 -1.0840  1.6949 -1.2209
 7079TIP3   OH242727   3.611   4.760   5.759  0.1491 -0.3800  0.2803
 7079TIP3    H142728   3.532   4.737   5.807 -0.1904 -0.0040 -0.1030
 7079TIP3    H242729   3.594   4.846   5.722  1.3546  0.4208  1.5380
 7080TIP3   OH242730   5.743   1.955  15.634  0.7606 -0.3875 -0.8502
 7080TIP3    H142731   5.720   1.872  15.675 -0.5328  0.9700  1.2224
 7080TIP3    H242732   5.820   1.935  15.580 -0.3154 -3.1866 -1.3966
 7081TIP3   OH242733   6.487   4.984   1.344  0.7285 -0.2267 -0.5563
 7081TIP3    H142734   6.500   5.068   1.299  0.3805 -0.5816 -1.3242
 7081TIP3    H242735   6.428   5.005   1.417  2.6587  0.6890  0.7796
 7082TIP3   OH242736   2.609   0.369  13.348  0.6916  0.3153  0.0371
 7082TIP3    H142737   2.679   0.434  13.359  1.2777 -0.1498 -0.8943
 7082TIP3    H242738   2.530   0.414  13.380  1.2431  1.1632  0.2455
 7083TIP3   OH242739   6.793   5.268  13.247  0.5589  0.2818 -0.9420
 7083TIP3    H142740   6.880   5.245  13.278  0.2454  2.1206  1.4198
 7083TIP3    H242741   6.807   5.338  13.183  0.8195  0.3157 -0.8448
 7084TIP3   OH242742   1.473   3.782   1.394 -0.6856 -0.2119  0.4256
 7084TIP3    H142743   1.562   3.814   1.412  0.0348 -1.4095 -0.9451
 7084TIP3    H242744   1.453   3.815   1.306 -2.5735  2.1056  1.6609
 7085TIP3   OH242745   1.163   3.550   3.241 -0.5491  0.0347 -0.7567
 7085TIP3    H142746   1.149   3.584   3.330 -0.4575 -0.3653 -0.5881
 7085TIP3    H242747   1.087   3.495   3.224 -0.7236  0.3638 -1.0518
 7086TIP3   OH242748   2.804   4.442  14.545 -0.3356 -0.3119 -0.2027
 7086TIP3    H142749   2.771   4.512  14.601 -0.2776  1.0934 -1.8652
 7086TIP3    H242750   2.894   4.429  14.573 -0.0588  0.9359 -0.4611
 7087TIP3   OH242751   1.997   4.215   0.236 -0.5724 -0.3173  0.8591
 7087TIP3    H142752   2.043   4.186   0.157 -3.7756  0.1398 -1.2948
 7087TIP3    H242753   1.958   4.135   0.271 -1.9259 -0.0480  0.0246
 7088TIP3   OH242754   2.234   5.024  12.760  0.1079  0.1387 -0.2402
 7088TIP3    H142755   2.139   5.012  12.754  0.2717 -1.1813 -0.3264
 7088TIP3    H242756   2.246   5.084  12.834 -0.6623 -1.7120  1.4251
 7089TIP3   OH242757   3.762   4.788   5.018  0.3636  0.6186  0.0987
 7089TIP3    H142758   3.750   4.783   5.113 -0.2996  0.7044  0.0233
 7089TIP3    H242759   3.856   4.804   5.006  0.4817  0.4062  0.7312
 7090TIP3   OH242760   3.097   2.562  13.707  0.1296 -0.0449  0.2053
 7090TIP3    H142761   3.074   2.535  13.618  0.2258 -1.7381  0.6841
 7090TIP3    H242762   3.013   2.586  13.747  0.0047  0.0678 -0.1191
 7091TIP3   OH242763   4.530   0.356  11.075 -0.0416  0.4644  0.1581
 7091TIP3    H142764   4.555   0.317  10.991 -2.9579  0.9990 -1.0537
 7091TIP3    H242765   4.588   0.431  11.084  0.6141  0.1486 -1.1914
 7092TIP3   OH242766   1.425   1.760   1.661 -0.2000  0.4697 -0.3565
 7092TIP3    H142767   1.376   1.687   1.624 -0.5838  0.2833  0.5023
 7092TIP3    H242768   1.516   1.743   1.636 -0.2298 -0.5086  0.1733
 7093TIP3   OH242769   5.663   1.145  15.582 -0.2211 -0.0979 -0.0447
 7093TIP3    H142770   5.707   1.221  15.620  0.3625 -0.6370  0.3724
 7093TIP3    H242771   5.673   1.076  15.648 -0.9346 -0.4760 -0.3239
 7094TIP3   OH242772   1.225   6.648  16.875  0.0689 -0.5159 -0.2026
 7094TIP3    H142773   1.144   6.636  16.825 -0.7901 -2.2516  1.5425
 7094TIP3    H242774   1.261   6.560  16.882  0.8274 -0.1041  1.1299
 7095TIP3   OH242775   1.156   5.045  14.626  0.2525  0.1190  0.5617
 7095TIP3    H142776   1.171   4.959  14.586 -1.4472 -0.0789  0.3064
 7095TIP3    H242777   1.062   5.058  14.619  0.1385  0.8461  2.9797
 7096TIP3   OH242778   3.604   5.213  11.242  0.1793 -0.4170  0.7463
 7096TIP3    H142779   3.658   5.174  11.311  1.0053 -0.0523  0.3249
 7096TIP3    H242780   3.520   5.230  11.283  1.0495  0.9277  1.9998
 7097TIP3   OH242781   3.391   3.503   6.454 -0.0701 -0.4276 -0.1656
 7097TIP3    H142782   3.398   3.491   6.359  2.1477  1.1210 -0.2350
 7097TIP3    H242783   3.298   3.488   6.473 -1.3728  3.1823 -3.1610
 7098TIP3   OH242784   3.482   1.241   5.101 -0.5106 -0.4795  0.1231
 7098TIP3    H142785   3.391   1.269   5.093 -0.0124  0.8489 -1.0845
 7098TIP3    H242786   3.518   1.293   5.173 -0.6383 -0.8643  0.4701
 7099TIP3   OH242787   5.133   1.978  12.423  0.0885 -0.4088  0.2937
 7099TIP3    H142788   5.097   2.034  12.492  0.9872 -0.4035  0.7680
 7099TIP3    H242789   5.135   1.891  12.463  0.6734 -0.3942  0.2955
 7100TIP3   OH242790   5.236   2.532  15.678 -0.1125  0.4345 -0.0899
 7100TIP3    H142791   5.256   2.449  15.635 -1.3084 -0.3737  0.8809
 7100TIP3    H242792   5.322   2.573  15.691  0.4110 -0.1550 -1.5277
 7101TIP3   OH242793   1.849   0.755   2.216 -0.3430  0.3552 -0.6839
 7101TIP3    H142794   1.811   0.711   2.292  0.8976  0.9346  0.2835
 7101TIP3    H242795   1.873   0.683   2.157 -1.6697 -0.0779 -0.7181
 7102TIP3   OH242796   1.635   2.380  11.011 -0.6202  0.4172 -0.5446
 7102TIP3    H142797   1.725   2.353  10.996 -0.5172  1.2382 -1.4110
 7102TIP3    H242798   1.608   2.423  10.930 -0.5353  3.6018  1.0173
 7103TIP3   OH242799   2.464   1.061   3.647  0.4158 -0.6889 -0.4995
 7103TIP3    H142800   2.400   1.103   3.704  1.2615 -0.4610  0.2941
 7103TIP3    H242801   2.547   1.067   3.696  1.5744  1.3521 -2.6379
 7104TIP3   OH242802   2.619   1.554  14.719  0.3883 -0.2060 -0.1815
 7104TIP3    H142803   2.628   1.601  14.636  0.0641 -1.2260 -0.7940
 7104TIP3    H242804   2.562   1.480  14.699  1.3373 -1.1686  0.6546
 7105TIP3   OH242805   4.639   5.187  13.218 -0.4112  0.2533  0.0480
 7105TIP3    H142806   4.580   5.156  13.287 -1.3329  4.2369  1.1670
 7105TIP3    H242807   4.726   5.162  13.250 -1.1380 -2.0131  0.3771
 7106TIP3   OH242808   1.270   5.450   5.290 -0.2165 -0.0255 -0.4617
 7106TIP3    H142809   1.339   5.395   5.253 -0.3473 -0.1610 -0.5038
 7106TIP3    H242810   1.191   5.397   5.283 -0.3555  0.1967 -0.5708
 7107TIP3   OH242811   1.037   4.202   2.517  0.3772  0.2894  0.0854
 7107TIP3    H142812   0.983   4.268   2.562 -1.4819 -1.8027  1.0179
 7107TIP3    H242813   0.979   4.127   2.508  2.3921 -1.1353 -1.2067
 7108TIP3   OH242814   3.186   3.668  13.851  0.1800  0.4357 -0.2086
 7108TIP3    H142815   3.097   3.685  13.882  0.9850  2.2979  1.1854
 7108TIP3    H242816   3.185   3.693  13.758 -1.0203 -0.6514 -0.4980
 7109TIP3   OH242817   5.817   6.547  13.585 -0.4027  0.3661  0.0389
 7109TIP3    H142818   5.721   6.544  13.582 -0.3348 -1.0949 -1.1772
 7109TIP3    H242819   5.836   6.623  13.640 -2.2569  0.1259  1.0832
 7110TIP3   OH242820   4.118   2.068   0.235 -0.7705 -0.4981  0.3637
 7110TIP3    H142821   4.128   2.002   0.166 -2.3613 -0.9926  0.5869
 7110TIP3    H242822   4.100   2.149   0.189 -0.3942 -0.5367  0.1459
 7111TIP3   OH242823   1.906   5.935   4.049  0.2339 -0.0873 -0.1393
 7111TIP3    H142824   1.974   5.894   4.103  0.4932 -1.3890 -1.4177
 7111TIP3    H242825   1.859   5.992   4.110  1.4469 -0.3881  1.1276
 7112TIP3   OH242826   0.527   2.814   3.801 -0.8577  0.2770 -0.3750
 7112TIP3    H142827   0.610   2.822   3.754 -1.1722 -0.3836 -1.0498
 7112TIP3    H242828   0.553   2.791   3.891 -0.3114 -0.0390 -0.6117
 7113TIP3   OH242829   2.121   5.620  14.401  0.0703 -0.1206  0.3894
 7113TIP3    H142830   2.103   5.542  14.453  0.6936  0.4959  1.5448
 7113TIP3    H242831   2.205   5.602  14.359 -0.0989 -0.3351  0.1427
 7114TIP3   OH242832   5.054   0.880   3.641 -0.1076  0.2341 -0.7315
 7114TIP3    H142833   5.146   0.859   3.630 -0.2759  0.0652 -1.8737
 7114TIP3    H242834   5.043   0.966   3.599 -0.2246  0.8169  0.4677
 7115TIP3   OH242835   6.600   5.035  13.736  0.3481 -0.2627  0.8001
 7115TIP3    H142836   6.608   5.122  13.777  0.3848  0.8501 -1.4932
 7115TIP3    H242837   6.505   5.019  13.734  0.1218  1.2170 -1.7363
 7116TIP3   OH242838   3.374   2.137   2.962 -0.1588  0.1354 -0.5283
 7116TIP3    H142839   3.427   2.058   2.967 -1.7553 -0.9157  0.2182
 7116TIP3    H242840   3.434   2.208   2.984  1.0203 -0.9828 -0.1148
 7117TIP3   OH242841   0.833   4.205   6.255  0.3285 -0.3692 -0.6815
 7117TIP3    H142842   0.740   4.188   6.237  0.7844 -0.2234 -3.3399
 7117TIP3    H242843   0.837   4.301   6.265  0.1146 -0.4225 -0.0650
 7118TIP3   OH242844   4.540   5.700   4.378 -0.4371 -0.4837  0.2724
 7118TIP3    H142845   4.492   5.623   4.408 -0.1869 -1.1528 -1.0145
 7118TIP3    H242846   4.512   5.712   4.287  1.0759 -0.2911 -0.1791
 7119TIP3   OH242847   0.085   6.386   1.568  0.1933 -0.1185  0.3470
 7119TIP3    H142848   0.054   6.462   1.520 -0.6706  1.1106  2.7325
 7119TIP3    H242849   0.171   6.412   1.603 -0.8005  0.3939  2.4905
 7120TIP3   OH242850   0.910   6.231  14.225  0.2699 -0.3212 -0.7302
 7120TIP3    H142851   0.869   6.199  14.145 -0.5996  1.0472 -0.8453
 7120TIP3    H242852   0.920   6.325  14.211  2.1857 -0.4123 -0.1390
 7121TIP3   OH242853   2.693   1.962   0.537  0.2322 -0.0894 -0.3558
 7121TIP3    H142854   2.622   1.991   0.595  0.6611  1.1117 -0.4221
 7121TIP3    H242855   2.654   1.958   0.450 -0.3343 -1.6042 -0.0524
 7122TIP3   OH242856   6.625   0.794  16.787 -0.7393  0.0999 -0.2508
 7122TIP3    H142857   6.601   0.704  16.806  1.3788 -0.2382  0.9891
 7122TIP3    H242858   6.553   0.846  16.824 -2.3011 -1.0870 -1.5921
 7123TIP3   OH242859   1.622   1.340   4.378 -0.2421  0.5192  0.1702
 7123TIP3    H142860   1.610   1.301   4.464  0.7913  0.2220  0.1854
 7123TIP3    H242861   1.633   1.433   4.394  0.0833  0.4455  0.3737
 7124TIP3   OH242862   5.191   0.166   3.934 -0.3103  0.2132  0.2758
 7124TIP3    H142863   5.240   0.110   3.994 -2.3961  1.0555  2.8706
 7124TIP3    H242864   5.258   0.218   3.889  1.2814 -0.2039  2.1065
 7125TIP3   OH242865   1.233   2.282   1.467  0.5076 -0.6268 -0.0890
 7125TIP3    H142866   1.192   2.309   1.550  2.4174  0.0967  0.6461
 7125TIP3    H242867   1.325   2.304   1.478  0.5199  0.9756 -3.0592
 7126TIP3   OH242868   4.954   1.092   0.398 -0.0491 -0.2810 -0.1633
 7126TIP3    H142869   5.042   1.055   0.388 -0.8937 -1.9282 -1.6746
 7126TIP3    H242870   4.910   1.073   0.316 -2.0169  0.0802  0.7703
 7127TIP3   OH242871   4.672   5.927  11.398  0.2023 -0.0875  0.0126
 7127TIP3    H142872   4.666   5.837  11.430  0.3205  0.1610  0.7543
 7127TIP3    H242873   4.717   5.920  11.314  0.9662 -0.6386  0.4593
 7128TIP3   OH242874   4.344   2.327  14.593  0.3850 -0.0090 -0.7897
 7128TIP3    H142875   4.436   2.311  14.574  0.4267 -0.1936 -0.4495
 7128TIP3    H242876   4.305   2.348  14.509  0.1876 -2.5657 -1.3840
 7129TIP3   OH242877   5.093   4.528   4.755 -0.5038  0.1404 -0.3571
 7129TIP3    H142878   5.094   4.464   4.683  1.4294 -2.2992  1.7572
 7129TIP3    H242879   5.036   4.489   4.821  1.9958 -0.2829  1.6431
 7130TIP3   OH242880   3.014   5.087  10.609 -0.0017 -0.2946 -0.3190
 7130TIP3    H142881   3.106   5.067  10.597  0.1341  0.1840 -0.0992
 7130TIP3    H242882   2.982   5.105  10.520  0.3467  0.4966 -0.2885
 7131TIP3   OH242883   6.441   1.489  14.837 -0.2607 -0.4591  0.4452
 7131TIP3    H142884   6.511   1.477  14.902  0.3257  2.0019  0.2996
 7131TIP3    H242885   6.393   1.565  14.868 -1.6016 -0.8779 -0.6028
 7132TIP3   OH242886   0.468   2.590  11.046 -0.1529 -0.8338  0.0754
 7132TIP3    H142887   0.522   2.517  11.076 -2.0497 -1.1452  2.9893
 7132TIP3    H242888   0.489   2.661  11.106 -0.8050 -0.0245 -0.6457
 7133TIP3   OH242889   1.962   1.203  11.234 -0.1885 -0.4189  0.2595
 7133TIP3    H142890   1.886   1.251  11.267  1.7160  2.5323  0.5029
 7133TIP3    H242891   1.941   1.186  11.142 -0.6439  1.4615 -0.0058
 7134TIP3   OH242892   6.224   6.116  11.262  0.0940  0.6061 -0.0178
 7134TIP3    H142893   6.191   6.084  11.346 -0.9121  1.0727 -0.2287
 7134TIP3    H242894   6.171   6.071  11.196 -0.4015  1.6670 -0.3501
 7135TIP3   OH242895   3.818   2.455  11.602  0.6539  0.0083  0.2828
 7135TIP3    H142896   3.808   2.538  11.557 -3.2217 -0.9527 -0.7878
 7135TIP3    H242897   3.868   2.400  11.540  2.0868  1.0978  0.4578
 7136TIP3   OH242898   4.745   1.293  13.656 -0.6209 -0.7088  0.0591
 7136TIP3    H142899   4.735   1.226  13.724 -0.4104 -2.1595 -1.2943
 7136TIP3    H242900   4.655   1.322  13.639 -0.8332 -1.4195 -0.0828
 7137TIP3   OH242901   0.040   0.481  15.167  0.2398  0.3548  0.3111
 7137TIP3    H142902  -0.039   0.462  15.217  1.2904 -1.0751  1.5037
 7137TIP3    H242903   0.110   0.482  15.232  1.2649  1.1938 -0.7738
 7138TIP3   OH242904   6.611   5.412   4.406 -0.2884  0.5914  0.2852
 7138TIP3    H142905   6.671   5.456   4.346  0.4296 -0.3036  0.3361
 7138TIP3    H242906   6.631   5.319   4.397 -0.9773  0.3579  1.0472
 7139TIP3   OH242907   1.237   0.127  16.443 -0.5712 -0.3528 -0.2247
 7139TIP3    H142908   1.173   0.139  16.373  0.0319  0.4074 -0.6580
 7139TIP3    H242909   1.184   0.118  16.523 -1.1870  2.2791 -0.2929
 7140TIP3   OH242910   2.021   2.039  13.619  0.0518  0.6791  0.7205
 7140TIP3    H142911   1.945   2.097  13.627 -0.1123  0.6251 -0.4445
 7140TIP3    H242912   1.985   1.954  13.595  0.4716  0.6118  0.3243
 7141TIP3   OH242913   5.455   1.451  11.941 -0.1519  0.3320  0.3622
 7141TIP3    H142914   5.422   1.537  11.967 -0.9317 -0.2281  1.2608
 7141TIP3    H242915   5.525   1.432  12.004 -0.3320  0.0741  0.4825
 7142TIP3   OH242916   5.243   6.706  13.523  0.0020 -0.2993 -0.5679
 7142TIP3    H142917   5.318   6.710  13.583  0.6930  1.2018 -1.5072
 7142TIP3    H242918   5.261   6.631  13.466  0.1854 -0.6712 -0.0248
 7143TIP3   OH242919   0.056   5.581  14.791 -0.0229 -0.4718  0.3547
 7143TIP3    H142920   0.007   5.659  14.817  0.2285 -0.3231  0.3925
 7143TIP3    H242921   0.024   5.512  14.848 -0.8790 -0.5972 -0.2778
 7144TIP3   OH242922   5.511   0.885  16.316  0.8096  0.0115 -0.4191
 7144TIP3    H142923   5.522   0.822  16.245  0.3874  1.3111 -1.6562
 7144TIP3    H242924   5.589   0.940  16.312  2.3659 -1.9091  2.2080
 7145TIP3   OH242925   1.776   5.542  14.659 -0.0102 -0.2016 -0.6719
 7145TIP3    H142926   1.730   5.527  14.741  0.5597 -0.9064 -0.4740
 7145TIP3    H242927   1.773   5.637  14.646  1.8251  0.1716  1.3151
 7146TIP3   OH242928   3.200   2.836   2.155  0.1074  0.0717 -0.3812
 7146TIP3    H142929   3.155   2.918   2.133  0.4741  0.8664  1.7035
 7146TIP3    H242930   3.140   2.792   2.216  1.2736  0.2227  0.8816
 7147TIP3   OH242931   1.832   6.053   4.663  0.0440  0.2045  0.3816
 7147TIP3    H142932   1.763   6.111   4.631 -0.7816 -1.4092 -0.8160
 7147TIP3    H242933   1.899   6.055   4.595  1.3839  2.0526  1.7081
 7148TIP3   OH242934   2.225   5.208   6.512  0.2891 -0.1230 -0.0741
 7148TIP3    H142935   2.313   5.222   6.477 -0.0140  1.1969 -0.3466
 7148TIP3    H242936   2.171   5.276   6.469 -0.9847 -1.3125 -0.3947
 7149TIP3   OH242937   6.072   2.423   2.660  0.4780  0.4951  0.4276
 7149TIP3    H142938   6.130   2.491   2.625 -1.7184  2.0697 -0.2455
 7149TIP3    H242939   5.989   2.436   2.614 -1.1030 -0.2997  2.9408
 7150TIP3   OH242940   6.104   3.976   2.563  0.2359 -0.1741 -0.4875
 7150TIP3    H142941   6.063   3.896   2.595  1.9655 -1.2818 -0.9629
 7150TIP3    H242942   6.189   3.978   2.607  0.9779  0.3994 -1.9235
 7151TIP3   OH242943   2.294   0.189  11.836  0.1775  0.0664  0.1760
 7151TIP3    H142944   2.240   0.158  11.764 -1.2778  3.0836 -0.1343
 7151TIP3    H242945   2.253   0.154  11.915  0.1834 -1.0024 -0.2874
 7152TIP3   OH242946   5.671   3.214  16.650 -0.0347 -0.0928  0.4785
 7152TIP3    H142947   5.683   3.129  16.692  1.0993  1.3164  3.1739
 7152TIP3    H242948   5.667   3.276  16.723 -1.2043  2.1430 -1.4053
 7153TIP3   OH242949   4.292   4.631   2.430 -0.5168 -0.3809  0.1677
 7153TIP3    H142950   4.275   4.724   2.417 -0.3491 -0.0839  1.9844
 7153TIP3    H242951   4.375   4.615   2.385  0.0467  0.6008  0.8453
 7154TIP3   OH242952   3.734   0.045   3.918  0.2818  0.0636  0.1138
 7154TIP3    H142953   3.718   0.009   3.830  0.7939  3.5441 -1.4696
 7154TIP3    H242954   3.829   0.040   3.929  0.3216  0.5929  0.0238
 7155TIP3   OH242955   1.251   0.035   0.777  0.0316 -0.0132 -0.2924
 7155TIP3    H142956   1.295   0.071   0.854  1.0342  0.0703 -0.8920
 7155TIP3    H242957   1.277  -0.057   0.775 -0.5134 -0.1730 -0.1734
 7156TIP3   OH242958   0.083   4.168  10.715 -0.2387  0.0579  0.5660
 7156TIP3    H142959   0.074   4.073  10.704 -1.7395  0.3353 -0.8237
 7156TIP3    H242960   0.145   4.194  10.647 -0.9162  0.2511  0.0147
 7157TIP3   OH242961   1.545   1.165  12.344  0.0996 -0.0322 -0.6853
 7157TIP3    H142962   1.552   1.075  12.375  0.9526  0.7973  1.6071
 7157TIP3    H242963   1.466   1.199  12.386  0.0087  0.4300 -1.2167
 7158TIP3   OH242964   2.302   1.435   3.698 -0.0331  0.5694  0.0889
 7158TIP3    H142965   2.306   1.403   3.788  0.3866  0.3187 -0.0213
 7158TIP3    H242966   2.208   1.437   3.678 -0.1037  0.1717  0.3679
 7159TIP3   OH242967   2.066   1.049   2.558 -0.0745  0.1020  0.1488
 7159TIP3    H142968   2.069   0.989   2.483  0.1487 -0.5132  0.6491
 7159TIP3    H242969   2.120   1.007   2.625  1.2197  1.5310  0.0219
 7160TIP3   OH242970   0.566   1.340  11.711  0.1164 -0.4734  0.3371
 7160TIP3    H142971   0.656   1.309  11.706  1.4748  3.5094 -1.6217
 7160TIP3    H242972   0.530   1.325  11.623 -1.5486 -2.9825  1.3780
 7161TIP3   OH242973   6.532   1.806  15.916 -0.4549 -0.0481  0.3034
 7161TIP3    H142974   6.607   1.856  15.948 -0.7503  0.5484  0.0736
 7161TIP3    H242975   6.566   1.717  15.904 -0.7202 -0.6497  3.6982
 7162TIP3   OH242976   5.667   1.111   1.356 -0.9453 -0.2167 -0.4095
 7162TIP3    H142977   5.687   1.205   1.356 -1.3876 -0.0989  1.1905
 7162TIP3    H242978   5.701   1.079   1.273  1.4777  0.9029  0.0942
 7163TIP3   OH242979   1.720   2.302   1.315 -0.1017  0.5464  0.1626
 7163TIP3    H142980   1.652   2.354   1.359 -1.7567 -1.5206  0.1279
 7163TIP3    H242981   1.781   2.279   1.385 -2.1441 -1.8039  1.2547
 7164TIP3   OH242982   6.628   0.025   6.356  0.1973  0.2083 -0.0117
 7164TIP3    H142983   6.626  -0.064   6.321 -0.7923  0.5865 -0.9462
 7164TIP3    H242984   6.537   0.043   6.381  0.3596  1.0043  0.0281
 7165TIP3   OH242985   3.936   2.219   4.680  0.2915 -0.4343 -0.1348
 7165TIP3    H142986   3.941   2.228   4.775 -0.1682 -0.8070 -0.0781
 7165TIP3    H242987   3.990   2.291   4.647 -0.4166  0.3468  0.3928
 7166TIP3   OH242988   4.329   3.639  11.315  0.3998 -0.1396 -0.2935
 7166TIP3    H142989   4.417   3.637  11.351  0.5218 -0.3032 -0.5981
 7166TIP3    H242990   4.332   3.707  11.247 -0.0284  0.7008  0.5130
 7167TIP3   OH242991   4.609   2.986  11.918  0.0022 -0.1714 -0.3147
 7167TIP3    H142992   4.699   3.014  11.902 -0.2121  1.6609  1.4914
 7167TIP3    H242993   4.581   3.037  11.994 -1.6693 -2.6873  0.8117
 7168TIP3   OH242994   4.614   3.584  17.242  0.0241 -0.3184  0.1791
 7168TIP3    H142995   4.550   3.590  17.312  0.8719 -0.3522  0.9619
 7168TIP3    H242996   4.688   3.637  17.272  0.3139 -0.1786 -0.7660
 7169TIP3   OH242997   4.814   5.074   0.285  0.1201 -0.4183 -0.1885
 7169TIP3    H142998   4.722   5.092   0.267 -0.7014  1.0927  4.7174
 7169TIP3    H242999   4.857   5.159   0.275  0.6593 -0.7494 -0.7078
 7170TIP3   OH243000   0.511   6.775  12.578  0.5512  0.0805 -0.5396
 7170TIP3    H143001   0.554   6.723  12.646  1.7842  1.7976  0.0333
 7170TIP3    H243002   0.433   6.811  12.620  0.9813  0.6377 -0.2127
 7171TIP3   OH243003   5.403   3.911   6.328 -0.2299 -0.3201 -0.0593
 7171TIP3    H143004   5.471   3.978   6.319  0.9043 -1.3909  0.2536
 7171TIP3    H243005   5.345   3.945   6.396  0.4139  0.2886  0.1985
 7172TIP3   OH243006   4.246   0.562  14.662  0.1215  0.4901  0.4549
 7172TIP3    H143007   4.228   0.496  14.595 -1.1951 -0.2347  1.5079
 7172TIP3    H243008   4.337   0.588  14.645  0.4287 -1.0507 -0.4421
 7173TIP3   OH243009   5.855   6.362   2.509  0.3094  0.5705  0.3420
 7173TIP3    H143010   5.819   6.276   2.530  2.7434 -0.6807 -0.2935
 7173TIP3    H243011   5.781   6.422   2.512 -1.8207 -1.8946 -1.1313
 7174TIP3   OH243012   1.429   6.711  16.634  0.0952  0.1499 -0.2521
 7174TIP3    H143013   1.352   6.721  16.689  0.0354  2.0041 -0.6448
 7174TIP3    H243014   1.420   6.624  16.595 -1.8482  0.3814 -0.3529
 7175TIP3   OH243015   1.146   3.280  10.519  0.3359  0.0098  0.3394
 7175TIP3    H143016   1.056   3.248  10.521  0.4914 -0.5784 -1.3257
 7175TIP3    H243017   1.149   3.348  10.586 -0.5086 -2.1274  2.6180
 7176TIP3   OH243018   4.144   2.673  12.045  0.8201 -0.4708 -0.3464
 7176TIP3    H143019   4.192   2.755  12.038  1.7014 -0.9672 -0.1922
 7176TIP3    H243020   4.113   2.655  11.957 -0.5200  0.7037 -0.1319
 7177TIP3   OH243021   0.669   4.431  12.423  0.0630  0.1970  0.1042
 7177TIP3    H143022   0.742   4.407  12.480 -0.5778 -0.2482  0.7524
 7177TIP3    H243023   0.684   4.380  12.343  0.7239  0.4868  0.0371
 7178TIP3   OH243024   0.358   0.302  11.252  0.4353 -0.3723 -0.2139
 7178TIP3    H143025   0.362   0.380  11.196  0.9035  0.1798  0.5698
 7178TIP3    H243026   0.325   0.233  11.195 -1.1366  0.6717 -0.6084
 7179TIP3   OH243027   5.122   5.835   3.851  0.2995 -0.5719 -0.0290
 7179TIP3    H143028   5.065   5.771   3.894 -1.8469  1.1033 -0.3486
 7179TIP3    H243029   5.127   5.908   3.913  2.6048 -0.9228  0.2511
 7180TIP3   OH243030   2.618   3.665  15.588  0.6057 -0.1006  0.0803
 7180TIP3    H143031   2.588   3.744  15.632 -0.6073  1.0298 -2.6331
 7180TIP3    H243032   2.561   3.595  15.621 -1.0854  0.9467 -0.5537
 7181TIP3   OH243033   6.009   1.839  15.961  0.0298  0.5592  0.3381
 7181TIP3    H143034   6.063   1.897  16.015  1.1072 -0.2357  0.1238
 7181TIP3    H243035   6.055   1.834  15.877 -1.5377  1.6365 -0.6063
 7182TIP3   OH243036   1.094   1.805   5.616 -0.0726 -0.0968  0.0377
 7182TIP3    H143037   1.161   1.873   5.609  1.2643 -1.3624  0.0974
 7182TIP3    H243038   1.013   1.848   5.590  0.9108  1.2576 -0.8604
 7183TIP3   OH243039   1.407   2.695  14.476  0.0547 -0.3947  0.3610
 7183TIP3    H143040   1.433   2.617  14.526 -1.1915 -0.9104  0.2003
 7183TIP3    H243041   1.374   2.661  14.393  1.5775  0.4341 -0.6254
 7184TIP3   OH243042   0.805   6.562   1.389  0.3516  0.5052  0.7987
 7184TIP3    H143043   0.855   6.498   1.340  1.0086  1.0448  0.7463
 7184TIP3    H243044   0.828   6.646   1.350  1.3138  0.9973  2.3777
 7185TIP3   OH243045   4.315   1.089  13.031  0.1519  0.1064  0.1439
 7185TIP3    H143046   4.290   1.178  13.054 -1.1542 -0.0730 -0.5655
 7185TIP3    H243047   4.341   1.094  12.939 -0.9100 -0.4447 -0.1886
 7186TIP3   OH243048   4.507   0.851   0.459 -0.3981 -0.4656 -0.5275
 7186TIP3    H143049   4.568   0.807   0.399 -1.4267 -1.5317 -0.7984
 7186TIP3    H243050   4.557   0.864   0.539  0.9024  0.6889 -1.4870
 7187TIP3   OH243051   3.248   3.394  13.895  0.4318  0.4398  0.0614
 7187TIP3    H143052   3.204   3.479  13.898 -1.0160 -0.3275  2.2028
 7187TIP3    H243053   3.297   3.389  13.977  3.0792  0.4880 -1.4749
 7188TIP3   OH243054   1.470   4.859   4.431 -0.0269  0.4859  0.0811
 7188TIP3    H143055   1.559   4.835   4.402  0.1774  1.2403  0.0812
 7188TIP3    H243056   1.473   4.852   4.526  0.3086  1.4439  0.1444
 7189TIP3   OH243057   4.265   0.026  15.424 -0.1048  0.1402 -0.0001
 7189TIP3    H143058   4.312  -0.030  15.485 -1.4970 -1.1466 -0.0783
 7189TIP3    H243059   4.194  -0.029  15.390 -0.9999  1.6880 -0.7061
 7190TIP3   OH243060   3.017   4.000   3.496 -0.5240 -0.1568 -0.1542
 7190TIP3    H143061   2.926   4.021   3.472 -0.6492  0.8072  1.0932
 7190TIP3    H243062   3.068   4.075   3.466 -0.1412 -0.6730 -0.8047
 7191TIP3   OH243063   0.767   4.620  15.869 -0.0003  0.5037 -0.5158
 7191TIP3    H143064   0.775   4.537  15.916 -1.7446 -1.2374 -3.2041
 7191TIP3    H243065   0.853   4.662  15.881  1.9697 -3.0111 -1.5640
 7192TIP3   OH243066   5.763   3.094  14.272  0.3039 -0.1163 -0.2604
 7192TIP3    H143067   5.725   3.165  14.221 -1.5503 -0.8993 -0.0382
 7192TIP3    H243068   5.779   3.024  14.209 -1.6602 -0.9554  0.1351
 7193TIP3   OH243069   0.041   2.400   6.188 -0.2690  0.1150 -0.2927
 7193TIP3    H143070  -0.008   2.471   6.229 -0.3901  0.5633 -1.1977
 7193TIP3    H243071  -0.010   2.377   6.110  0.6936  0.2507 -0.9733
 7194TIP3   OH243072   3.246   1.921  13.439 -0.3882  0.1592  0.1130
 7194TIP3    H143073   3.304   1.995  13.455 -0.2239 -0.1192  0.8634
 7194TIP3    H243074   3.202   1.941  13.357 -0.2159  1.0004  0.2256
 7195TIP3   OH243075   6.308   0.786   6.063 -0.1300 -0.2093  0.0617
 7195TIP3    H143076   6.305   0.771   6.158  0.9292  3.1461  0.6795
 7195TIP3    H243077   6.240   0.851   6.047  0.1555 -0.2633 -1.3715
 7196TIP3   OH243078   2.005   4.477   5.151 -0.9948 -0.3403 -0.9565
 7196TIP3    H143079   1.991   4.383   5.144 -0.0931 -0.6171  0.6144
 7196TIP3    H243080   1.944   4.516   5.088 -1.1141 -1.9864 -1.8699
 7197TIP3   OH243081   3.972   3.292  11.686 -0.2542 -0.2955  0.3130
 7197TIP3    H143082   3.921   3.324  11.612 -0.1973 -0.5898  0.1476
 7197TIP3    H243083   3.995   3.202  11.663  0.9993  0.0878  0.0507
 7198TIP3   OH243084   2.018   6.656  12.676 -0.2251 -0.1534  0.4278
 7198TIP3    H143085   1.938   6.606  12.690 -0.0770 -1.2466 -2.4130
 7198TIP3    H243086   2.080   6.593  12.639  0.3349  1.7973 -2.1086
 7199TIP3   OH243087   3.284   4.683  11.952  0.0566  0.3524  0.1949
 7199TIP3    H143088   3.323   4.618  11.894 -0.4873 -1.7131  2.1024
 7199TIP3    H243089   3.359   4.728  11.992  0.4585 -0.6321  0.5526
 7200TIP3   OH243090   0.781   5.650   1.792 -0.3639 -0.1751 -0.2082
 7200TIP3    H143091   0.787   5.575   1.733  1.3677  0.6766 -1.1382
 7200TIP3    H243092   0.857   5.641   1.850 -0.2478  0.7582 -0.2099
 7201TIP3   OH243093   5.638   6.343  11.890  0.1350  0.4983  0.3360
 7201TIP3    H143094   5.719   6.294  11.878 -0.7804 -1.6715  2.5258
 7201TIP3    H243095   5.570   6.276  11.896 -1.5930  2.1948  0.3473
 7202TIP3   OH243096   3.889   2.036  14.820  0.6199  0.1785 -0.0048
 7202TIP3    H143097   3.930   2.110  14.777  1.8250  0.5946  1.8063
 7202TIP3    H243098   3.798   2.063  14.833  0.2276  0.0446 -2.2000
 7203TIP3   OH243099   5.687   5.628  14.416 -0.0076  0.5712 -0.5777
 7203TIP3    H143100   5.659   5.713  14.451 -0.9551  0.0726 -0.1115
 7203TIP3    H243101   5.776   5.643  14.385 -0.2241  1.7807 -0.6366
 7204TIP3   OH243102   5.638   5.216  11.999 -0.0889  0.1505 -0.3549
 7204TIP3    H143103   5.702   5.205  11.929  1.3770 -1.7955  1.2211
 7204TIP3    H243104   5.553   5.210  11.956  0.7926  0.5813 -2.1708
 7205TIP3   OH243105   4.892   1.248  12.678  0.2775 -0.2035  0.1435
 7205TIP3    H143106   4.800   1.273  12.681 -0.1543 -1.6245 -0.7353
 7205TIP3    H243107   4.893   1.154  12.697  1.5825 -0.1084  0.6199
 7206TIP3   OH243108   6.048   0.226   2.411  0.7531 -0.4867 -1.0373
 7206TIP3    H143109   5.965   0.270   2.389  0.0647 -0.9003  0.6049
 7206TIP3    H243110   6.031   0.133   2.393 -0.4097 -1.0823  2.6218
 7207TIP3   OH243111   5.096   5.397  14.468  0.4921 -0.0398 -0.2150
 7207TIP3    H143112   5.149   5.398  14.389  0.7878 -0.1767 -0.0170
 7207TIP3    H243113   5.068   5.488  14.480 -1.3566 -0.3681 -1.6941
 7208TIP3   OH243114   4.815   4.000  17.238 -0.0950  0.1425  0.3194
 7208TIP3    H143115   4.879   3.998  17.166  0.6631  0.8801  0.9633
 7208TIP3    H243116   4.866   3.977  17.315 -0.7670  0.0415  0.7358
 7209TIP3   OH243117   0.015   1.388  14.276  0.0296 -0.5350  0.3310
 7209TIP3    H143118   0.031   1.302  14.314 -0.5398 -0.4267  0.8088
 7209TIP3    H243119  -0.059   1.423  14.325 -0.3880 -0.1885 -0.5335
 7210TIP3   OH243120   2.802   6.060   2.687  0.5590  0.4925 -0.3464
 7210TIP3    H143121   2.709   6.063   2.667  0.4722  0.6694  0.0975
 7210TIP3    H243122   2.825   5.967   2.678  0.2751  0.4015 -0.1327
 7211TIP3   OH243123   5.910   2.605  10.700  0.2544  0.5631 -0.5451
 7211TIP3    H143124   5.875   2.687  10.734 -0.3120  0.3988 -0.7413
 7211TIP3    H243125   5.950   2.629  10.616  1.7403  0.9873  0.2562
 7212TIP3   OH243126   6.726   2.782   2.739  0.1905  0.0378  0.2181
 7212TIP3    H143127   6.694   2.812   2.654 -0.2332  0.2509  0.4522
 7212TIP3    H243128   6.762   2.861   2.780 -0.0447  0.0311  0.4356
 7213TIP3   OH243129   3.846   2.333   2.867  0.0798 -0.3902 -0.1306
 7213TIP3    H143130   3.889   2.249   2.878  2.3378  0.9461  1.6158
 7213TIP3    H243131   3.784   2.338   2.940 -0.0946 -0.5485 -0.2665
 7214TIP3   OH243132   3.056   4.928  16.992 -0.1703  0.5337 -0.4471
 7214TIP3    H143133   3.093   4.843  17.012 -0.1892  0.6632  0.1591
 7214TIP3    H243134   3.005   4.951  17.070  0.0716  1.2260 -0.4886
 7215TIP3   OH243135   2.338   5.967  12.665 -0.7382  0.2988  0.0318
 7215TIP3    H143136   2.283   5.888  12.670 -1.7676  1.1198  2.0888
 7215TIP3    H243137   2.427   5.933  12.657 -0.8396 -1.1862  4.1191
 7216TIP3   OH243138   4.992   1.259  16.141 -0.8963 -0.0856  0.0563
 7216TIP3    H143139   5.088   1.257  16.145 -0.9106 -3.0028 -0.0146
 7216TIP3    H243140   4.968   1.331  16.200  1.3171  0.8008 -0.0422
 7217TIP3   OH243141   0.111   0.263   0.263  0.2703  0.5071 -0.2586
 7217TIP3    H143142   0.192   0.305   0.236 -0.1969  1.5022 -0.1191
 7217TIP3    H243143   0.100   0.287   0.355 -2.1094  3.5292 -1.2563
 7218TIP3   OH243144   4.004   3.678  16.174  0.7085 -0.1522  0.0087
 7218TIP3    H143145   3.941   3.720  16.116  1.0056 -1.6310 -1.4316
 7218TIP3    H243146   3.965   3.593  16.194  1.2445 -0.2009  0.8713
 7219TIP3   OH243147   1.015   4.739   5.509 -0.1208 -0.7401 -0.3239
 7219TIP3    H143148   1.055   4.821   5.480  0.8031 -0.9537  0.3062
 7219TIP3    H243149   0.930   4.737   5.465 -0.6122  1.0771  0.4650
 7220TIP3   OH243150   5.579   0.774   0.667  0.0393 -0.3318 -0.0654
 7220TIP3    H143151   5.549   0.759   0.756 -1.9116 -1.5949 -0.8979
 7220TIP3    H243152   5.581   0.687   0.627  0.1437  0.3017 -1.4705
 7221TIP3   OH243153   3.917   0.324   5.456 -0.2119  0.3266 -0.2479
 7221TIP3    H143154   3.962   0.326   5.372 -0.7420  1.1528 -0.5112
 7221TIP3    H243155   3.937   0.409   5.496  0.4446 -0.2403  0.6826
 7222TIP3   OH243156   3.326   0.752   4.671 -0.5225 -0.4814 -0.2095
 7222TIP3    H143157   3.373   0.674   4.642 -1.4427 -1.0063 -0.3099
 7222TIP3    H243158   3.249   0.756   4.615 -1.3538 -0.4487  0.9165
 7223TIP3   OH243159   0.868   4.222  11.690  0.2937  0.6552 -0.5519
 7223TIP3    H143160   0.858   4.308  11.732 -1.4773  0.6011 -0.8082
 7223TIP3    H243161   0.958   4.197  11.707  0.4354  1.9599  0.7131
 7224TIP3   OH243162   5.030   2.482   5.960 -0.4325 -0.7447  0.0524
 7224TIP3    H143163   5.102   2.460   5.901 -0.0882 -0.2933  0.2994
 7224TIP3    H243164   5.068   2.478   6.047 -0.0523  1.8707  0.0586
 7225TIP3   OH243165   0.036   2.401  13.234  0.3172 -0.0620  0.0224
 7225TIP3    H143166   0.012   2.329  13.176  0.8925 -0.8384  0.7405
 7225TIP3    H243167  -0.026   2.394  13.307  0.3631  0.1859  0.0866
 7226TIP3   OH243168   1.703   4.586   3.509 -0.4551 -0.3653 -0.5761
 7226TIP3    H143169   1.696   4.625   3.421 -0.2465 -1.0083 -0.8822
 7226TIP3    H243170   1.760   4.645   3.557 -1.7020  0.7609 -0.4361
 7227TIP3   OH243171   1.270   6.750  12.388  0.1194 -0.5931 -0.7232
 7227TIP3    H143172   1.278   6.803  12.309  2.8851  0.0645 -0.0435
 7227TIP3    H243173   1.331   6.677  12.374 -0.4444 -1.2482  0.1922
 7228TIP3   OH243174   3.728   2.883   4.201  0.2157 -0.5713  0.4593
 7228TIP3    H143175   3.804   2.828   4.187 -0.5971 -1.7687  0.6307
 7228TIP3    H243176   3.712   2.878   4.296  0.2027  0.0438  0.4919
 7229TIP3   OH243177   5.767   1.681  17.208 -1.0036  0.0315 -0.0465
 7229TIP3    H143178   5.699   1.634  17.257  0.3922 -1.1969  0.7498
 7229TIP3    H243179   5.849   1.656  17.251  0.0636  0.5292 -1.7673
 7230TIP3   OH243180   5.094   2.681  11.258 -0.5989 -0.3274 -0.0462
 7230TIP3    H143181   5.184   2.652  11.272 -0.2065  0.7404 -0.3683
 7230TIP3    H243182   5.080   2.675  11.164 -1.5154 -2.3643  0.1816
 7231TIP3   OH243183   2.015   2.642   3.496  0.8204 -0.1106  0.1150
 7231TIP3    H143184   1.958   2.639   3.573  1.6372 -0.0405  0.7388
 7231TIP3    H243185   1.971   2.589   3.430 -0.2466  0.4216  0.3906
 7232TIP3   OH243186   6.753   4.801   3.678  0.1965 -0.6169 -0.5184
 7232TIP3    H143187   6.802   4.754   3.744 -2.8001 -2.1358  0.7086
 7232TIP3    H243188   6.726   4.882   3.721 -0.2542 -0.7976 -0.4603
 7233TIP3   OH243189   5.098   2.473   1.963 -0.9354  0.3609 -0.1742
 7233TIP3    H143190   5.069   2.423   2.038 -0.9784 -0.7395 -0.9094
 7233TIP3    H243191   5.022   2.525   1.936 -1.3671 -0.3764 -0.3723
 7234TIP3   OH243192   5.125   2.082   1.415 -0.0099  0.3708  0.3552
 7234TIP3    H143193   5.203   2.088   1.361 -0.4691 -2.1299 -0.6855
 7234TIP3    H243194   5.053   2.078   1.352 -0.9095  1.8812  1.2814
 7235TIP3   OH243195   3.970   5.021   3.163 -0.2003  0.0342 -0.4625
 7235TIP3    H143196   3.985   5.073   3.242  0.8961 -1.5625  0.4298
 7235TIP3    H243197   3.963   5.085   3.092 -2.2451  1.5672  1.0521
 7236TIP3   OH243198   2.314   3.627   5.015  0.4378  0.3514 -0.0303
 7236TIP3    H143199   2.352   3.548   4.977 -0.9340 -0.1658 -0.3436
 7236TIP3    H243200   2.331   3.620   5.109  1.4404  0.3141 -0.2114
 7237TIP3   OH243201   6.784   3.312  15.798 -0.7767 -0.1062  0.3762
 7237TIP3    H143202   6.879   3.296  15.804 -0.8235 -0.0820  1.3813
 7237TIP3    H243203   6.746   3.254  15.864 -1.2346  1.6689  1.7056
 7238TIP3   OH243204   0.840   6.352   2.535 -0.5669  0.2576  0.8809
 7238TIP3    H143205   0.781   6.415   2.577 -0.6182  0.9542 -0.2127
 7238TIP3    H243206   0.794   6.268   2.543 -0.9308  0.5126  1.5196
 7239TIP3   OH243207   5.594   5.463  14.196  0.9465  0.3913  0.3195
 7239TIP3    H143208   5.608   5.374  14.166  1.2158 -0.0742  1.7797
 7239TIP3    H243209   5.651   5.472  14.273  1.6687  2.1250 -0.3875
 7240TIP3   OH243210   6.671   0.095  15.538  0.0028 -0.1758 -0.3767
 7240TIP3    H143211   6.725   0.174  15.549 -0.1265 -0.1649  0.2052
 7240TIP3    H243212   6.720   0.041  15.477  1.5443 -0.9436  1.4949
 7241TIP3   OH243213   2.509   1.719   2.554  0.5902 -0.2024 -1.2043
 7241TIP3    H143214   2.481   1.628   2.557 -3.7480  1.0293  0.2369
 7241TIP3    H243215   2.523   1.743   2.645  2.1736  0.4824 -1.6076
 7242TIP3   OH243216   4.231   1.014   5.332  0.0867  0.0686  0.1496
 7242TIP3    H143217   4.255   1.028   5.241  1.0849 -1.3394  0.1872
 7242TIP3    H243218   4.209   1.102   5.365 -1.4952  0.4169 -1.7587
 7243TIP3   OH243219   3.822   3.400   1.000 -0.5064 -0.0170 -0.6185
 7243TIP3    H143220   3.877   3.470   0.965 -1.2978  0.3582 -1.1384
 7243TIP3    H243221   3.869   3.320   0.980 -0.2201  0.2908 -1.1884
 7244TIP3   OH243222   1.769   3.267  15.109 -0.4687  0.0303  0.4348
 7244TIP3    H143223   1.768   3.192  15.169  0.2294  2.4560  3.6266
 7244TIP3    H243224   1.834   3.245  15.043  0.5408 -1.7039  1.9796
 7245TIP3   OH243225   4.576   2.624   2.916 -0.2003  0.3028  0.4815
 7245TIP3    H143226   4.544   2.711   2.939 -3.0400 -0.2195 -1.2480
 7245TIP3    H243227   4.566   2.572   2.996  1.8797  1.6089  1.6390
 7246TIP3   OH243228   4.652   4.327  13.768 -0.2356 -0.1519 -0.1385
 7246TIP3    H143229   4.722   4.352  13.707  0.8612  1.5115  1.7443
 7246TIP3    H243230   4.695   4.268  13.830 -0.7549  0.0449  0.4088
 7247TIP3   OH243231   4.229   5.438   5.084 -0.0032  0.2221  0.6376
 7247TIP3    H143232   4.247   5.488   5.005 -0.0206  0.5077  0.8107
 7247TIP3    H243233   4.280   5.358   5.075 -2.2504 -1.0830 -1.0153
 7248TIP3   OH243234   6.532   0.542   6.411 -0.1037 -0.1120  0.5655
 7248TIP3    H143235   6.469   0.477   6.381  0.3208 -1.4271  2.4606
 7248TIP3    H243236   6.591   0.494   6.470  1.4867  1.5205  0.3641
 7249TIP3   OH243237   1.867   2.216   1.527 -0.2373  0.3321  0.0266
 7249TIP3    H143238   1.887   2.159   1.602 -0.3194  1.0570  0.6078
 7249TIP3    H243239   1.951   2.258   1.507 -0.0095 -0.5221 -0.8649
 7250TIP3   OH243240   0.328   6.773  15.258 -0.3775 -0.1974 -0.4304
 7250TIP3    H143241   0.416   6.752  15.290 -0.3677 -0.7347 -0.8191
 7250TIP3    H243242   0.306   6.856  15.302  0.3184 -0.0624 -0.3340
 7251TIP3   OH243243   0.984   5.789  17.144 -0.4435  0.1800  0.5777
 7251TIP3    H143244   1.040   5.838  17.204  1.3638 -0.2270 -0.7242
 7251TIP3    H243245   0.964   5.850  17.073 -0.1805 -0.2180  0.1543
 7252TIP3   OH243246   4.757   2.661   4.001 -0.1128  0.4391 -0.3298
 7252TIP3    H143247   4.805   2.578   3.995  0.1856  0.4242  1.8676
 7252TIP3    H243248   4.817   2.726   3.966  0.4074 -0.0074 -0.2692
 7253TIP3   OH243249   3.626   5.033  13.949 -0.4482  0.6004 -0.4411
 7253TIP3    H143250   3.648   4.967  14.016  1.1667  1.1068 -0.4355
 7253TIP3    H243251   3.646   5.117  13.991 -0.2327  0.9668 -1.2667
 7254TIP3   OH243252   3.575   0.585  15.068 -0.3213  0.5340 -0.2245
 7254TIP3    H143253   3.668   0.565  15.076  0.1227  2.5435 -0.0406
 7254TIP3    H243254   3.568   0.631  14.984 -0.6049  3.2115  1.2242
 7255TIP3   OH243255   0.677   4.932   1.814  0.1403 -0.2460 -0.3087
 7255TIP3    H143256   0.651   4.846   1.780 -0.0981  0.0443 -0.8773
 7255TIP3    H243257   0.602   4.989   1.795  1.0690  0.5443 -1.7699
 7256TIP3   OH243258   2.863   3.164  12.961  0.2700  0.3530 -0.1798
 7256TIP3    H143259   2.830   3.210  13.038  0.6098  0.6128 -0.1901
 7256TIP3    H243260   2.957   3.184  12.959  0.6056 -1.1166  0.3639
 7257TIP3   OH243261   4.071   1.418   1.372 -0.5414 -0.3977 -0.1389
 7257TIP3    H143262   4.085   1.357   1.444  0.5138  0.6600  0.5723
 7257TIP3    H243263   4.156   1.423   1.328 -0.7874  0.0903 -0.5658
 7258TIP3   OH243264   4.371   1.378   1.358  0.0396  0.4959 -0.1596
 7258TIP3    H143265   4.406   1.314   1.420  0.1553  0.8245  0.1117
 7258TIP3    H243266   4.427   1.369   1.281  1.5635  1.9679  0.7644
 7259TIP3   OH243267   2.930   1.185  15.737  0.0215 -0.0196  0.4269
 7259TIP3    H143268   2.840   1.174  15.768 -0.1214 -0.0328  0.0070
 7259TIP3    H243269   2.984   1.151  15.809 -0.3490 -1.2239  0.1392
 7260TIP3   OH243270   6.395   0.374  14.741 -0.0323 -0.1390 -0.0370
 7260TIP3    H143271   6.454   0.312  14.697  2.4221  0.8021  1.8392
 7260TIP3    H243272   6.444   0.456  14.743 -0.8040  0.2950  2.8352
 7261TIP3   OH243273   4.642   6.194  15.246 -0.3538 -0.9671 -0.0281
 7261TIP3    H143274   4.563   6.233  15.282 -0.3587 -0.8071 -0.2113
 7261TIP3    H243275   4.672   6.133  15.313 -0.8874 -1.3692 -0.1556
 7262TIP3   OH243276   0.347   5.277   5.348 -0.3738 -0.5308  0.1671
 7262TIP3    H143277   0.338   5.261   5.442 -0.2619 -0.5662  0.1714
 7262TIP3    H243278   0.272   5.333   5.327 -0.6576 -0.8962  0.1904
 7263TIP3   OH243279   6.369   3.748   1.791  0.3813 -0.3465 -0.0348
 7263TIP3    H143280   6.295   3.701   1.829 -0.5383  0.5909 -0.6455
 7263TIP3    H243281   6.403   3.802   1.862  1.0888 -1.4924  0.5132
 7264TIP3   OH243282   3.650   5.927   3.355 -0.2861  0.6449 -0.1667
 7264TIP3    H143283   3.575   5.883   3.315 -1.0020  2.9991 -1.5143
 7264TIP3    H243284   3.615   5.966   3.436  0.1424 -0.5144  0.5864
 7265TIP3   OH243285   4.083   0.594  16.230 -0.0413 -0.0395  0.7970
 7265TIP3    H143286   4.157   0.602  16.170 -0.2357  0.8994  0.6758
 7265TIP3    H243287   4.104   0.652  16.303 -0.7241  0.3496  0.6905
 7266TIP3   OH243288   6.319   6.424  12.721 -0.1921 -0.0732  0.0097
 7266TIP3    H143289   6.373   6.369  12.664  1.6773  1.7068 -0.0136
 7266TIP3    H243290   6.306   6.505  12.671  1.0402  1.3136  1.8779
 7267TIP3   OH243291   2.552   0.831   2.738  0.3623 -0.6158 -0.0117
 7267TIP3    H143292   2.533   0.797   2.825 -0.4751 -2.3094 -0.8376
 7267TIP3    H243293   2.512   0.918   2.737 -1.4727 -1.4390  0.5613
 7268TIP3   OH243294   2.992   2.119   4.372  0.4110  0.0512  0.6419
 7268TIP3    H143295   3.084   2.093   4.362  0.4858  0.3634  0.5017
 7268TIP3    H243296   2.982   2.194   4.314 -0.2999 -0.8430 -0.4146
 7269TIP3   OH243297   6.651   3.838  15.573  0.3051  0.3690  0.5390
 7269TIP3    H143298   6.659   3.770  15.639 -1.5694 -0.6175 -0.2237
 7269TIP3    H243299   6.680   3.918  15.617  1.1964 -0.6646  1.8555
 7270TIP3   OH243300   1.116   5.834  11.999  0.4295 -0.7601 -0.5153
 7270TIP3    H143301   1.126   5.784  12.080  0.7185 -0.4011 -0.3288
 7270TIP3    H243302   1.182   5.797  11.941  0.9217 -0.3233 -0.2401
 7271TIP3   OH243303   1.450   6.245  15.788  0.4807  0.5167 -0.7319
 7271TIP3    H143304   1.483   6.240  15.699  3.9160 -3.0346  0.6002
 7271TIP3    H243305   1.383   6.176  15.793  1.0406  0.0038 -0.2823
 7272TIP3   OH243306   2.681   3.907  11.885 -0.6462  0.0859  0.1991
 7272TIP3    H143307   2.590   3.891  11.911 -0.6674 -0.4908 -0.2184
 7272TIP3    H243308   2.729   3.833  11.923 -0.2184  0.8374  1.1448
 7273TIP3   OH243309   3.847   4.991   1.039  0.3227 -0.6427  0.7465
 7273TIP3    H143310   3.767   4.964   1.084 -0.3249  0.6739  0.3954
 7273TIP3    H243311   3.863   5.080   1.070  2.2010 -1.2362  1.5691
 7274TIP3   OH243312   3.712   0.181   2.231  0.0458 -0.0613 -0.6483
 7274TIP3    H143313   3.667   0.243   2.289 -1.3277 -3.3051  1.8867
 7274TIP3    H243314   3.772   0.133   2.288  1.5397 -0.6756 -2.6729
 7275TIP3   OH243315   1.547   4.372   3.572  0.2318 -0.1258  0.2676
 7275TIP3    H143316   1.585   4.349   3.657  0.4494  0.1495  0.2463
 7275TIP3    H243317   1.590   4.454   3.548 -0.5560  0.3197  0.3576
 7276TIP3   OH243318   0.369   1.784   5.099 -0.2053  0.7523 -0.1935
 7276TIP3    H143319   0.450   1.786   5.048 -0.1297  1.4818 -0.0398
 7276TIP3    H243320   0.304   1.747   5.039 -0.3233  2.4168 -1.1162
 7277TIP3   OH243321   5.812   6.570   3.148 -0.2713 -0.5170 -0.0995
 7277TIP3    H143322   5.758   6.612   3.215 -1.5306 -2.0127 -0.1211
 7277TIP3    H243323   5.760   6.577   3.068  0.4947 -0.1694 -0.5711
 7278TIP3   OH243324   3.511   1.481  15.794  0.0777 -0.2072  0.3992
 7278TIP3    H143325   3.482   1.510  15.881 -2.7572 -0.2712 -0.4502
 7278TIP3    H243326   3.530   1.562  15.747  1.5516 -0.1707  1.0257
 7279TIP3   OH243327   0.772   0.006  12.505  0.7004 -0.0277  0.5656
 7279TIP3    H143328   0.704   0.001  12.572  0.9856 -1.2124  0.7808
 7279TIP3    H243329   0.728   0.045  12.429  0.1827  0.6193  1.1947
 7280TIP3   OH243330   4.388   1.314   4.880 -0.5228  0.2438  0.2714
 7280TIP3    H143331   4.375   1.348   4.969 -0.0893  1.2766 -0.0391
 7280TIP3    H243332   4.308   1.337   4.834 -0.3590  0.5870  0.1484
 7281TIP3   OH243333   4.872   6.323   5.666  0.1336  0.3037 -0.5588
 7281TIP3    H143334   4.934   6.254   5.691  0.0370  0.0468 -1.0237
 7281TIP3    H243335   4.875   6.385   5.739 -1.7070 -1.5076  1.1525
 7282TIP3   OH243336   5.526   0.674   1.996 -0.4696 -0.3525  0.3933
 7282TIP3    H143337   5.522   0.761   1.957  0.9690 -1.1090 -1.5267
 7282TIP3    H243338   5.607   0.674   2.047  0.6052 -1.2241 -1.2934
 7283TIP3   OH243339   0.513   1.897   4.389  0.4091 -0.3797 -0.4432
 7283TIP3    H143340   0.521   1.958   4.462 -0.8423  0.4666 -1.0077
 7283TIP3    H243341   0.548   1.945   4.313  0.1380 -0.6415 -0.7353
 7284TIP3   OH243342   4.930   0.401  15.850  0.0505 -0.0408 -0.5330
 7284TIP3    H143343   4.961   0.345  15.921 -1.8911 -0.9417 -0.3677
 7284TIP3    H243344   4.939   0.347  15.771  1.1376  0.5589 -0.8371
 7285TIP3   OH243345   4.109   5.395  11.514 -0.1128  0.6959  0.1792
 7285TIP3    H143346   4.132   5.408  11.606 -0.2618  0.3778  0.2589
 7285TIP3    H243347   4.026   5.348  11.516  0.0144  0.4613 -0.1187
 7286TIP3   OH243348   0.414   6.237  12.496  0.0856  0.0789 -0.2108
 7286TIP3    H143349   0.413   6.291  12.418  0.9921 -1.3179 -1.2064
 7286TIP3    H243350   0.466   6.288  12.559  0.3561  0.6689 -0.9010
 7287TIP3   OH243351   0.839   4.334   0.340  0.0237 -0.0216 -0.8290
 7287TIP3    H143352   0.882   4.277   0.404  0.0612  2.1589  1.1615
 7287TIP3    H243353   0.748   4.304   0.339 -0.2417  0.6147  1.1257
 7288TIP3   OH243354   0.980   2.936   2.027  0.2440 -0.1532  0.3206
 7288TIP3    H143355   0.898   2.888   2.012  1.0509 -1.2327 -0.8144
 7288TIP3    H243356   1.035   2.912   1.952  1.3545  1.0822  0.7279
 7289TIP3   OH243357   2.004   5.956   3.616 -0.3281 -0.2517  0.5578
 7289TIP3    H143358   1.924   6.005   3.596  0.1219  0.4631  0.4828
 7289TIP3    H243359   2.012   5.962   3.711  1.0090  1.8909  0.3512
 7290TIP3   OH243360   3.061   3.337   0.269  0.2949 -0.1949 -0.1772
 7290TIP3    H143361   2.994   3.273   0.247 -0.7699  0.6040  0.6643
 7290TIP3    H243362   3.101   3.305   0.350  0.7108 -0.4992 -0.4997
 7291TIP3   OH243363   6.675   5.956   2.496  0.3730  0.3457  1.0759
 7291TIP3    H143364   6.737   6.028   2.486 -0.0114  0.5646  0.1995
 7291TIP3    H243365   6.591   5.999   2.514  0.2419  0.0996  1.0579
 7292TIP3   OH243366   1.184   6.621  14.240 -0.3468 -0.2919  0.1582
 7292TIP3    H143367   1.271   6.639  14.205  0.0689  0.2825  1.4781
 7292TIP3    H243368   1.128   6.618  14.162  0.8442 -0.7024 -0.7025
 7293TIP3   OH243369   6.681   2.348  12.201 -0.4751  0.4410 -0.3926
 7293TIP3    H143370   6.725   2.267  12.225 -1.4468 -0.1303 -0.5251
 7293TIP3    H243371   6.744   2.417  12.224  1.4388 -0.4604 -2.7047
 7294TIP3   OH243372   5.832   5.105   1.119  0.1029  0.4146 -0.1925
 7294TIP3    H143373   5.848   5.189   1.162 -0.1941  1.0108 -1.2299
 7294TIP3    H243374   5.768   5.125   1.051  0.6386 -0.4981 -0.9721
 7295TIP3   OH243375   5.468   3.068  15.258 -0.7386  0.2227  0.1405
 7295TIP3    H143376   5.556   3.038  15.239 -0.4005  0.6332  1.0405
 7295TIP3    H243377   5.413   3.026  15.191 -0.0752 -1.2336  0.4997
 7296TIP3   OH243378   4.192   2.896   1.483  0.0621 -0.3973  0.3376
 7296TIP3    H143379   4.175   2.885   1.390  0.5751  1.3081  0.0172
 7296TIP3    H243380   4.116   2.856   1.526 -0.8702  0.0658 -0.8561
 7297TIP3   OH243381   6.415   6.380   1.170 -0.5114 -0.0575 -0.6280
 7297TIP3    H143382   6.461   6.386   1.254 -3.1426 -1.3038  0.9806
 7297TIP3    H243383   6.378   6.468   1.158  1.3079  0.6382 -1.4049
 7298TIP3   OH243384   0.225   5.730   2.624 -0.0697 -0.3118  0.3841
 7298TIP3    H143385   0.237   5.800   2.689 -0.1316 -1.3373  1.5100
 7298TIP3    H243386   0.155   5.763   2.567  0.5237  0.9388  0.3505
 7299TIP3   OH243387   1.890   3.123  16.871 -0.3724 -0.3467  0.6531
 7299TIP3    H143388   1.834   3.135  16.794 -2.0209 -3.8335  1.1990
 7299TIP3    H243389   1.955   3.059  16.843  0.4297  0.1119  1.4570
 7300TIP3   OH243390   6.457   6.351  11.013 -0.4049 -0.5741  0.1968
 7300TIP3    H143391   6.409   6.290  10.957  1.0336 -1.1649 -0.4235
 7300TIP3    H243392   6.508   6.405  10.952 -1.1380  0.7910  0.7842
 7301TIP3   OH243393   6.494   3.232   0.739  0.1829 -0.0897  0.1309
 7301TIP3    H143394   6.402   3.206   0.730 -0.3999  2.0921 -0.3441
 7301TIP3    H243395   6.512   3.284   0.661  1.5841  0.2341  0.6593
 7302TIP3   OH243396   5.192   4.780   0.313  0.3465  0.1936 -0.1527
 7302TIP3    H143397   5.237   4.858   0.281 -0.5775  0.6720 -0.3037
 7302TIP3    H243398   5.218   4.710   0.252  2.6675 -0.0606  1.0728
 7303TIP3   OH243399   4.645   1.309   3.820  0.4724 -0.1091 -0.5644
 7303TIP3    H143400   4.618   1.389   3.774  0.4964 -0.0716 -0.5146
 7303TIP3    H243401   4.734   1.293   3.789  0.2239 -0.4931 -1.0755
 7304TIP3   OH243402   0.379   4.968   4.333  0.2581 -0.3197 -0.2881
 7304TIP3    H143403   0.345   5.053   4.307 -0.8787 -0.6978 -0.0632
 7304TIP3    H243404   0.454   4.987   4.389 -1.0994  0.5485  1.2618
 7305TIP3   OH243405   5.902   6.118  14.979  0.4206 -0.2588 -0.0200
 7305TIP3    H143406   5.887   6.210  14.957 -0.6490 -0.5349 -0.4754
 7305TIP3    H243407   5.858   6.106  15.063 -1.1395 -0.8221 -0.8854
 7306TIP3   OH243408   6.347   0.329   1.856  0.0089 -0.0470  0.0595
 7306TIP3    H143409   6.283   0.343   1.786 -0.4062 -1.5946  0.1176
 7306TIP3    H243410   6.428   0.307   1.809  0.4140  1.5029 -0.0002
 7307TIP3   OH243411   1.087   3.202  14.213 -0.2639  0.1131 -0.1011
 7307TIP3    H143412   1.133   3.120  14.234 -0.7041 -0.4026 -1.0720
 7307TIP3    H243413   1.004   3.196  14.259  0.1025  0.4648  0.6183
 7308TIP3   OH243414   5.668   2.554   4.121 -0.7327  0.2347  0.2898
 7308TIP3    H143415   5.653   2.641   4.159  1.1403  0.0478  1.4905
 7308TIP3    H243416   5.733   2.569   4.053  0.1808 -0.3382  1.0270
 7309TIP3   OH243417   4.564   1.714  16.173 -0.7466  0.2442 -0.0921
 7309TIP3    H143418   4.475   1.716  16.136  0.1177 -0.2572 -2.2678
 7309TIP3    H243419   4.584   1.806  16.190 -1.2828  0.4633 -0.6118
 7310TIP3   OH243420   1.165   5.741   6.073  0.5043  0.1318 -0.0796
 7310TIP3    H143421   1.198   5.697   6.151 -1.1065  0.6200  0.9001
 7310TIP3    H243422   1.123   5.821   6.107 -1.9288 -0.6174 -1.2298
 7311TIP3   OH243423   5.057   1.018   0.030  0.1066  0.1939  0.0446
 7311TIP3    H143424   5.038   0.931  -0.007 -0.0570  0.6156 -0.8613
 7311TIP3    H243425   5.092   1.068  -0.043  1.9944  0.3204  1.0146
 7312TIP3   OH243426   6.239   4.640   1.958 -0.2325  0.1899 -0.4523
 7312TIP3    H143427   6.226   4.578   1.886 -1.0755  0.0407 -0.1715
 7312TIP3    H243428   6.160   4.634   2.010 -0.6181  1.9855 -0.7849
 7313TIP3   OH243429   3.643   3.619   6.353 -0.6456  0.5323  0.2928
 7313TIP3    H143430   3.657   3.689   6.416 -1.2431  1.5101 -0.6608
 7313TIP3    H243431   3.578   3.562   6.395  1.5081 -0.7179  2.0587
 7314TIP3   OH243432   3.966   0.248   2.605  0.0061 -0.0256 -0.0466
 7314TIP3    H143433   3.895   0.219   2.663 -1.1440 -0.2803 -1.5442
 7314TIP3    H243434   4.034   0.278   2.664 -1.4742  0.5177  1.4261
 7315TIP3   OH243435   6.124   5.964  16.469 -0.5506 -0.0783  0.6405
 7315TIP3    H143436   6.143   6.025  16.540 -1.9557 -0.8334  1.6833
 7315TIP3    H243437   6.151   5.879  16.502  0.4304 -0.1921 -0.4116
 7316TIP3   OH243438   6.657   2.114  11.799  0.4472 -0.9852 -0.2081
 7316TIP3    H143439   6.742   2.072  11.786  1.0500  0.2875 -0.3889
 7316TIP3    H243440   6.662   2.195  11.749 -0.1754  0.0154  1.3123
 7317TIP3   OH243441   5.904   0.162  13.222 -0.1715 -0.1667  0.4893
 7317TIP3    H143442   5.823   0.139  13.176  0.3232  0.3459 -0.6490
 7317TIP3    H243443   5.968   0.099  13.190  0.1277  0.0639  0.6335
 7318TIP3   OH243444   6.410   3.095  13.680  0.4001  0.6960 -0.0325
 7318TIP3    H143445   6.432   3.177  13.725  1.6299  0.1996  0.2828
 7318TIP3    H243446   6.494   3.053  13.663 -0.2564 -0.8804  0.5161
 7319TIP3   OH243447   3.483   0.561  15.644 -0.0314  0.3976  0.2769
 7319TIP3    H143448   3.429   0.482  15.642 -0.6133  0.7340  1.5895
 7319TIP3    H243449   3.475   0.591  15.735  0.2564  1.9031 -0.2000
 7320TIP3   OH243450   0.653   2.959  12.238 -0.2084  0.2379 -0.2231
 7320TIP3    H143451   0.614   2.932  12.155 -2.1104  0.3681  0.5809
 7320TIP3    H243452   0.613   3.044  12.256  2.1925  1.4468 -0.4492
 7321TIP3   OH243453   4.644   3.647  12.505  0.0405  0.1033 -0.4276
 7321TIP3    H143454   4.681   3.634  12.593 -1.1557  2.3412  0.4396
 7321TIP3    H243455   4.721   3.648  12.448  0.8270 -1.5514  0.5260
 7322TIP3   OH243456   6.286   2.704  16.344 -0.0391  0.7399  0.1266
 7322TIP3    H143457   6.298   2.666  16.431 -1.4887  0.5924  0.2798
 7322TIP3    H243458   6.313   2.634  16.284 -0.0417  0.4645  0.4444
 7323TIP3   OH243459   1.746   6.610  11.931  0.2517  0.3418 -0.2883
 7323TIP3    H143460   1.777   6.523  11.908  0.7247  0.1077  1.1773
 7323TIP3    H243461   1.703   6.599  12.016  0.4741  1.5678 -0.0009
 7324TIP3   OH243462   6.174   0.176  14.952 -0.4021  0.4354  0.2978
 7324TIP3    H143463   6.252   0.145  14.907  0.1498 -0.5990  1.9225
 7324TIP3    H243464   6.175   0.271  14.940  1.2586  0.4613  0.5204
 7325TIP3   OH243465   0.837   0.179   4.374  0.3121 -0.0497  0.2370
 7325TIP3    H143466   0.849   0.243   4.304 -0.6044 -2.4395 -2.1610
 7325TIP3    H243467   0.755   0.204   4.416 -0.7381 -0.3742 -1.5501
 7326TIP3   OH243468   0.616   0.843   1.895  0.2804 -0.2186 -0.2945
 7326TIP3    H143469   0.532   0.803   1.872  0.4677 -0.4141 -0.6490
 7326TIP3    H243470   0.602   0.937   1.881  0.6521 -0.4018 -2.1034
 7327TIP3   OH243471   4.930   0.229  15.642  0.0481  0.4720  0.2230
 7327TIP3    H143472   4.867   0.158  15.654  0.5666 -0.1446 -0.7086
 7327TIP3    H243473   4.880   0.298  15.598  0.3704 -0.5672 -1.8391
 7328TIP3   OH243474   4.929   1.058  13.955  0.0604 -0.2942  0.5846
 7328TIP3    H143475   4.946   0.988  14.017 -0.4218 -0.4694  0.5185
 7328TIP3    H243476   4.961   1.024  13.871 -1.1999 -0.8763  0.3364
 7329TIP3   OH243477   4.753   3.109   5.899 -0.3610 -0.6779  1.1720
 7329TIP3    H143478   4.827   3.087   5.955 -0.0470 -1.4762  0.4648
 7329TIP3    H243479   4.685   3.046   5.924 -0.1149 -1.2434  0.4654
 7330TIP3   OH243480   5.517   1.239   3.467  0.0259 -0.5985 -0.4011
 7330TIP3    H143481   5.593   1.201   3.512 -0.7690 -1.7921 -0.0347
 7330TIP3    H243482   5.543   1.242   3.375  0.8281 -0.2389 -0.1684
 7331TIP3   OH243483   3.914   2.225   3.997 -0.0910  0.2917 -1.0780
 7331TIP3    H143484   3.861   2.292   4.039  0.1015 -0.1493 -0.1090
 7331TIP3    H243485   4.005   2.254   4.010  0.0838 -1.0141  0.9088
 7332TIP3   OH243486   4.267   0.077   2.453  1.3347 -0.0456  0.2000
 7332TIP3    H143487   4.257   0.060   2.547  2.1761  0.3912  0.3753
 7332TIP3    H243488   4.260   0.172   2.445  2.5563  0.0340 -0.0062
 7333TIP3   OH243489   5.468   5.430  15.627 -0.5071  0.4118 -0.1019
 7333TIP3    H143490   5.489   5.438  15.720 -0.3574  0.7351 -0.1635
 7333TIP3    H243491   5.496   5.513  15.589  1.6521 -0.6032 -0.8528
 7334TIP3   OH243492   6.454   0.291   2.764 -0.0589 -0.0480  0.3823
 7334TIP3    H143493   6.401   0.261   2.690 -0.7973 -0.3816  1.0476
 7334TIP3    H243494   6.545   0.281   2.734 -0.3659  1.1165 -0.9908
 7335TIP3   OH243495   5.502   4.682  15.038  0.2167 -0.0881 -0.0575
 7335TIP3    H143496   5.578   4.625  15.025 -0.4136 -1.2468  1.1950
 7335TIP3    H243497   5.467   4.655  15.123 -0.4030  1.8264  0.3059
 7336TIP3   OH243498   4.907   4.145  13.695  0.1460  0.2764 -0.5588
 7336TIP3    H143499   4.856   4.102  13.627 -2.1910  2.0618  0.0031
 7336TIP3    H243500   4.858   4.129  13.776  1.1253  0.9907  0.1926
 7337TIP3   OH243501   1.539   6.406  11.987  0.1335  0.7443  0.4374
 7337TIP3    H143502   1.489   6.482  12.019 -0.5348  0.5568 -0.1269
 7337TIP3    H243503   1.559   6.429  11.896  1.1191  0.8338  0.6808
 7338TIP3   OH243504   6.646   4.320  12.101  1.0574  0.4816 -0.0848
 7338TIP3    H143505   6.629   4.386  12.168 -1.2929 -0.3302  0.1742
 7338TIP3    H243506   6.641   4.236  12.148  2.1819  0.0412 -0.7407
 7339TIP3   OH243507   5.788   4.117   6.565 -0.0513 -0.2426 -0.1791
 7339TIP3    H143508   5.821   4.039   6.520  1.8735 -0.7983  2.1255
 7339TIP3    H243509   5.786   4.092   6.657  1.4259  2.7352  0.7109
 7340TIP3   OH243510   6.493   3.949   1.976  0.1978  0.3167 -0.3225
 7340TIP3    H143511   6.439   4.026   1.991  0.3046  0.1320  1.0279
 7340TIP3    H243512   6.468   3.888   2.045  1.0924 -0.3309 -0.5630
 7341TIP3   OH243513   3.275   1.346   1.597  0.2135  0.0062  0.3848
 7341TIP3    H143514   3.201   1.298   1.561  0.8108 -1.8750  1.5880
 7341TIP3    H243515   3.348   1.323   1.539  0.0219  1.2965 -0.3830
 7342TIP3   OH243516   6.389   0.604   2.012  0.2156 -0.3599  0.3784
 7342TIP3    H143517   6.437   0.638   1.937 -2.3777  1.7823 -0.3902
 7342TIP3    H243518   6.297   0.621   1.992 -0.6340 -0.9527  3.4396
 7343TIP3   OH243519   2.022   6.693  16.915  0.0381 -0.0061 -0.2433
 7343TIP3    H143520   2.078   6.715  16.841  0.6442  0.8037  0.4492
 7343TIP3    H243521   2.018   6.597  16.914  0.1967 -0.0090 -1.1973
 7344TIP3   OH243522   4.898   0.924   2.188  0.5731  0.2371 -0.6048
 7344TIP3    H143523   4.845   0.947   2.264  1.6596 -0.4002  0.3620
 7344TIP3    H243524   4.844   0.949   2.112 -0.1860  1.5987  0.3706
 7345TIP3   OH243525   4.458   1.063  11.306 -0.6003 -0.7429  0.0790
 7345TIP3    H143526   4.478   1.055  11.213  1.8471 -1.2114  0.6069
 7345TIP3    H243527   4.504   0.990  11.348 -1.0010 -0.0775  1.7505
 7346TIP3   OH243528   0.979   2.844  13.914  0.2625  0.1908 -0.0696
 7346TIP3    H143529   0.942   2.927  13.883 -1.2465 -0.7870 -0.9576
 7346TIP3    H243530   0.903   2.787  13.924  0.9101 -0.1378  3.5897
 7347TIP3   OH243531   4.063   0.824  15.894  0.4447  0.2821  0.3107
 7347TIP3    H143532   3.999   0.858  15.831  0.3475  0.3680  0.4546
 7347TIP3    H243533   4.024   0.843  15.979 -0.2332 -1.3639  0.3886
 7348TIP3   OH243534   1.999   5.306  13.025 -0.1926  0.5421  0.4595
 7348TIP3    H143535   2.006   5.257  13.107  3.1804 -0.2427 -0.2373
 7348TIP3    H243536   2.039   5.391  13.044 -2.0540  1.4497  0.4204
 7349TIP3   OH243537   4.473   4.328  17.072  0.0308  0.0319 -0.8593
 7349TIP3    H143538   4.509   4.416  17.082  0.9111 -0.4089  0.0973
 7349TIP3    H243539   4.548   4.275  17.044 -0.0963 -0.7198  0.1834
 7350TIP3   OH243540   5.662   0.940  14.789  0.1647 -0.2605  0.3268
 7350TIP3    H143541   5.653   1.035  14.781 -0.7596 -0.4122 -0.5925
 7350TIP3    H243542   5.617   0.918  14.871  1.2370  0.2007  1.0512
 7351TIP3   OH243543   3.143   1.511   4.225  0.3167  0.1223 -0.6825
 7351TIP3    H143544   3.059   1.494   4.181 -0.4173 -2.8452  1.7219
 7351TIP3    H243545   3.209   1.492   4.159 -0.8293  0.2223 -1.8916
 7352TIP3   OH243546   5.557   3.254  11.400  0.0792  0.4110 -0.0288
 7352TIP3    H143547   5.617   3.240  11.326 -0.1091 -1.1507  0.0933
 7352TIP3    H243548   5.470   3.245  11.362 -0.0358  0.5303  0.2047
 7353TIP3   OH243549   3.568   0.572  16.111  0.2255 -0.5519 -0.4817
 7353TIP3    H143550   3.552   0.647  16.168 -2.5044 -0.9091 -0.6833
 7353TIP3    H243551   3.662   0.556  16.117  0.4053  1.1364  1.7393
 7354TIP3   OH243552   1.290   0.171   2.803  0.3540  1.0669  0.0006
 7354TIP3    H143553   1.337   0.096   2.841  1.9748  1.3975 -1.2540
 7354TIP3    H243554   1.212   0.133   2.763  1.2931 -0.0053 -0.8420
 7355TIP3   OH243555   4.144   5.837  14.839  0.3535 -0.3561 -0.2403
 7355TIP3    H143556   4.075   5.851  14.905 -0.8096  0.6411 -1.6392
 7355TIP3    H243557   4.110   5.878  14.760  2.1553 -0.7170 -1.2231
 7356TIP3   OH243558   1.215   6.776   5.887 -0.2331 -0.0523 -0.1656
 7356TIP3    H143559   1.266   6.696   5.876 -0.8611 -0.4554 -0.1420
 7356TIP3    H243560   1.248   6.814   5.969 -0.3170 -0.5672  0.1073
 7357TIP3   OH243561   3.423   6.658   1.310 -0.5432  0.5631  0.1724
 7357TIP3    H143562   3.497   6.690   1.362  0.7273 -0.7868 -0.7685
 7357TIP3    H243563   3.375   6.737   1.286  0.9177  1.5229  0.3051
 7358TIP3   OH243564   1.228   0.694  15.168  0.5112  0.4971 -0.4995
 7358TIP3    H143565   1.180   0.616  15.195 -0.0811  0.2111 -2.3112
 7358TIP3    H243566   1.180   0.767  15.208 -0.5647  0.1097 -1.0832
 7359TIP3   OH243567   5.508   0.763   4.402  0.2734 -0.3720  0.8358
 7359TIP3    H143568   5.434   0.704   4.387  0.6937 -0.9929  1.1486
 7359TIP3    H243569   5.576   0.730   4.344  0.6735 -0.5013  1.3696
 7360TIP3   OH243570   2.741   1.237   1.259 -0.5068  0.3238 -0.1367
 7360TIP3    H143571   2.771   1.290   1.333 -1.9797 -0.1452  0.8123
 7360TIP3    H243572   2.747   1.146   1.290 -1.8545  0.1628 -0.3027
 7361TIP3   OH243573   0.397   4.824  11.151 -0.0974 -0.5575  0.2277
 7361TIP3    H143574   0.478   4.774  11.150 -0.3051 -0.8911 -0.3142
 7361TIP3    H243575   0.331   4.764  11.117 -0.8413 -0.7459  1.9481
 7362TIP3   OH243576   2.267   5.020   3.428 -0.1753 -0.2777 -0.1597
 7362TIP3    H143577   2.310   5.003   3.511  0.0728  0.6848 -0.0854
 7362TIP3    H243578   2.219   5.102   3.441  1.5891  1.0277 -1.5896
 7363TIP3   OH243579   3.947   6.578   5.758 -0.5190 -0.5291 -0.1812
 7363TIP3    H143580   3.993   6.660   5.740 -0.5212 -0.7211 -1.0872
 7363TIP3    H243581   3.999   6.511   5.713  0.5166 -1.2936  2.0782
 7364TIP3   OH243582   4.859   3.173   3.561 -0.0871 -0.0218  0.1237
 7364TIP3    H143583   4.845   3.261   3.594  1.7773  0.2310  0.3364
 7364TIP3    H243584   4.798   3.118   3.610  0.2518  0.8505  1.5526
 7365TIP3   OH243585   4.799   6.369  15.830 -0.3785 -0.8529  0.0329
 7365TIP3    H143586   4.851   6.291  15.811  2.0485  0.5813  0.5058
 7365TIP3    H243587   4.796   6.373  15.925 -0.2596 -0.2430  0.0155
 7366TIP3   OH243588   2.543   1.342  16.212 -0.8698  0.1083  0.7254
 7366TIP3    H143589   2.470   1.284  16.192 -0.2663 -0.5650  0.4713
 7366TIP3    H243590   2.613   1.285  16.243 -0.7711  0.8490  1.9072
 7367TIP3   OH243591   5.499   1.023   3.194 -0.3623 -0.4940  0.7067
 7367TIP3    H143592   5.547   0.941   3.181 -1.0897 -0.4226 -2.8580
 7367TIP3    H243593   5.566   1.089   3.209  0.2836 -1.4643  2.2563
 7368TIP3   OH243594   1.898   6.519  12.213 -0.1899 -0.0847  0.3213
 7368TIP3    H143595   1.820   6.542  12.264  0.2253  0.2893  0.7992
 7368TIP3    H243596   1.964   6.497  12.279  0.7308  1.6413 -0.0005
 7369TIP3   OH243597   0.328   6.520  12.423 -0.1053  0.1151  0.0695
 7369TIP3    H143598   0.295   6.603  12.387  0.5375 -0.0084 -0.8271
 7369TIP3    H243599   0.318   6.457  12.351 -0.9185 -0.6734  0.8691
 7370TIP3   OH243600   3.671   1.405   5.225 -0.4391 -0.2975 -0.0026
 7370TIP3    H143601   3.605   1.431   5.290 -1.2838 -0.6561 -0.7181
 7370TIP3    H243602   3.754   1.438   5.261 -0.3903 -3.2591  2.8779
 7371TIP3   OH243603   5.100   6.492   3.311  0.1215  0.2328  0.1250
 7371TIP3    H143604   5.167   6.482   3.379  1.2420  1.9605 -0.6780
 7371TIP3    H243605   5.145   6.470   3.229 -1.2156 -1.8170 -0.0885
 7372TIP3   OH243606   6.480   5.579  16.849 -0.4214 -0.1805  0.0540
 7372TIP3    H143607   6.475   5.628  16.931  2.0992  0.5423 -0.1764
 7372TIP3    H243608   6.435   5.634  16.785  0.8903  1.0595  0.1702
 7373TIP3   OH243609   2.990   0.522  12.619  0.1733 -0.1380 -0.3922
 7373TIP3    H143610   3.066   0.570  12.586 -1.0245  2.3343  0.3479
 7373TIP3    H243611   2.917   0.550  12.563 -0.7936 -0.1004  0.8593
 7374TIP3   OH243612   5.198   4.431   0.847  0.3416  0.5207  0.2469
 7374TIP3    H143613   5.217   4.501   0.785  0.2387  0.2661 -0.0714
 7374TIP3    H243614   5.281   4.416   0.892  0.2829  1.0682  0.5430
 7375TIP3   OH243615   3.653   4.686   3.196  0.3671  0.4585 -0.6236
 7375TIP3    H143616   3.671   4.605   3.149 -0.7558 -0.2296  0.0863
 7375TIP3    H243617   3.737   4.711   3.235  0.3268 -1.4365  0.7632
 7376TIP3   OH243618   1.406   4.906   5.877 -0.0032  0.7773  0.2729
 7376TIP3    H143619   1.356   4.877   5.953  0.9812 -0.1711  0.5701
 7376TIP3    H243620   1.421   4.827   5.827 -0.3051  1.3434 -0.7197
 7377TIP3   OH243621   1.833   1.166   2.679  0.1322 -0.0117  0.1977
 7377TIP3    H143622   1.897   1.129   2.617  0.6506  0.0634  0.6865
 7377TIP3    H243623   1.871   1.150   2.765 -0.4477  0.1577  0.4860
 7378TIP3   OH243624   1.809   3.921  15.445 -0.3869 -0.1288  0.0737
 7378TIP3    H143625   1.733   3.979  15.443 -1.2338 -1.2619 -1.0466
 7378TIP3    H243626   1.865   3.952  15.373 -0.5984 -0.3825 -0.1995
 7379TIP3   OH243627   0.387   4.289  10.774  0.2301  0.4559  0.2471
 7379TIP3    H143628   0.426   4.320  10.693 -0.3432 -0.0947 -0.2514
 7379TIP3    H243629   0.365   4.197  10.756 -2.1308  1.0095  0.1815
 7380TIP3   OH243630   4.260   3.062  14.356  0.4707 -0.1493 -0.3864
 7380TIP3    H143631   4.334   3.119  14.333  1.3344 -1.2771 -0.4073
 7380TIP3    H243632   4.235   3.090  14.444  1.1367  0.0098 -0.2413
 7381TIP3   OH243633   4.876   2.615   4.978  0.4279  0.1335  0.2453
 7381TIP3    H143634   4.788   2.595   4.944  0.8723 -0.5801 -0.4868
 7381TIP3    H243635   4.876   2.576   5.066  0.7258 -1.7370 -0.5567
 7382TIP3   OH243636   2.661   4.277   4.880 -0.5715 -0.2224  0.3275
 7382TIP3    H143637   2.667   4.332   4.958 -1.6922  0.4926 -0.0797
 7382TIP3    H243638   2.610   4.201   4.907 -0.7316 -0.1015  0.3663
 7383TIP3   OH243639   2.339   6.270  12.579  0.2656 -0.2582  0.4428
 7383TIP3    H143640   2.336   6.175  12.595 -0.5803 -0.5268 -1.1759
 7383TIP3    H243641   2.432   6.290  12.569  0.3371 -1.2723 -1.1099
 7384TIP3   OH243642   0.710   0.780  11.325 -0.6655 -0.0636  0.2069
 7384TIP3    H143643   0.675   0.723  11.256 -1.5706 -0.1192  0.7033
 7384TIP3    H243644   0.752   0.720  11.386 -2.5612 -0.3324  1.2918
 7385TIP3   OH243645   3.253   3.140  12.231  0.1473 -0.0811  0.1222
 7385TIP3    H143646   3.244   3.229  12.267 -0.1153  0.5866 -1.5381
 7385TIP3    H243647   3.178   3.092  12.267 -1.4071  1.2008 -1.3156
 7386TIP3   OH243648   5.558   2.229   1.045 -0.4887  0.0385 -0.1994
 7386TIP3    H143649   5.508   2.310   1.031 -1.3816 -0.4989 -0.1779
 7386TIP3    H243650   5.494   2.160   1.032  0.3596 -0.6773 -0.5658
 7387TIP3   OH243651   1.721   6.652  13.112  0.4212 -0.2416  0.0863
 7387TIP3    H143652   1.673   6.601  13.177  1.2020 -0.3805  0.5630
 7387TIP3    H243653   1.666   6.728  13.096 -0.0262 -0.4724  0.5191
 7388TIP3   OH243654   4.526   6.238  14.016  0.3578  0.8458  0.4326
 7388TIP3    H143655   4.431   6.227  14.020  0.4511  0.2149  1.0585
 7388TIP3    H243656   4.549   6.276  14.101  0.9096 -1.0379  1.1654
 7389TIP3   OH243657   0.311   1.969   5.313 -0.1851 -0.7190 -0.0132
 7389TIP3    H143658   0.316   1.912   5.236 -1.4478  0.5552 -1.0701
 7389TIP3    H243659   0.228   2.015   5.303  0.8931  1.4579  0.7105
 7390TIP3   OH243660   3.678   6.466  10.545  0.6878 -0.0255  0.4536
 7390TIP3    H143661   3.676   6.499  10.635  1.2627  2.3290 -0.3637
 7390TIP3    H243662   3.733   6.388  10.550  1.4287  0.5698  2.0042
 7391TIP3   OH243663   6.428   4.548  16.501 -0.1045  0.0396  0.5376
 7391TIP3    H143664   6.359   4.582  16.445 -0.8569  0.5625  1.7637
 7391TIP3    H243665   6.440   4.615  16.569  2.5931  0.6284 -0.4513
 7392TIP3   OH243666   2.411   4.291  11.860  0.0158  0.2920  0.4564
 7392TIP3    H143667   2.315   4.290  11.869 -0.1064  0.4156 -0.7107
 7392TIP3    H243668   2.431   4.207  11.817  0.5026 -0.0333  1.3123
 7393TIP3   OH243669   2.949   3.721  17.142 -0.0284  0.1820  0.0710
 7393TIP3    H143670   2.906   3.795  17.185 -0.6689 -0.6341  0.8588
 7393TIP3    H243671   2.970   3.660  17.213  0.4302 -0.4175 -0.5690
 7394TIP3   OH243672   2.190   5.792  13.361 -1.0733 -0.1937  0.0333
 7394TIP3    H143673   2.153   5.811  13.447 -1.3698  0.9408 -0.3334
 7394TIP3    H243674   2.283   5.777  13.378 -1.3103 -0.9327  0.6803
 7395TIP3   OH243675   5.833   6.478  15.881 -0.2847  0.2724  0.1289
 7395TIP3    H143676   5.882   6.396  15.881 -0.6815  0.0222  1.0135
 7395TIP3    H243677   5.769   6.468  15.811 -1.0937 -0.6630  0.9728
 7396TIP3   OH243678   3.085   5.970  16.345  0.0059 -0.3703  0.0995
 7396TIP3    H143679   3.100   5.893  16.400  0.2056  0.6141  1.4165
 7396TIP3    H243680   3.031   5.937  16.273  1.7076 -2.1824 -0.4129
 7397TIP3   OH243681   3.148   4.835   1.353 -0.5428  0.6113 -0.0364
 7397TIP3    H143682   3.112   4.845   1.265 -0.0176 -1.0570 -0.4681
 7397TIP3    H243683   3.083   4.877   1.411 -1.8524  0.0133 -1.0433
 7398TIP3   OH243684   5.856   2.977  16.807  0.4005  0.0332  0.5897
 7398TIP3    H143685   5.912   3.023  16.744 -0.0534  0.3508  0.4237
 7398TIP3    H243686   5.914   2.962  16.882  0.1803  2.0846  1.2044
 7399TIP3   OH243687   6.000   3.903   4.661 -0.4960 -0.2157  0.8423
 7399TIP3    H143688   5.985   3.923   4.754 -1.7216  3.7436 -0.1141
 7399TIP3    H243689   5.920   3.932   4.617  0.6040 -0.8115 -1.6292
 7400TIP3   OH243690   2.365   0.510  11.916 -0.3867 -0.1926  0.1097
 7400TIP3    H143691   2.293   0.513  11.853  0.0022  0.9226 -0.2973
 7400TIP3    H243692   2.340   0.573  11.984 -0.3099 -0.6179  0.5333
 7401TIP3   OH243693   3.253   4.528   0.545 -0.6249  0.1195  0.0282
 7401TIP3    H143694   3.345   4.551   0.534 -0.2775 -1.9764 -1.9036
 7401TIP3    H243695   3.207   4.612   0.547  1.2279  1.1532  0.0365
 7402TIP3   OH243696   6.348   6.242   3.476  0.1191  0.4166  0.0415
 7402TIP3    H143697   6.284   6.171   3.464 -0.6076  0.8413  1.2742
 7402TIP3    H243698   6.408   6.208   3.543  0.7742  0.2955 -0.6057
 7403TIP3   OH243699   6.501   4.496   2.005 -0.2028 -0.2094  0.1532
 7403TIP3    H143700   6.446   4.566   2.041  0.3854  0.9728 -1.1987
 7403TIP3    H243701   6.529   4.529   1.919  1.1249 -1.5652  0.0425
 7404TIP3   OH243702   2.185   5.287   3.396 -0.0220  0.0621 -0.0772
 7404TIP3    H143703   2.106   5.337   3.375  0.6183  1.0243 -0.2098
 7404TIP3    H243704   2.232   5.341   3.459 -0.1552 -1.1701  1.1057
 7405TIP3   OH243705   6.639   0.584   1.218  0.3568 -0.0386 -0.4531
 7405TIP3    H143706   6.566   0.645   1.227  0.2831  0.0564 -1.6300
 7405TIP3    H243707   6.706   0.633   1.170  1.4319  0.0745  1.1129
 7406TIP3   OH243708   6.638   3.427  14.509 -0.2605  0.0854  0.0979
 7406TIP3    H143709   6.645   3.419  14.604 -0.0066  0.8110  0.1481
 7406TIP3    H243710   6.700   3.363  14.474  1.4400  1.4902  0.4579
 7407TIP3   OH243711   6.662   1.971  12.970  0.5844  0.3176 -0.0510
 7407TIP3    H143712   6.615   2.007  12.894 -0.5613  0.8131  0.8751
 7407TIP3    H243713   6.753   1.967  12.941  0.3256  1.4760 -1.1093
 7408TIP3   OH243714   0.439   4.601  14.488  0.2978 -0.3550  0.1392
 7408TIP3    H143715   0.495   4.679  14.491 -1.3387  0.8835 -0.8294
 7408TIP3    H243716   0.438   4.576  14.396 -2.6070  1.0616 -0.2724
 7409TIP3   OH243717   6.710   5.178   0.502 -0.0700 -0.1878 -0.3472
 7409TIP3    H143718   6.669   5.264   0.501 -0.2900 -0.2876 -1.7718
 7409TIP3    H243719   6.804   5.195   0.498 -0.1024 -0.0031 -0.3072
 7410TIP3   OH243720   4.842   1.714   0.345 -0.4210  0.4797 -0.5739
 7410TIP3    H143721   4.930   1.733   0.377  0.3447 -0.5413 -2.0105
 7410TIP3    H243722   4.850   1.627   0.305 -1.8654  0.7890 -1.5429
 7411TIP3   OH243723   5.813   5.788  15.206  0.2295 -0.7311  0.6200
 7411TIP3    H143724   5.806   5.882  15.224  0.1745 -0.8415  1.1739
 7411TIP3    H243725   5.723   5.755  15.216  0.0642 -0.6648 -0.5806
 7412TIP3   OH243726   4.227   3.489  12.869 -0.6177 -0.5191 -0.7137
 7412TIP3    H143727   4.282   3.497  12.792 -1.4994  1.9086 -1.1396
 7412TIP3    H243728   4.279   3.527  12.940 -0.4145 -1.3563 -0.4025
 7413TIP3   OH243729   0.204   2.152  15.661  0.0702  0.2362 -0.3842
 7413TIP3    H143730   0.284   2.195  15.691 -0.4158  0.5803  0.4264
 7413TIP3    H243731   0.146   2.224  15.636  0.6594 -0.0389 -2.7241
 7414TIP3   OH243732   2.150   4.965   0.161 -0.0166  0.5567 -0.1071
 7414TIP3    H143733   2.147   4.882   0.112  1.2699  0.5260 -0.1389
 7414TIP3    H243734   2.177   4.939   0.249  1.1605  1.0428 -0.3285
 7415TIP3   OH243735   0.331   5.061   3.260 -0.0339 -0.0491 -0.5075
 7415TIP3    H143736   0.412   5.011   3.253  0.5120  0.6686  0.4767
 7415TIP3    H243737   0.271   5.003   3.308 -0.6215 -1.1694 -2.5270
 7416TIP3   OH243738   4.668   5.439  13.068 -0.3357  0.0641  0.3537
 7416TIP3    H143739   4.635   5.368  13.124 -0.9617 -1.6700 -2.1107
 7416TIP3    H243740   4.762   5.439  13.083 -0.4718 -0.4708  1.2991
 7417TIP3   OH243741   3.557   4.271   2.599  0.2625  0.1848 -0.1046
 7417TIP3    H143742   3.593   4.225   2.675 -4.1059 -2.5786  0.5066
 7417TIP3    H243743   3.538   4.359   2.631 -1.4510 -0.9089  2.0968
 7418TIP3   OH243744   6.005   5.047   4.746 -0.2669 -0.2205  0.6745
 7418TIP3    H143745   5.937   5.068   4.810 -1.1144  0.7430 -0.5139
 7418TIP3    H243746   6.001   5.119   4.683  1.2610 -0.6141  0.1031
 7419TIP3   OH243747   4.591   4.919  13.172  0.3886  0.2448 -0.2573
 7419TIP3    H143748   4.630   5.000  13.140  1.0797  0.5350  1.2575
 7419TIP3    H243749   4.507   4.912  13.127  0.6089  1.4724 -0.8686
 7420TIP3   OH243750   4.508   1.188  10.996  0.6815  0.2188 -0.6460
 7420TIP3    H143751   4.591   1.229  11.022  0.1665  0.9633 -0.1494
 7420TIP3    H243752   4.475   1.243  10.925 -0.2995  1.0281  0.4148
 7421TIP3   OH243753   2.304   4.284  13.918 -0.8153  0.4225 -0.4262
 7421TIP3    H143754   2.398   4.278  13.899 -0.8975  0.1959 -0.7664
 7421TIP3    H243755   2.267   4.328  13.842 -0.8551  1.3559  0.1157
 7422TIP3   OH243756   3.704   3.621  14.427 -0.7476  0.0367  0.1505
 7422TIP3    H143757   3.765   3.569  14.479 -1.5427 -1.2435 -0.1470
 7422TIP3    H243758   3.688   3.699  14.479 -1.4086 -1.1512  1.7824
 7423TIP3   OH243759   2.122   4.715  14.251 -0.0294 -0.1624  0.8189
 7423TIP3    H143760   2.104   4.688  14.161  0.6108 -0.3085  0.7389
 7423TIP3    H243761   2.035   4.736  14.286 -0.1712  1.0084 -0.1882
 7424TIP3   OH243762   5.307   2.574   5.557  0.4708 -0.2851 -0.6196
 7424TIP3    H143763   5.293   2.666   5.532 -1.6980 -0.5815 -0.5887
 7424TIP3    H243764   5.276   2.524   5.482 -1.4317 -1.0493  0.6229
 7425TIP3   OH243765   0.810   2.668  11.447 -0.1820  0.2493 -0.3631
 7425TIP3    H143766   0.807   2.572  11.447  1.0725  0.1891 -1.1522
 7425TIP3    H243767   0.742   2.695  11.509 -0.7699 -1.1421 -0.3920
 7426TIP3   OH243768   4.791   6.305   4.805 -0.1236 -0.3136  0.4062
 7426TIP3    H143769   4.834   6.389   4.817  1.0731 -0.9229  0.4678
 7426TIP3    H243770   4.705   6.327   4.768  0.0732  0.9412  0.6743
 7427TIP3   OH243771   5.177   2.747  10.887 -0.2996 -0.3340 -0.0231
 7427TIP3    H143772   5.246   2.745  10.953  1.3279  1.7863 -1.5834
 7427TIP3    H243773   5.177   2.659  10.849  0.1464 -0.9430  1.3858
 7428TIP3   OH243774   6.433   5.933   0.163 -0.0208 -0.8729 -0.0181
 7428TIP3    H143775   6.405   5.999   0.099  0.3634 -0.5685  0.1248
 7428TIP3    H243776   6.432   5.850   0.114  1.0504 -0.5256 -0.6465
 7429TIP3   OH243777   3.884   1.430   3.866 -0.5529 -0.2102 -0.2982
 7429TIP3    H143778   3.900   1.435   3.772 -1.5813  0.8514 -0.4264
 7429TIP3    H243779   3.817   1.497   3.883 -0.9647 -0.9379  1.0486
 7430TIP3   OH243780   0.762   1.269   2.572 -0.1090  0.5608  0.3230
 7430TIP3    H143781   0.790   1.195   2.519 -1.6813  0.7349 -0.8000
 7430TIP3    H243782   0.795   1.346   2.525 -0.5768  0.6744  0.1804
 7431TIP3   OH243783   6.245   5.349   5.816 -0.1504  0.0997 -0.6814
 7431TIP3    H143784   6.197   5.418   5.861 -0.2463  0.2992 -1.0918
 7431TIP3    H243785   6.262   5.383   5.728 -1.4025 -0.9285 -1.3386
 7432TIP3   OH243786   4.400   1.255  15.270  0.2943  0.0240 -0.6100
 7432TIP3    H143787   4.421   1.293  15.355  0.2557  0.6118 -0.8649
 7432TIP3    H243788   4.416   1.325  15.207 -1.0317  0.0294 -0.9496
 7433TIP3   OH243789   2.952   2.804  11.601 -0.0896 -0.2047 -0.2353
 7433TIP3    H143790   3.042   2.818  11.630 -0.3208 -0.9475  0.8736
 7433TIP3    H243791   2.961   2.777  11.510  0.7770  0.2529 -0.2953
 7434TIP3   OH243792   0.404   4.118  17.188  0.6705 -0.1414 -0.2554
 7434TIP3    H143793   0.346   4.046  17.210  0.2951  0.2365  0.0101
 7434TIP3    H243794   0.492   4.080  17.189  0.3307 -0.9973 -1.8839
 7435TIP3   OH243795   1.462   5.675   1.192  0.1807 -0.7217  0.5699
 7435TIP3    H143796   1.448   5.651   1.100  1.8456  0.5565 -0.0530
 7435TIP3    H243797   1.379   5.714   1.220 -0.1686 -0.6411 -0.5437
 7436TIP3   OH243798   1.609   1.435  12.820  0.0207 -0.1364 -0.5510
 7436TIP3    H143799   1.566   1.351  12.809  0.9193 -0.5653 -0.8623
 7436TIP3    H243800   1.687   1.430  12.764  0.6655  0.4703  0.2700
 7437TIP3   OH243801   2.034   4.624  12.764  0.2942 -0.0542 -0.1574
 7437TIP3    H143802   2.120   4.599  12.730  0.3515  0.3966 -0.3413
 7437TIP3    H243803   1.972   4.584  12.703  0.3254 -1.8925  0.9820
 7438TIP3   OH243804   5.326   2.043   3.137  0.3053  0.0727 -0.6196
 7438TIP3    H143805   5.400   2.016   3.191 -2.5292  0.0805  3.4663
 7438TIP3    H243806   5.295   1.962   3.096 -1.7213 -1.3069  3.3520
 7439TIP3   OH243807   6.450   2.095  11.530  0.0742  0.1937 -0.2215
 7439TIP3    H143808   6.462   2.002  11.513  1.9525  0.6017 -1.2044
 7439TIP3    H243809   6.493   2.139  11.458 -0.1407  1.8480  0.6322
 7440TIP3   OH243810   1.362   6.154  13.094  0.9289  0.0358  0.0132
 7440TIP3    H143811   1.396   6.214  13.027  1.8357  0.0598  0.4979
 7440TIP3    H243812   1.380   6.067  13.058 -0.4003  0.0365 -0.6974
 7441TIP3   OH243813   4.278   3.044   4.256  0.8325 -0.0974 -0.4227
 7441TIP3    H143814   4.348   2.985   4.226  1.1730 -0.0643  0.2934
 7441TIP3    H243815   4.197   3.004   4.224  1.0771 -0.8683 -0.0789
 7442TIP3   OH243816   6.405   5.835   1.411  0.7846  0.0504  0.1880
 7442TIP3    H143817   6.476   5.884   1.452  0.7514 -1.4039  2.0144
 7442TIP3    H243818   6.445   5.799   1.331  1.7738  0.1878  0.6073
 7443TIP3   OH243819   0.079   4.412   1.322  0.3505  0.1050  0.0256
 7443TIP3    H143820   0.139   4.337   1.317  1.6440  1.1577 -0.3962
 7443TIP3    H243821   0.067   4.439   1.231  1.4447  1.6238  0.3154
 7444TIP3   OH243822   1.814   3.730  11.870 -0.0660 -0.4514  0.3534
 7444TIP3    H143823   1.725   3.761  11.852  0.4180 -0.1550 -1.7699
 7444TIP3    H243824   1.861   3.808  11.899 -0.2330 -0.3575  0.3729
 7445TIP3   OH243825   6.096   3.742  16.106  0.3071  0.0770  0.3395
 7445TIP3    H143826   6.040   3.679  16.062  0.0798  0.7965 -0.4283
 7445TIP3    H243827   6.152   3.777  16.036  1.2729 -0.1671  0.9731
 7446TIP3   OH243828   6.573   3.952  17.218  0.1000  1.0168  0.7438
 7446TIP3    H143829   6.576   4.033  17.270  0.5316  1.4251  0.0816
 7446TIP3    H243830   6.612   3.976  17.134 -1.4245  0.6049 -0.1044
 7447TIP3   OH243831   4.136   2.917  15.518 -0.1070 -0.4472  0.2602
 7447TIP3    H143832   4.197   2.987  15.495  0.4085 -1.1466 -0.5356
 7447TIP3    H243833   4.138   2.915  15.614  0.6161 -0.0230  0.2644
 7448TIP3   OH243834   6.078   5.425   2.603  0.7021  0.8598 -0.2334
 7448TIP3    H143835   6.163   5.382   2.601 -0.5587 -1.6320 -2.4754
 7448TIP3    H243836   6.028   5.378   2.670 -0.2270 -0.3862 -1.7562
 7449TIP3   OH243837   3.006   4.362  15.628 -0.1791 -0.2478  0.2091
 7449TIP3    H143838   3.059   4.426  15.580  0.5475 -0.8711  0.1660
 7449TIP3    H243839   2.963   4.413  15.697  0.5909  0.2481  0.3315
 7450TIP3   OH243840   6.304   5.052   3.941  0.5792 -0.4538 -0.5273
 7450TIP3    H143841   6.232   5.025   3.885  0.0535  0.4345 -0.2792
 7450TIP3    H243842   6.335   5.135   3.904  0.4793 -0.0566  0.2591
 7451TIP3   OH243843   5.564   1.847  11.936  0.3340  0.3361  0.9242
 7451TIP3    H143844   5.510   1.823  12.011 -0.5450 -0.7867 -0.0495
 7451TIP3    H243845   5.643   1.885  11.974  0.2920 -1.0431  2.4219
 7452TIP3   OH243846   6.200   1.938  11.270 -0.1428 -0.1954 -0.0459
 7452TIP3    H143847   6.291   1.954  11.245 -0.4498 -1.4879 -2.1072
 7452TIP3    H243848   6.150   2.005  11.223 -0.5402 -1.3885 -1.3357
 7453TIP3   OH243849   1.182   5.304  17.212  0.0714  0.1743  0.1678
 7453TIP3    H143850   1.149   5.229  17.262  1.0210 -0.0856  0.4060
 7453TIP3    H243851   1.193   5.372  17.278  1.5388 -0.2383  0.3530
 7454TIP3   OH243852   5.705   5.366  11.534 -0.4083  0.0449  0.1492
 7454TIP3    H143853   5.711   5.452  11.576  0.9427 -0.1014  0.2687
 7454TIP3    H243854   5.750   5.378  11.451 -0.8347 -0.3666 -0.1421
 7455TIP3   OH243855   4.184   0.992  10.500 -0.2698 -0.4275  0.3463
 7455TIP3    H143856   4.258   1.052  10.503 -1.1136  0.5882  0.8808
 7455TIP3    H243857   4.117   1.038  10.450 -1.1406 -0.6732  1.2767
 7456TIP3   OH243858   1.205   4.955   3.796  0.7468  1.1035 -0.4037
 7456TIP3    H143859   1.251   4.879   3.759 -1.0037 -0.1806 -0.0323
 7456TIP3    H243860   1.208   5.021   3.727  1.6082  0.4092 -1.0404
 7457TIP3   OH243861   5.096   3.727   0.979  0.1050  0.1529 -0.2911
 7457TIP3    H143862   5.041   3.746   0.903 -0.1610  0.1941 -0.0890
 7457TIP3    H243863   5.105   3.812   1.023 -0.6637 -0.0958  0.3353
 7458TIP3   OH243864   0.411   5.299   6.159 -0.3519 -0.1339  0.2506
 7458TIP3    H143865   0.357   5.235   6.111 -0.9255 -1.0340  2.0719
 7458TIP3    H243866   0.415   5.374   6.100 -0.1913 -1.5928 -1.6674
 7459TIP3   OH243867   6.426   1.437   2.162 -0.5325  0.7175  0.0941
 7459TIP3    H143868   6.398   1.364   2.107 -1.7547  0.2554  1.3012
 7459TIP3    H243869   6.514   1.457   2.132 -0.9916  0.1472 -1.6930
 7460TIP3   OH243870   6.160   6.499  16.886 -0.4244  0.6026  0.1906
 7460TIP3    H143871   6.137   6.568  16.949 -0.9474  0.5170  0.0893
 7460TIP3    H243872   6.178   6.546  16.805  1.6984  0.8561  0.7763
 7461TIP3   OH243873   0.307   4.631   3.498  0.6361  0.6217 -0.1936
 7461TIP3    H143874   0.226   4.579   3.490 -0.3244  2.0540 -0.0402
 7461TIP3    H243875   0.358   4.608   3.420 -0.9369  1.4292 -1.4835
 7462TIP3   OH243876   6.781   4.827  11.701 -0.2570 -0.4890  0.2903
 7462TIP3    H143877   6.875   4.814  11.714 -0.6656 -2.6639  1.2929
 7462TIP3    H243878   6.743   4.815  11.788 -1.6727 -1.9604 -0.5020
 7463TIP3   OH243879   2.757   1.498  14.178 -0.0883 -0.1821 -0.5405
 7463TIP3    H143880   2.802   1.433  14.232 -1.0919 -0.4505 -0.0013
 7463TIP3    H243881   2.692   1.448  14.129  0.7727  0.0795 -1.9575
 7464TIP3   OH243882   6.641   4.336  15.604 -0.7957  0.3727 -0.1888
 7464TIP3    H143883   6.696   4.388  15.546  0.1248  0.2747  0.5919
 7464TIP3    H243884   6.557   4.381  15.604  0.3644  2.5810  1.4674
 7465TIP3   OH243885   2.040   1.030  14.105  0.0562  0.2212 -0.9554
 7465TIP3    H143886   2.031   1.055  14.013 -0.5055  0.1869 -0.9110
 7465TIP3    H243887   1.951   1.025  14.137  0.2735  0.7448 -0.2644
 7466TIP3   OH243888   0.915   3.775  16.144 -0.6417 -0.3355  0.3256
 7466TIP3    H143889   0.969   3.838  16.096 -0.1035 -0.7364  0.3925
 7466TIP3    H243890   0.859   3.829  16.199  1.3629  0.0508  2.0649
 7467TIP3   OH243891   6.680   3.786   5.348  1.1864 -0.3712  0.8615
 7467TIP3    H143892   6.608   3.850   5.348  0.3943 -1.2623  0.7653
 7467TIP3    H243893   6.711   3.787   5.438  0.7890 -0.2767  1.0028
 7468TIP3   OH243894   1.481   6.168   2.229  0.4667  0.1055 -0.3590
 7468TIP3    H143895   1.415   6.238   2.227 -0.0075 -0.3568 -2.1120
 7468TIP3    H243896   1.561   6.209   2.199  0.8950  0.5661  1.3685
 7469TIP3   OH243897   1.749   1.811  12.647 -0.1884  0.2186  0.3557
 7469TIP3    H143898   1.819   1.872  12.622 -2.0637  1.4978 -1.9502
 7469TIP3    H243899   1.794   1.728  12.659  2.0441  1.4506  0.9101
 7470TIP3   OH243900   2.536   6.203  13.410  0.2402  0.0018  0.1072
 7470TIP3    H143901   2.578   6.127  13.451  0.4663  0.6306  1.0663
 7470TIP3    H243902   2.525   6.178  13.318 -0.1388 -1.3857  0.5108
 7471TIP3   OH243903   3.860   1.158  11.954 -0.6463  0.5838 -0.0931
 7471TIP3    H143904   3.902   1.197  11.877 -0.2714  2.5739  1.0817
 7471TIP3    H243905   3.932   1.116  12.001 -0.9134 -0.8379 -0.9230
 7472TIP3   OH243906   1.550   0.445   2.392  0.6381  0.0562  0.3270
 7472TIP3    H143907   1.515   0.408   2.311  1.6061  0.6148 -0.3605
 7472TIP3    H243908   1.483   0.508   2.420 -0.0696 -0.7250  0.3995
 7473TIP3   OH243909   0.847   3.945   5.496 -0.0521 -0.0921 -0.4285
 7473TIP3    H143910   0.854   3.858   5.536 -1.7798 -0.2787 -0.5038
 7473TIP3    H243911   0.778   3.989   5.546 -0.3374  0.6423 -1.4598
 7474TIP3   OH243912   2.525   4.553   2.950  0.2007  0.3357  0.6097
 7474TIP3    H143913   2.531   4.458   2.942 -1.0704  0.1951  1.3157
 7474TIP3    H243914   2.592   4.586   2.889 -1.7158 -0.9516 -2.3208
 7475TIP3   OH243915   2.503   2.448   0.269  0.3367  0.0210 -0.1116
 7475TIP3    H143916   2.598   2.454   0.257  0.5963 -1.1773  1.1541
 7475TIP3    H243917   2.466   2.470   0.184  1.7995 -0.8595 -0.9913
 7476TIP3   OH243918   6.074   1.427  13.178 -0.4467  0.1082  0.4862
 7476TIP3    H143919   6.076   1.333  13.196  0.6241 -0.0747 -0.5374
 7476TIP3    H243920   6.036   1.434  13.091  1.1220  0.4974 -0.1896
 7477TIP3   OH243921   1.508   1.834  13.902 -0.4449 -0.2606 -0.0039
 7477TIP3    H143922   1.499   1.739  13.895  0.0097 -0.2473 -0.8548
 7477TIP3    H243923   1.545   1.861  13.818  1.4304  0.4224  1.0077
 7478TIP3   OH243924   0.678   0.530  11.181 -0.0136 -0.0372  0.2655
 7478TIP3    H143925   0.657   0.555  11.091 -1.2440 -1.7603  0.0466
 7478TIP3    H243926   0.669   0.435  11.183 -0.3196 -0.0027  2.2769
 7479TIP3   OH243927   0.575   1.460  13.284 -0.2971 -0.3023  0.1214
 7479TIP3    H143928   0.542   1.462  13.194  0.5881  0.7835 -0.1885
 7479TIP3    H243929   0.505   1.502  13.336 -1.4014 -2.1287  0.1634
 7480TIP3   OH243930   1.954   2.682   0.380  0.3341 -0.2482  0.2790
 7480TIP3    H143931   1.983   2.720   0.463  1.2162  0.1828 -0.2206
 7480TIP3    H243932   2.018   2.612   0.362  0.6366  0.2133 -0.4526
 7481TIP3   OH243933   0.980   0.604  16.751  0.7577 -0.1810 -0.5627
 7481TIP3    H143934   0.987   0.593  16.846 -0.1333  1.0760 -0.3316
 7481TIP3    H243935   1.058   0.654  16.727  0.1895  0.8961 -0.2315
 7482TIP3   OH243936   5.584   3.538  11.538 -0.1419 -0.0634 -0.7098
 7482TIP3    H143937   5.540   3.476  11.596 -1.2382  1.1076 -0.2679
 7482TIP3    H243938   5.524   3.612  11.531  0.3488  0.1968 -2.6642
 7483TIP3   OH243939   6.233   1.616   6.070 -0.0582  0.1060 -0.0026
 7483TIP3    H143940   6.289   1.560   6.015 -0.9574 -0.4973 -0.3257
 7483TIP3    H243941   6.292   1.684   6.103  1.5326 -2.2066  2.0961
 7484TIP3   OH243942   4.976   3.101  14.462 -0.4140 -0.1152 -0.2878
 7484TIP3    H143943   5.009   3.189  14.481  0.4164 -0.5122  0.1408
 7484TIP3    H243944   4.961   3.062  14.549 -0.0044 -0.6779 -0.4669
 7485TIP3   OH243945   6.795   1.118  15.614 -0.4018  0.4369  0.2634
 7485TIP3    H143946   6.732   1.085  15.550 -0.1921 -1.9548  1.2444
 7485TIP3    H243947   6.745   1.177  15.670 -1.0486  0.9412 -0.8309
 7486TIP3   OH243948   0.602   6.668  11.440  0.0510 -0.7016 -0.4422
 7486TIP3    H143949   0.599   6.662  11.535 -0.2712 -1.4421 -0.4940
 7486TIP3    H243950   0.662   6.598  11.413 -0.4702 -1.0126 -0.8212
 7487TIP3   OH243951   1.175   1.354  12.763 -0.3251 -0.0078  0.7073
 7487TIP3    H143952   1.122   1.412  12.709 -1.4130 -0.6693  1.0569
 7487TIP3    H243953   1.242   1.411  12.801 -0.4914  0.7414 -0.0985
 7488TIP3   OH243954   2.467   1.451  16.579  0.0049 -0.3789 -0.1056
 7488TIP3    H143955   2.409   1.526  16.561 -0.6803 -0.0279  3.1388
 7488TIP3    H243956   2.520   1.480  16.653  1.9843 -1.9875 -0.8515
 7489TIP3   OH243957   5.848   3.233   0.984  0.3767 -0.1109  0.0990
 7489TIP3    H143958   5.768   3.231   1.036 -0.9158 -2.3238 -1.8765
 7489TIP3    H243959   5.831   3.301   0.918 -0.4073 -1.4698 -1.1109
 7490TIP3   OH243960   4.074   6.787   6.571  0.1328 -0.2322  0.3211
 7490TIP3    H143961   4.014   6.861   6.564  0.1124 -0.2989 -0.2249
 7490TIP3    H243962   4.035   6.730   6.637 -0.4412 -0.3104 -0.0868
 7491TIP3   OH243963   6.085   2.655  14.153 -0.9959  0.4028  0.3830
 7491TIP3    H143964   6.113   2.704  14.076 -0.9527 -0.5180 -0.1812
 7491TIP3    H243965   6.165   2.615  14.186 -1.1637  0.1048  0.4230
 7492TIP3   OH243966   5.520   0.527  13.886  0.3130 -0.0899  0.3089
 7492TIP3    H143967   5.526   0.448  13.940  0.6446  0.4137  1.0272
 7492TIP3    H243968   5.481   0.498  13.804 -1.6796 -0.5848  1.4020
 7493TIP3   OH243969   2.856   3.712  11.953 -0.2762  0.4204  0.4852
 7493TIP3    H143970   2.864   3.626  11.994  1.3982 -0.6799 -2.0512
 7493TIP3    H243971   2.945   3.748  11.957 -0.3730  0.8428 -0.9539
 7494TIP3   OH243972   2.685   4.211  14.609  0.0662  0.0602  0.8175
 7494TIP3    H143973   2.595   4.196  14.580 -0.5454  0.2565  2.5046
 7494TIP3    H243974   2.713   4.289  14.562  0.5985 -1.9485 -2.3359
 7495TIP3   OH243975   1.618   2.920   3.648 -0.2428 -0.2726  0.3170
 7495TIP3    H143976   1.626   2.912   3.553 -1.4504  0.1682  0.1711
 7495TIP3    H243977   1.694   2.874   3.682  1.4639  1.5362 -0.9199
 7496TIP3   OH243978   5.601   6.130  14.684  0.1872  0.0308  0.4348
 7496TIP3    H143979   5.656   6.059  14.717 -0.3506 -0.4629  0.2687
 7496TIP3    H243980   5.512   6.101  14.700 -0.0468  0.3942 -0.1881
 7497TIP3   OH243981   5.299   6.442  11.858 -0.0417  0.3163 -0.6527
 7497TIP3    H143982   5.319   6.382  11.787 -1.6219 -1.7409  0.5586
 7497TIP3    H243983   5.230   6.498  11.823 -1.2173 -1.0565 -0.6074
 7498TIP3   OH243984   2.975   6.050   5.632  0.4371  0.0960  0.2882
 7498TIP3    H143985   2.973   6.063   5.727 -0.2860  0.9794  0.1547
 7498TIP3    H243986   2.963   5.956   5.621  0.3904  0.0059  1.0638
 7499TIP3   OH243987   4.698   2.323  17.224 -0.6621 -0.3882  0.8679
 7499TIP3    H143988   4.712   2.418  17.222  0.7624 -0.5900  0.6506
 7499TIP3    H243989   4.634   2.310  17.293 -1.3349  0.7918  0.4887
 7500TIP3   OH243990   5.600   2.445   4.907  0.6595  0.1214  0.1429
 7500TIP3    H143991   5.570   2.369   4.958 -1.5587  0.5078 -0.5431
 7500TIP3    H243992   5.669   2.410   4.851  0.8231 -1.0281  1.0316
 7501TIP3   OH243993   6.675   0.592   6.182 -0.6733  0.2603  0.5562
 7501TIP3    H143994   6.644   0.682   6.181 -0.2499  0.4151  0.9964
 7501TIP3    H243995   6.638   0.554   6.262 -2.1977 -0.4440 -0.4621
 7502TIP3   OH243996   1.614   1.307  16.160  0.0423 -0.0680 -0.0403
 7502TIP3    H143997   1.675   1.299  16.233  0.2636  0.5663 -0.1502
 7502TIP3    H243998   1.533   1.339  16.200  0.1437  0.2167 -0.0599
 7503TIP3   OH243999   1.931   2.892   5.685  0.4861  0.4641 -0.1310
 7503TIP3    H144000   1.894   2.980   5.684  0.6219  0.5452  1.4104
 7503TIP3    H244001   1.965   2.879   5.596 -0.1250  1.7079 -0.5500
 7504TIP3   OH244002   2.967   3.039   1.269 -0.2422 -0.2556  1.0275
 7504TIP3    H144003   3.048   3.080   1.300  0.1649 -0.1292 -0.1483
 7504TIP3    H244004   2.909   3.112   1.248  0.6263 -0.2118 -1.4422
 7505TIP3   OH244005   2.496   2.838  11.744 -0.6163  0.5287 -0.0724
 7505TIP3    H144006   2.499   2.889  11.663  0.5648 -2.2914 -1.8945
 7505TIP3    H244007   2.582   2.851  11.784 -0.4332  0.2339 -0.3679
 7506TIP3   OH244008   2.160   5.767  12.648  0.5896 -0.7778  0.4531
 7506TIP3    H144009   2.126   5.721  12.571 -1.9286 -0.5206  1.3580
 7506TIP3    H244010   2.162   5.700  12.717  0.5861 -0.4544  0.7656
 7507TIP3   OH244011   4.294   4.798  15.327  0.3913  0.0135  0.1718
 7507TIP3    H144012   4.249   4.868  15.374  0.6146 -0.2318  0.7542
 7507TIP3    H244013   4.371   4.841  15.288  0.6582  0.0468  0.7276
 7508TIP3   OH244014   2.350   1.402   4.213 -0.9167  0.0634 -0.4805
 7508TIP3    H144015   2.295   1.454   4.272  2.0750  2.6528  0.1491
 7508TIP3    H244016   2.376   1.462   4.144  6.4357  1.0790  2.7016
 7509TIP3   OH244017   3.869   3.769   1.282 -0.0280 -0.4021 -0.0811
 7509TIP3    H144018   3.867   3.838   1.348 -1.1329  0.2575 -0.7765
 7509TIP3    H244019   3.892   3.815   1.201  0.3146 -1.0371 -0.3476
 7510TIP3   OH244020   4.139   2.740  16.862  0.1654 -0.8571  0.6400
 7510TIP3    H144021   4.171   2.830  16.852 -2.8293  0.2103  0.2069
 7510TIP3    H244022   4.168   2.696  16.783  0.5905  0.0667  0.2643
 7511TIP3   OH244023   5.067   2.980  15.377 -0.1479 -0.9825  0.2508
 7511TIP3    H144024   5.136   2.928  15.419  1.1451 -0.9337 -1.7507
 7511TIP3    H244025   5.082   3.069  15.411  0.4327 -1.0766  0.2570
 7512TIP3   OH244026   2.115   3.135  11.675  0.4721 -0.5535  0.4259
 7512TIP3    H144027   2.072   3.056  11.643 -0.5320  0.1308  0.0779
 7512TIP3    H244028   2.122   3.192  11.599  0.4223  0.0336  0.8559
 7513TIP3   OH244029   2.076   3.823   0.228 -0.0686 -0.1812 -0.1589
 7513TIP3    H144030   2.054   3.878   0.303 -1.5631  0.6479 -1.1857
 7513TIP3    H244031   1.991   3.795   0.193  0.4839  1.5212 -3.0711
 7514TIP3   OH244032   0.874   0.842  12.123 -0.4353 -0.0595  0.7617
 7514TIP3    H144033   0.901   0.932  12.143  0.6842 -0.1827 -0.1007
 7514TIP3    H244034   0.957   0.794  12.115 -0.8623 -0.4500 -2.0370
 7515TIP3   OH244035   1.656   0.679   6.207 -0.0851 -0.0147 -0.2927
 7515TIP3    H144036   1.598   0.670   6.283  0.0336 -0.2952 -0.2318
 7515TIP3    H244037   1.735   0.721   6.243  0.4715 -1.2856  0.0025
 7516TIP3   OH244038   5.926   4.020   2.904  0.5088  0.3657 -0.2167
 7516TIP3    H144039   5.938   3.931   2.870  0.6889  0.4967 -0.5039
 7516TIP3    H244040   5.832   4.035   2.898  0.4812  0.2077 -0.2003
 7517TIP3   OH244041   4.514   4.190   3.440  0.2352  0.3043 -0.2347
 7517TIP3    H144042   4.583   4.225   3.496  0.5401 -0.4951 -0.1016
 7517TIP3    H244043   4.527   4.234   3.356  0.5187  0.6210 -0.0296
 7518TIP3   OH244044   4.134   2.905  15.847  0.1532  0.8911  0.3406
 7518TIP3    H144045   4.103   2.833  15.793  0.1449  2.2468 -1.5130
 7518TIP3    H244046   4.057   2.933  15.897 -0.2316  0.6293 -0.1031
 7519TIP3   OH244047   5.062   1.850   1.156 -0.1589 -0.3889 -0.0022
 7519TIP3    H144048   4.970   1.847   1.129 -0.3001  0.5883  0.3299
 7519TIP3    H244049   5.064   1.804   1.240 -0.3838 -0.2153  0.0984
 7520TIP3   OH244050   1.548   0.847  11.673 -0.7085  0.3719 -0.2307
 7520TIP3    H144051   1.454   0.828  11.679 -0.7679  0.6208 -0.3848
 7520TIP3    H244052   1.568   0.846  11.580 -0.6358  0.6857 -0.2210
 7521TIP3   OH244053   5.455   1.786  14.024 -0.1168  0.0865  0.2249
 7521TIP3    H144054   5.450   1.716  14.089  1.0287 -0.9618 -0.7953
 7521TIP3    H244055   5.525   1.760  13.965 -0.4671  1.5163 -0.8733
 7522TIP3   OH244056   0.611   0.562   2.177  0.1353  0.8579 -0.5754
 7522TIP3    H144057   0.641   0.576   2.267  0.1142 -2.6394  0.0677
 7522TIP3    H244058   0.689   0.576   2.123  0.7148  0.7559  0.2234
 7523TIP3   OH244059   5.869   2.543   5.254  0.2004 -0.1352  0.5421
 7523TIP3    H144060   5.913   2.622   5.223 -1.3855  0.4139 -0.3958
 7523TIP3    H244061   5.872   2.550   5.350 -0.1572  1.1997  0.4650
 7524TIP3   OH244062   0.649   6.395  14.016 -0.1150 -0.3114 -0.2755
 7524TIP3    H144063   0.705   6.456  14.065  0.2365 -0.9322  0.0965
 7524TIP3    H244064   0.586   6.452  13.972 -0.6028  0.2383  1.1215
 7525TIP3   OH244065   4.817   0.067   4.523 -0.3915 -0.6438  0.1866
 7525TIP3    H144066   4.799   0.114   4.604 -0.7188 -0.6505  0.1174
 7525TIP3    H244067   4.743   0.009   4.512  0.4871 -1.9016  0.7868
 7526TIP3   OH244068   2.315   3.354   1.508  0.5922 -0.3490  0.2047
 7526TIP3    H144069   2.230   3.367   1.549  0.2478 -1.1430 -0.2383
 7526TIP3    H244070   2.335   3.437   1.464  0.6842  0.3016  1.4514
 7527TIP3   OH244071   0.457   3.354   2.724  0.2551 -0.0689  0.1484
 7527TIP3    H144072   0.417   3.441   2.720  1.2289  0.3859  0.1853
 7527TIP3    H244073   0.392   3.300   2.769 -0.3429  0.6472  0.1553
 7528TIP3   OH244074   0.786   0.906  10.858  0.1091  0.4429  0.2124
 7528TIP3    H144075   0.780   0.931  10.765  0.4636 -0.3534 -0.0327
 7528TIP3    H244076   0.766   0.812  10.858  0.3458  0.3955  0.9144
 7529TIP3   OH244077   1.604   4.331   3.251 -0.3440  0.4792 -0.1261
 7529TIP3    H144078   1.519   4.329   3.294  0.7383  1.4469  2.0950
 7529TIP3    H244079   1.615   4.422   3.223  0.3337  0.5582  0.3764
 7530TIP3   OH244080   4.045   1.491  13.362 -0.2999  0.1698 -0.3501
 7530TIP3    H144081   4.069   1.580  13.337 -0.0793  0.3446  0.4586
 7530TIP3    H244082   4.127   1.441  13.354  0.2477  0.6583  1.9274
 7531TIP3   OH244083   5.512   4.391   3.084 -0.1273 -0.3989 -0.2200
 7531TIP3    H144084   5.482   4.477   3.114  0.8647  0.2440 -1.0043
 7531TIP3    H244085   5.435   4.352   3.042  0.3037  1.6546 -3.1323
 7532TIP3   OH244086   0.385   5.375  12.128 -0.3377  0.2069 -0.0766
 7532TIP3    H144087   0.406   5.430  12.052  2.3200  0.2361  0.6598
 7532TIP3    H244088   0.394   5.433  12.203 -2.0420 -0.0777  0.3844
 7533TIP3   OH244089   3.023   1.637   0.937 -0.2847 -0.6430 -0.5728
 7533TIP3    H144090   2.957   1.699   0.904  0.2869 -0.1113 -0.7320
 7533TIP3    H244091   2.976   1.584   1.001 -0.8791 -0.2876 -0.7090
 7534TIP3   OH244092   3.369   1.100   1.937  0.2404 -0.1657  0.5361
 7534TIP3    H144093   3.320   1.180   1.923  0.0575 -0.4130 -0.3177
 7534TIP3    H244094   3.382   1.064   1.849 -0.8644 -1.7735  1.0019
 7535TIP3   OH244095   1.918   2.222  16.847 -0.2867  0.2461  0.1496
 7535TIP3    H144096   1.996   2.200  16.898 -0.0577 -0.0785 -0.3501
 7535TIP3    H244097   1.903   2.315  16.866  0.2139  0.3081  0.2494
 7536TIP3   OH244098   5.329   4.265  15.080 -0.2485 -0.8149 -0.1442
 7536TIP3    H144099   5.293   4.351  15.058 -0.7456 -0.6580  1.2653
 7536TIP3    H244100   5.267   4.228  15.142  1.5584 -0.9044  1.6690
 7537TIP3   OH244101   3.355   4.684  14.941 -0.0764  0.2599 -0.3427
 7537TIP3    H144102   3.319   4.680  15.029 -0.1346 -0.1665 -0.3835
 7537TIP3    H244103   3.293   4.635  14.887  0.6548 -0.6348 -0.3768
 7538TIP3   OH244104   4.525   0.966   1.226 -0.4177  0.7966  0.3455
 7538TIP3    H144105   4.583   0.932   1.158 -1.4727 -0.0866 -0.1137
 7538TIP3    H244106   4.452   0.904   1.229 -1.5920  2.1703  0.5700
 7539TIP3   OH244107   2.984   5.418   1.414  0.0278 -0.8970  0.0694
 7539TIP3    H144108   3.003   5.475   1.488  0.2070  0.1767 -0.7938
 7539TIP3    H244109   2.926   5.351   1.450  1.6538 -1.5289  1.6496
 7540TIP3   OH244110   4.594   5.714   4.657 -0.3112  0.3624 -0.5343
 7540TIP3    H144111   4.686   5.688   4.666  0.1818  2.2314 -0.0738
 7540TIP3    H244112   4.588   5.757   4.572 -0.6315  0.7506 -0.3201
 7541TIP3   OH244113   3.983   4.348  14.867 -0.2312 -0.1492 -0.2694
 7541TIP3    H144114   3.959   4.298  14.945 -0.8276  0.4643 -0.0506
 7541TIP3    H244115   3.901   4.388  14.838 -0.1800 -1.0484 -1.7032
 7542TIP3   OH244116   4.768   6.729  11.317 -0.2315 -0.1319  0.1088
 7542TIP3    H144117   4.749   6.819  11.290 -0.4253 -0.0362  0.5617
 7542TIP3    H244118   4.705   6.676  11.268  1.0529 -0.1984 -1.5348
 7543TIP3   OH244119   5.750   1.683   5.168  0.2965 -0.1122 -0.6279
 7543TIP3    H144120   5.675   1.715   5.217  1.6460  0.3492  1.1854
 7543TIP3    H244121   5.717   1.607   5.120 -1.0244 -0.6480  1.1028
 7544TIP3   OH244122   5.843   2.521  14.131  0.0078  0.1326 -0.5245
 7544TIP3    H144123   5.779   2.547  14.197  0.8333 -1.1422  0.8123
 7544TIP3    H244124   5.927   2.550  14.167  0.1636  2.3124 -2.5377
 7545TIP3   OH244125   5.787   5.054  11.409  0.2030  0.2976  0.8707
 7545TIP3    H144126   5.846   4.986  11.377  0.4322  1.0228 -0.2843
 7545TIP3    H244127   5.793   5.124  11.344 -1.1103  0.8279  1.2898
 7546TIP3   OH244128   4.730   3.132   0.128 -0.6180  0.0076  0.3741
 7546TIP3    H144129   4.638   3.147   0.148 -0.7284  0.1112 -0.1773
 7546TIP3    H244130   4.731   3.117   0.033  0.1576  1.9777  0.0343
 7547TIP3   OH244131   5.213   3.399   4.616 -0.2974  0.1508  0.1679
 7547TIP3    H144132   5.302   3.422   4.587 -0.8963  0.2899 -1.6161
 7547TIP3    H244133   5.222   3.384   4.710  1.9024 -1.2941 -0.2348
 7548TIP3   OH244134   2.692   0.115   3.956  0.1669  0.0813  0.0662
 7548TIP3    H144135   2.767   0.162   3.921  0.9927 -0.8956  0.4973
 7548TIP3    H244136   2.627   0.183   3.976  0.7010  0.8684 -0.8704
 7549TIP3   OH244137   0.012   0.517  13.024 -0.4589  0.2992  0.0692
 7549TIP3    H144138  -0.013   0.425  13.012 -0.5764  0.0708  1.9993
 7549TIP3    H244139  -0.035   0.563  12.954 -0.2915 -1.1178 -1.0056
 7550TIP3   OH244140   1.343   6.074   0.582 -0.1701 -0.3944 -0.0963
 7550TIP3    H144141   1.323   6.089   0.675 -0.1819 -1.7660  0.1427
 7550TIP3    H244142   1.325   5.981   0.569  1.1625 -0.5148 -1.1484
 7551TIP3   OH244143   2.249   1.245  16.520  0.2059 -0.7156  0.1648
 7551TIP3    H144144   2.313   1.174  16.513 -0.3237 -1.2775  0.9785
 7551TIP3    H244145   2.299   1.320  16.551  0.6430 -0.9101 -0.0697
 7552TIP3   OH244146   2.735   1.305  11.735  0.0266  0.4590 -0.4270
 7552TIP3    H144147   2.805   1.303  11.800 -0.7951  0.0790  0.4725
 7552TIP3    H244148   2.656   1.323  11.787 -0.8011 -0.9899 -1.1757
 7553TIP3   OH244149   5.472   1.738  16.892 -0.2681 -0.1807 -0.3443
 7553TIP3    H144150   5.554   1.781  16.867 -0.5226 -0.3488 -1.4801
 7553TIP3    H244151   5.417   1.809  16.926 -0.6801  0.4080 -2.1896
 7554TIP3   OH244152   2.946   3.868   0.258 -0.0638 -0.0912 -0.9253
 7554TIP3    H144153   2.983   3.781   0.271 -1.2601 -0.6331 -1.0516
 7554TIP3    H244154   2.933   3.875   0.163  0.7040  0.5047 -0.9852
 7555TIP3   OH244155   4.349   3.834  11.091 -0.6050 -0.1116 -0.2101
 7555TIP3    H144156   4.282   3.901  11.075  0.1133  0.7275  0.2578
 7555TIP3    H244157   4.364   3.795  11.004 -0.5125  0.8312 -0.6250
 7556TIP3   OH244158   1.751   4.182   4.232 -0.6660 -0.2289 -0.2760
 7556TIP3    H144159   1.742   4.087   4.233 -2.0093 -0.1095  1.5304
 7556TIP3    H244160   1.806   4.200   4.156  1.4882 -2.6132  0.6476
 7557TIP3   OH244161   4.221   4.929   5.678  0.1355  0.1075 -0.2721
 7557TIP3    H144162   4.204   4.851   5.731  0.9944 -0.4185 -0.7547
 7557TIP3    H244163   4.291   4.974   5.724 -0.6287  0.8086  0.2151
 7558TIP3   OH244164   5.026   5.227  13.068  0.3346  0.6178 -0.1834
 7558TIP3    H144165   5.097   5.285  13.094  0.8434  0.0276 -0.2348
 7558TIP3    H244166   5.043   5.145  13.116  1.4622 -0.5994 -2.5615
 7559TIP3   OH244167   3.032   6.795  11.208  0.0742 -0.4266 -0.6426
 7559TIP3    H144168   3.071   6.830  11.288  0.7204 -0.7042 -0.8430
 7559TIP3    H244169   3.016   6.873  11.154 -1.6871 -0.0770  0.3293
 7560TIP3   OH244170   3.866   4.297   4.323  0.2251  0.1295  0.5689
 7560TIP3    H144171   3.889   4.389   4.337 -0.7987  0.1856  2.1487
 7560TIP3    H244172   3.825   4.295   4.237 -0.7690  1.3895  0.9840
 7561TIP3   OH244173   0.343   0.337  14.659  0.8218 -0.2490  0.0626
 7561TIP3    H144174   0.269   0.391  14.631  1.5177 -0.0016 -1.3061
 7561TIP3    H244175   0.373   0.380  14.740  0.4026  0.5099 -0.1732
 7562TIP3   OH244176   5.683   4.074   4.644  0.6246 -0.3950 -0.1180
 7562TIP3    H144177   5.613   4.104   4.585  0.9081 -0.6353 -0.5821
 7562TIP3    H244178   5.755   4.136   4.629 -0.1509  1.0315  1.7788
 7563TIP3   OH244179   1.380   1.707   0.773  0.5577  0.4483 -0.4110
 7563TIP3    H144180   1.400   1.798   0.797 -0.8196  0.6610 -0.0373
 7563TIP3    H244181   1.409   1.700   0.682  1.5638  0.9775 -0.1451
 7564TIP3   OH244182   5.611   6.526  15.023 -0.0666 -0.2243 -0.4698
 7564TIP3    H144183   5.560   6.576  15.087  0.3151  0.5445 -0.7547
 7564TIP3    H244184   5.581   6.559  14.938  1.7602  1.0933 -0.6135
 7565TIP3   OH244185   0.906   6.521  14.157  0.1669 -0.0010  0.2028
 7565TIP3    H144186   0.849   6.569  14.096 -1.5073 -0.8884  1.0369
 7565TIP3    H244187   0.973   6.482  14.101 -0.5244  0.3689 -0.9028
 7566TIP3   OH244188   3.223   0.931  11.006  0.4532 -0.5489 -0.5701
 7566TIP3    H144189   3.295   0.870  10.994 -1.2449 -2.3676 -1.8532
 7566TIP3    H244190   3.160   0.883  11.060  0.0142  0.8680  0.2044
 7567TIP3   OH244191   2.429   1.046   0.800 -0.1314  1.1927 -0.0242
 7567TIP3    H144192   2.379   1.106   0.745  1.6569  0.7688 -2.2414
 7567TIP3    H244193   2.508   1.095   0.823 -0.3755  0.9819  1.2875
 7568TIP3   OH244194   0.503   1.736   3.488  0.0125  0.4711 -0.2639
 7568TIP3    H144195   0.555   1.779   3.555 -0.6844 -0.1858  0.7185
 7568TIP3    H244196   0.484   1.649   3.523  1.1570 -0.5551 -2.0952
 7569TIP3   OH244197   1.063   3.984  16.014  0.6221  0.6518  0.3260
 7569TIP3    H144198   1.111   4.066  16.003 -0.8799  1.4622 -0.2735
 7569TIP3    H244199   0.996   3.986  15.946  0.0433 -0.6858  0.8459
 7570TIP3   OH244200   3.425   2.481  15.799 -0.0294  0.3582  0.0145
 7570TIP3    H144201   3.351   2.421  15.801  0.5630 -0.4141 -1.2508
 7570TIP3    H244202   3.496   2.434  15.843 -0.3225  1.1866  1.4374
 7571TIP3   OH244203   5.258   3.821  12.227  0.5024  0.5780  0.0804
 7571TIP3    H144204   5.220   3.786  12.146  1.0042 -1.9837  0.9114
 7571TIP3    H244205   5.199   3.892  12.252 -1.2603 -0.4554 -1.0322
 7572TIP3   OH244206   2.558   0.095  17.228 -0.5409 -0.4209  0.1317
 7572TIP3    H144207   2.615   0.135  17.294 -0.9549 -2.5221  1.8284
 7572TIP3    H244208   2.470   0.126  17.250 -0.4763  0.1916 -0.4617
 7573TIP3   OH244209   0.167   0.794  16.826  0.2131 -0.3805  0.0076
 7573TIP3    H144210   0.089   0.758  16.869 -1.4941  1.0468 -1.7857
 7573TIP3    H244211   0.164   0.758  16.737  2.3017 -1.2910  0.2916
 7574TIP3   OH244212   3.412   0.450   1.544 -0.5428  0.4888  0.3727
 7574TIP3    H144213   3.332   0.479   1.589 -1.7842  0.0488 -1.4822
 7574TIP3    H244214   3.380   0.400   1.469  1.5040 -0.2590 -0.0332
 7575TIP3   OH244215   4.218   1.332  12.060  0.0990  0.2215  0.0489
 7575TIP3    H144216   4.238   1.418  12.024 -0.9683  0.4863  0.0912
 7575TIP3    H244217   4.273   1.272  12.009 -1.1255  0.6234 -1.8087
 7576TIP3   OH244218   6.329   5.716  12.328 -0.3627  0.2359  0.3736
 7576TIP3    H144219   6.282   5.798  12.313  0.1215  0.5721  0.6942
 7576TIP3    H244220   6.265   5.647  12.310 -0.1336  0.6467 -2.2233
 7577TIP3   OH244221   3.969   3.336  12.629 -0.3890 -0.0720  0.5803
 7577TIP3    H144222   3.951   3.430  12.625  0.4963  0.0099 -2.6491
 7577TIP3    H244223   3.889   3.294  12.597 -0.1651 -0.3356  0.3602
 7578TIP3   OH244224   0.017   2.501   5.775 -0.3671  0.3131  0.3058
 7578TIP3    H144225  -0.014   2.574   5.829 -0.3834  0.0309  0.6834
 7578TIP3    H244226  -0.027   2.512   5.691  0.2735  1.2099  0.0830
 7579TIP3   OH244227   0.301   1.007  17.066 -0.5167 -0.2342 -0.8590
 7579TIP3    H144228   0.255   1.012  16.982 -2.6196 -1.8996  0.1621
 7579TIP3    H244229   0.273   0.924  17.104  2.2073 -0.5943  0.4887
 7580TIP3   OH244230   2.969   6.044  13.278  0.0448  0.1272  0.0199
 7580TIP3    H144231   2.923   5.962  13.295  1.0427 -0.4624 -0.1046
 7580TIP3    H244232   2.951   6.099  13.355 -1.6655  0.2689 -0.4643
 7581TIP3   OH244233   2.036   6.646  12.009  0.4382 -0.0531 -0.0288
 7581TIP3    H144234   2.056   6.590  11.935  1.3207 -0.2955  0.3838
 7581TIP3    H244235   2.009   6.586  12.079 -1.8892  0.2729 -0.6052
 7582TIP3   OH244236   5.910   1.639  10.873  0.7706  0.3939  0.0828
 7582TIP3    H144237   5.842   1.584  10.911  0.4403 -1.1603 -2.6505
 7582TIP3    H244238   5.883   1.728  10.894 -2.0460 -0.2120 -0.8710
 7583TIP3   OH244239   1.169   0.763  11.305 -0.1112  0.0898 -0.6007
 7583TIP3    H144240   1.102   0.810  11.355 -0.1467 -0.9141  0.3127
 7583TIP3    H244241   1.205   0.829  11.246 -1.8140  0.6693 -1.0097
 7584TIP3   OH244242   6.730   6.650  16.536  0.2426  0.0561 -0.2928
 7584TIP3    H144243   6.672   6.660  16.460  0.7114  1.4584 -0.5020
 7584TIP3    H244244   6.818   6.647  16.498  0.4099 -0.2577  0.1234
 7585TIP3   OH244245   2.771   5.840  14.085  0.1795  0.1898 -0.0807
 7585TIP3    H144246   2.779   5.746  14.068  1.2321  0.3609 -0.5429
 7585TIP3    H244247   2.812   5.882  14.010 -0.9693  1.0424 -0.2466
 7586TIP3   OH244248   6.484   1.662   0.667  0.4829  0.0362  0.6157
 7586TIP3    H144249   6.398   1.623   0.650  0.2678 -0.9259  3.6440
 7586TIP3    H244250   6.538   1.588   0.697  1.6615  1.0869  1.0965
 7587TIP3   OH244251   3.925   2.651  15.811  0.2895 -0.0936  0.2059
 7587TIP3    H144252   3.893   2.562  15.824  0.5985 -0.4272 -1.2264
 7587TIP3    H244253   3.847   2.706  15.824  0.0210 -0.5874  0.7353
 7588TIP3   OH244254   2.336   5.305   2.571  0.5560  0.0138  0.4820
 7588TIP3    H144255   2.330   5.341   2.483 -1.3558 -0.3925  0.4349
 7588TIP3    H244256   2.329   5.210   2.560  1.2241 -0.1060  0.9982
 7589TIP3   OH244257   5.992   2.262   0.163 -0.0232  0.0317  0.4826
 7589TIP3    H144258   5.910   2.221   0.134  0.0681  0.0942  0.1243
 7589TIP3    H244259   6.018   2.317   0.089  0.4315 -0.1216  0.5254
 7590TIP3   OH244260   0.319   3.651  14.051  0.2882 -0.3115  0.1297
 7590TIP3    H144261   0.237   3.635  14.004  0.7826 -0.7629 -0.5939
 7590TIP3    H244262   0.352   3.564  14.072 -0.0491 -0.1065  1.5459
 7591TIP3   OH244263   3.983   3.246  14.748  0.1843 -0.8915  0.0605
 7591TIP3    H144264   4.032   3.166  14.731  0.7000 -0.8286  1.2659
 7591TIP3    H244265   3.995   3.263  14.841  1.1054  1.2668 -0.4182
 7592TIP3   OH244266   1.084   1.706  12.652 -0.5166 -0.2712  0.1192
 7592TIP3    H144267   1.164   1.726  12.700  1.2924 -1.5684 -2.2099
 7592TIP3    H244268   1.085   1.766  12.577 -0.7600 -1.5548 -0.9291
 7593TIP3   OH244269   6.080   1.336   5.443  0.0760  0.2482  1.0486
 7593TIP3    H144270   6.091   1.243   5.463 -1.4553 -0.2014 -0.0785
 7593TIP3    H244271   6.151   1.356   5.382  1.2390  0.1781  2.3562
 7594TIP3   OH244272   5.057   3.165  17.075 -0.1981 -0.5454  0.5975
 7594TIP3    H144273   4.975   3.185  17.031 -0.3526  0.1946  1.2039
 7594TIP3    H244274   5.079   3.245  17.123  1.3904 -0.3868 -0.3522
 7595TIP3   OH244275   3.183   0.980  10.705 -1.0086 -0.6361  0.1435
 7595TIP3    H144276   3.245   1.012  10.640  0.0585 -1.6349  0.6528
 7595TIP3    H244277   3.154   0.896  10.671 -0.5361 -1.1057  0.8963
 7596TIP3   OH244278   0.728   5.548  17.117  0.1765 -0.0909 -0.4864
 7596TIP3    H144279   0.639   5.552  17.151  0.4517  0.1565  0.2256
 7596TIP3    H244280   0.719   5.559  17.022 -0.4404  1.1321 -0.2914
 7597TIP3   OH244281   1.451   4.138  14.083 -0.3309  0.2131  0.4247
 7597TIP3    H144282   1.515   4.090  14.135 -2.3042 -2.2022  0.7011
 7597TIP3    H244283   1.502   4.206  14.040  1.9254  0.1505  2.8470
 7598TIP3   OH244284   4.200   1.175   6.027 -0.1138 -0.4931 -0.7624
 7598TIP3    H144285   4.223   1.242   6.091  0.3524 -0.0153 -1.4138
 7598TIP3    H244286   4.257   1.101   6.046  1.4321  0.3834 -1.8590
 7599TIP3   OH244287   5.239   3.768   1.585  0.2216 -0.0188 -0.2002
 7599TIP3    H144288   5.328   3.737   1.601  0.0510 -0.6896 -0.5325
 7599TIP3    H244289   5.203   3.707   1.521 -2.2555 -2.8855  3.6781
 7600TIP3   OH244290   4.726   3.251  12.977 -0.7094 -0.1899 -0.1091
 7600TIP3    H144291   4.719   3.157  12.963  0.1437 -0.4260  0.9956
 7600TIP3    H244292   4.807   3.276  12.933  0.0545 -0.3056  1.2147
 7601TIP3   OH244293   1.838   2.748  10.705  0.4379 -0.2194  0.2935
 7601TIP3    H144294   1.877   2.805  10.772  2.2027 -1.2414  0.1855
 7601TIP3    H244295   1.837   2.661  10.746 -1.0368 -0.3587 -0.0134
 7602TIP3   OH244296   1.999   3.283   2.098  0.0753  0.6551  0.0534
 7602TIP3    H144297   2.077   3.325   2.135  2.3808 -0.7962 -2.8801
 7602TIP3    H244298   1.998   3.195   2.136  1.5008 -0.2624 -1.9099
 7603TIP3   OH244299   3.599   4.691  11.687  0.4929 -0.4004 -0.1598
 7603TIP3    H144300   3.616   4.769  11.739 -0.5075 -1.0848  1.2273
 7603TIP3    H244301   3.504   4.680  11.692  0.8367 -2.9490  1.5051
 7604TIP3   OH244302   3.175   1.160  11.608 -0.1744 -0.0183 -0.1059
 7604TIP3    H144303   3.209   1.106  11.536 -0.5130  1.6801 -1.5977
 7604TIP3    H244304   3.107   1.107  11.649  0.0909 -1.0538 -0.9865
 7605TIP3   OH244305   4.922   0.887  13.192 -0.1812 -0.4533 -0.1954
 7605TIP3    H144306   4.965   0.803  13.205  1.3889  0.8814  3.9158
 7605TIP3    H244307   4.831   0.872  13.219  0.1941 -0.7573  0.9262
 7606TIP3   OH244308   6.653   5.625   4.962  0.1819  0.6507  0.3678
 7606TIP3    H144309   6.601   5.595   5.037  1.1426  0.9395  1.1567
 7606TIP3    H244310   6.740   5.588   4.977  0.6288  1.5077 -0.1155
 7607TIP3   OH244311   2.800   5.247  14.075 -0.7760  0.8384 -0.0681
 7607TIP3    H144312   2.884   5.240  14.028 -0.1900 -0.8432  1.1816
 7607TIP3    H244313   2.825   5.264  14.166 -1.8532  1.6659  0.0824
 7608TIP3   OH244314   5.988   0.770  11.298  0.0631  0.0085  0.2189
 7608TIP3    H144315   6.051   0.748  11.230 -0.0730  0.0503  0.0786
 7608TIP3    H244316   5.992   0.697  11.360 -0.4226 -0.4300 -0.2674
 7609TIP3   OH244317   0.492   3.463  16.094 -0.0077 -0.5189 -0.0272
 7609TIP3    H144318   0.587   3.465  16.104  0.0692  0.0229 -0.7950
 7609TIP3    H244319   0.466   3.379  16.131  0.7315 -0.5180  0.5133
 7610TIP3   OH244320   6.046   2.728  12.437 -0.1129 -0.9593  0.3022
 7610TIP3    H144321   6.039   2.642  12.394  0.4841 -0.8578 -0.0144
 7610TIP3    H244322   6.015   2.790  12.372  1.8041 -0.7008 -0.4014
 7611TIP3   OH244323   4.056   4.180  11.370  0.0892 -0.2172  0.2284
 7611TIP3    H144324   4.118   4.199  11.441  0.9524  0.6374 -0.7445
 7611TIP3    H244325   3.973   4.215  11.402  0.7296  1.2590  0.3328
 7612TIP3   OH244326   6.576   1.763   1.070  0.3375 -0.0583 -0.1099
 7612TIP3    H144327   6.556   1.855   1.083  0.7370 -0.0626  0.5761
 7612TIP3    H244328   6.510   1.732   1.009 -0.3249  0.4773  0.3346
 7613TIP3   OH244329   4.743   5.233  16.776 -0.3407 -0.0670  0.3568
 7613TIP3    H144330   4.732   5.268  16.688 -0.1642 -1.6722 -0.3253
 7613TIP3    H244331   4.827   5.186  16.773 -0.1991  0.1013  1.4496
 7614TIP3   OH244332   5.765   3.496   1.118  0.2494 -0.1643 -0.3668
 7614TIP3    H144333   5.712   3.429   1.162  0.2689  0.9294  1.3899
 7614TIP3    H244334   5.802   3.547   1.190 -0.5292  2.3347 -1.7055
 7615TIP3   OH244335   3.671   2.857  14.302 -0.0996 -0.3273  0.1972
 7615TIP3    H144336   3.643   2.802  14.375  0.6063  0.2529  0.9311
 7615TIP3    H244337   3.601   2.850  14.238 -0.8853 -0.6051  1.0643
 7616TIP3   OH244338   1.988   2.898  15.603 -0.4787  0.1536  0.3458
 7616TIP3    H144339   2.019   2.852  15.681  0.0703 -0.9284 -0.4816
 7616TIP3    H244340   2.060   2.955  15.578 -0.3529 -0.0556  0.2184
 7617TIP3   OH244341   0.741   6.593   1.106  0.3205  0.3276  0.6310
 7617TIP3    H144342   0.749   6.597   1.010 -3.1280 -2.8746  0.1035
 7617TIP3    H244343   0.794   6.517   1.131  2.2092  1.8681  1.4937
 7618TIP3   OH244344   4.869   4.802  14.758 -0.3453 -0.1482  0.2794
 7618TIP3    H144345   4.806   4.833  14.823  0.2500 -0.3563  0.9642
 7618TIP3    H244346   4.949   4.851  14.776  0.3850 -1.5457  0.9218
 7619TIP3   OH244347   6.056   0.359  16.138 -0.2618  0.6892 -0.1712
 7619TIP3    H144348   6.047   0.264  16.142  0.7341  0.4178 -3.3046
 7619TIP3    H244349   6.101   0.382  16.219 -0.8838 -1.4478  0.8259
 7620TIP3   OH244350   1.668   6.282   1.933 -0.1790 -0.1191  0.6848
 7620TIP3    H144351   1.723   6.210   1.901 -0.9043  0.3498 -1.6929
 7620TIP3    H244352   1.724   6.359   1.929 -0.7069  0.1948 -0.8621
 7621TIP3   OH244353   4.046   3.943   2.784  0.3313  0.7174 -0.0112
 7621TIP3    H144354   4.005   3.872   2.833  0.2513  0.8640  0.1361
 7621TIP3    H244355   4.069   3.904   2.700 -3.7998  1.6178 -1.6918
 7622TIP3   OH244356   0.919   4.692   4.756 -0.1035  0.0400 -0.0022
 7622TIP3    H144357   0.914   4.651   4.842  1.7891  1.0539  0.6218
 7622TIP3    H244358   1.007   4.670   4.724 -0.5845  0.1555 -1.4162
 7623TIP3   OH244359   4.666   0.607   3.804  0.3138 -0.1960 -0.1933
 7623TIP3    H144360   4.572   0.602   3.788  0.1977  0.7445  0.1885
 7623TIP3    H244361   4.703   0.639   3.722  0.1960  0.3485 -0.0363
 7624TIP3   OH244362   4.581   0.953  15.493  0.6167  0.6440 -0.0887
 7624TIP3    H144363   4.543   1.000  15.567  0.8991  0.7451 -0.0083
 7624TIP3    H244364   4.625   1.020  15.441 -0.9287  0.8285 -1.2068
 7625TIP3   OH244365   2.789   4.167  17.074  0.1939 -0.4773 -0.2408
 7625TIP3    H144366   2.725   4.238  17.083  0.7754  0.1314 -0.8708
 7625TIP3    H244367   2.771   4.130  16.987  0.5863 -0.4143 -0.3490
 7626TIP3   OH244368   0.469   4.469   2.612 -0.5109  0.3353  0.0649
 7626TIP3    H144369   0.510   4.448   2.529  1.5039  1.0982  0.8488
 7626TIP3    H244370   0.452   4.384   2.653  0.3593  0.0236 -0.2223
 7627TIP3   OH244371   5.560   5.703  13.302  0.3447 -0.0222  0.0337
 7627TIP3    H144372   5.557   5.792  13.336 -0.3505  0.1890 -0.5732
 7627TIP3    H244373   5.533   5.711  13.210 -1.4568 -1.0777  0.4461
 7628TIP3   OH244374   2.673   0.193  11.971  0.0068  0.7717 -0.3772
 7628TIP3    H144375   2.729   0.236  12.036  0.5408 -1.3258  0.5697
 7628TIP3    H244376   2.729   0.126  11.932 -1.8221 -1.3367  0.5612
 7629TIP3   OH244377   1.760   2.161   5.120 -0.0646  0.2158  0.4821
 7629TIP3    H144378   1.697   2.151   5.048  1.6316  0.4080 -1.0667
 7629TIP3    H244379   1.846   2.156   5.077  0.9803  3.3751  2.0688
 7630TIP3   OH244380   5.332   3.045  17.072 -0.3918 -0.2307 -0.5244
 7630TIP3    H144381   5.340   3.051  16.977 -2.4202  1.0065 -0.6433
 7630TIP3    H244382   5.249   3.088  17.093  0.2455 -0.0446  1.8580
 7631TIP3   OH244383   0.210   3.229  15.859  0.4471 -0.1059 -0.3154
 7631TIP3    H144384   0.266   3.304  15.877  1.5773 -0.8398 -0.7274
 7631TIP3    H244385   0.163   3.213  15.941  1.5691 -0.0885  0.3363
 7632TIP3   OH244386   2.321   2.774  15.600 -0.2843  0.1463 -0.2358
 7632TIP3    H144387   2.331   2.693  15.650 -0.5222 -0.2568 -0.8328
 7632TIP3    H244388   2.295   2.840  15.665 -1.7290 -0.6258 -0.0144
 7633TIP3   OH244389   5.798   6.145  15.238 -0.4509  0.0380 -0.4448
 7633TIP3    H144390   5.812   6.169  15.330 -1.6139 -0.5530 -0.0970
 7633TIP3    H244391   5.752   6.220  15.201 -0.2655  0.1413 -0.4664
 7634TIP3   OH244392   0.660   1.699   6.134 -0.3368 -0.3081  0.2175
 7634TIP3    H144393   0.735   1.758   6.136 -1.3477  1.0186  0.2404
 7634TIP3    H244394   0.664   1.651   6.216  2.5654 -2.9461 -1.4080
 7635TIP3   OH244395   1.015   0.282  15.323 -0.7019 -0.2981 -0.3451
 7635TIP3    H144396   1.103   0.254  15.348 -0.8007 -1.0504 -0.8441
 7635TIP3    H244397   0.957   0.236  15.384 -0.8198 -0.6969 -0.7524
 7636TIP3   OH244398   1.404   3.925  14.609  0.1299 -0.1254  0.0563
 7636TIP3    H144399   1.456   3.983  14.554  0.1514 -0.6011 -0.4357
 7636TIP3    H244400   1.448   3.839  14.601 -0.2283 -0.3337  0.3196
 7637TIP3   OH244401   1.500   5.397  11.841 -0.5272 -0.1657  0.4273
 7637TIP3    H144402   1.409   5.425  11.837 -0.3459  0.5422  1.1768
 7637TIP3    H244403   1.513   5.347  11.761 -1.6951 -0.6267  0.5112
 7638TIP3   OH244404   3.710   1.849   5.690  0.3487 -0.2916 -0.0238
 7638TIP3    H144405   3.720   1.944   5.700 -1.2736  0.1336 -2.0784
 7638TIP3    H244406   3.615   1.836   5.680  0.7544 -1.8687 -2.0405
 7639TIP3   OH244407   5.757   5.561   3.069 -0.9671  0.1731  0.4476
 7639TIP3    H144408   5.840   5.523   3.040 -1.1438 -0.5821  0.9254
 7639TIP3    H244409   5.738   5.518   3.152 -1.4093  0.9661  0.7618
 7640TIP3   OH244410   6.397   0.727  13.737 -0.1843 -0.0592 -0.0500
 7640TIP3    H144411   6.363   0.716  13.648 -0.4342 -0.5106  0.0957
 7640TIP3    H244412   6.321   0.751  13.790 -0.6800 -2.8872  0.6273
 7641TIP3   OH244413   1.197   3.398  14.709  0.1532 -0.0852 -0.1297
 7641TIP3    H144414   1.167   3.312  14.737  3.5366 -1.9481 -1.9572
 7641TIP3    H244415   1.220   3.387  14.617  2.8460  2.1255  0.2076
 7642TIP3   OH244416   5.021   2.932  11.854 -0.0033 -0.2177  0.4226
 7642TIP3    H144417   5.018   2.972  11.768  1.1342 -0.7286  0.1264
 7642TIP3    H244418   4.972   2.850  11.845  1.9482 -1.3386 -0.3497
 7643TIP3   OH244419   6.131   5.799   2.005 -0.4786  0.1815  0.0215
 7643TIP3    H144420   6.216   5.826   2.040 -0.3070 -0.0912 -0.1836
 7643TIP3    H244421   6.150   5.767   1.917 -0.6881 -0.5323  0.2316
 7644TIP3   OH244422   6.165   6.189   0.691 -0.4508 -0.3488  0.0935
 7644TIP3    H144423   6.220   6.211   0.767 -0.3763  1.1605 -0.3840
 7644TIP3    H244424   6.225   6.146   0.630  0.2181  1.2229 -0.3949
 7645TIP3   OH244425   1.067   3.597   0.774 -0.0816  0.3975 -0.3706
 7645TIP3    H144426   1.059   3.688   0.747  0.5118  0.4286 -0.4325
 7645TIP3    H244427   1.059   3.599   0.869  0.8227  0.6052 -0.3020
 7646TIP3   OH244428   4.784   5.691   2.890  0.9786  0.1829 -0.1332
 7646TIP3    H144429   4.773   5.723   2.800  0.2678  0.4738  0.0550
 7646TIP3    H244430   4.697   5.662   2.916  1.0264  0.7920  0.7311
 7647TIP3   OH244431   2.225   6.431   1.196  0.1661 -0.4552 -0.0757
 7647TIP3    H144432   2.317   6.452   1.214  0.5789 -2.0589 -0.2171
 7647TIP3    H244433   2.223   6.335   1.195 -1.2739 -0.4164 -1.3018
 7648TIP3   OH244434   0.300   4.644   1.273 -0.2766 -0.2522 -0.6938
 7648TIP3    H144435   0.320   4.578   1.339  0.5500  1.0461  0.3653
 7648TIP3    H244436   0.379   4.650   1.220  0.3559  1.2349  0.3837
 7649TIP3   OH244437   6.759   6.268  12.406 -0.2697  0.0754 -0.6550
 7649TIP3    H144438   6.788   6.281  12.496 -1.9856 -1.2245  0.1122
 7649TIP3    H244439   6.826   6.311  12.353  1.6503 -0.5977  1.1583
 7650TIP3   OH244440   3.281   2.983  14.035  0.0499 -0.0393 -0.3950
 7650TIP3    H144441   3.339   2.908  14.046 -1.0357 -1.4154 -3.2330
 7650TIP3    H244442   3.338   3.054  14.004  1.0471  0.2886  2.1075
 7651TIP3   OH244443   5.460   0.795   4.096  0.3571 -0.1981 -0.6056
 7651TIP3    H144444   5.522   0.750   4.038  0.8289 -1.0430  0.5222
 7651TIP3    H244445   5.474   0.754   4.181 -0.1207  1.2247  0.1722
 7652TIP3   OH244446   0.577   2.245   5.887  0.4770  0.3961 -0.0676
 7652TIP3    H144447   0.540   2.319   5.840 -0.4671  0.6626  1.0727
 7652TIP3    H244448   0.586   2.177   5.821 -0.8317  0.7584 -0.6436
 7653TIP3   OH244449   5.236   6.344   0.276  0.0355  0.2010  0.4895
 7653TIP3    H144450   5.251   6.438   0.280 -0.8863  0.3102  1.5242
 7653TIP3    H244451   5.222   6.318   0.367 -0.8864 -0.7413  0.0885
 7654TIP3   OH244452   4.209   0.480   2.695  0.3493  0.0132  0.1043
 7654TIP3    H144453   4.285   0.537   2.706  1.1396 -0.9237 -0.4100
 7654TIP3    H244454   4.183   0.492   2.603  0.1462  0.0130  0.1618
 7655TIP3   OH244455   5.210   5.735   4.222  0.0991  0.6719 -0.3440
 7655TIP3    H144456   5.212   5.831   4.223 -0.5748  0.6718  1.0008
 7655TIP3    H244457   5.143   5.712   4.286 -0.3073 -0.6881 -1.2412
 7656TIP3   OH244458   4.833   2.134   2.453 -0.3033  0.0062  0.4712
 7656TIP3    H144459   4.806   2.220   2.485  0.2595  0.1561  0.5455
 7656TIP3    H244460   4.928   2.139   2.450 -0.3640  0.4294 -2.3712
 7657TIP3   OH244461   0.768   3.546   2.525 -0.3575 -0.0399  0.6328
 7657TIP3    H144462   0.764   3.532   2.620  0.3183  2.3864  1.0446
 7657TIP3    H244463   0.685   3.586   2.502  0.3610  1.4184  0.5612
 7658TIP3   OH244464   5.401   0.198  16.610 -0.1377 -0.6175 -0.8034
 7658TIP3    H144465   5.332   0.200  16.543  2.5036  0.8402 -3.5637
 7658TIP3    H244466   5.482   0.186  16.561  1.9230  0.7864  2.1211
 7659TIP3   OH244467   1.501   4.829  13.490  0.3165  0.2554 -0.3220
 7659TIP3    H144468   1.493   4.745  13.535  0.1999  0.4559  0.0307
 7659TIP3    H244469   1.592   4.831  13.460  0.2736 -0.0714 -0.4816
 7660TIP3   OH244470   6.292   4.633   3.792  0.3669  0.3519  0.6457
 7660TIP3    H144471   6.221   4.571   3.776 -1.4058  2.1011  1.5493
 7660TIP3    H244472   6.297   4.685   3.712 -0.4614  1.2798  1.1916
 7661TIP3   OH244473   5.649   6.028  12.771 -1.0120  0.3836  0.0810
 7661TIP3    H144474   5.725   6.079  12.742  0.7104 -1.7621  0.7082
 7661TIP3    H244475   5.619   6.074  12.850 -0.3240  1.2147 -0.1293
 7662TIP3   OH244476   2.151   0.083  11.610  0.2185 -0.0650  0.5165
 7662TIP3    H144477   2.059   0.065  11.589 -0.0485  1.0283  0.7116
 7662TIP3    H244478   2.199   0.009  11.574 -0.6063  0.0233 -0.7762
 7663TIP3   OH244479   5.356   2.316   1.605 -0.0482 -0.1478  0.3076
 7663TIP3    H144480   5.425   2.314   1.671 -0.7071  0.2374  1.0241
 7663TIP3    H244481   5.370   2.236   1.554 -0.8910 -1.6695  2.3561
 7664TIP3   OH244482   3.091   1.249   5.718  0.0658  0.0081 -0.3898
 7664TIP3    H144483   3.157   1.212   5.658  0.7075  1.0315 -0.3298
 7664TIP3    H244484   3.095   1.193   5.795 -1.0019 -1.5243 -1.4172
 7665TIP3   OH244485   0.717   6.241   5.804  0.1060 -0.1480 -0.1861
 7665TIP3    H144486   0.771   6.222   5.727 -2.0161 -1.3108 -1.4387
 7665TIP3    H244487   0.738   6.172   5.867  0.2763 -0.4410 -0.5634
 7666TIP3   OH244488   2.744   6.133  12.830  0.2792  0.0414 -0.3793
 7666TIP3    H144489   2.703   6.046  12.832 -1.2852  0.7746  0.1608
 7666TIP3    H244490   2.761   6.149  12.737 -1.1094 -0.0789 -0.6602
 7667TIP3   OH244491   2.082   6.201  14.712 -0.3236  0.0386 -0.2427
 7667TIP3    H144492   2.062   6.294  14.719  0.5064  0.2391 -0.5369
 7667TIP3    H244493   2.116   6.177  14.798 -3.5473 -0.7460  0.9182
 7668TIP3   OH244494   0.172   2.852  11.736  0.1494 -0.0154  0.4125
 7668TIP3    H144495   0.079   2.848  11.713 -0.2925 -1.9751  2.3709
 7668TIP3    H244496   0.173   2.843  11.831  2.2982  0.9495  0.4871
 7669TIP3   OH244497   5.149   6.287  14.243 -0.6189 -0.0537 -0.5214
 7669TIP3    H144498   5.205   6.300  14.320 -0.7375 -0.6892 -0.3268
 7669TIP3    H244499   5.123   6.195  14.247  1.6343 -0.8843 -2.8142
 7670TIP3   OH244500   5.298   5.698   0.096  0.0182  0.1426 -0.4731
 7670TIP3    H144501   5.392   5.703   0.108  0.2507  0.3931 -2.2896
 7670TIP3    H244502   5.269   5.789   0.091 -0.2009  0.0601 -0.7391
 7671TIP3   OH244503   2.216   5.287  10.648 -0.1474 -0.2143  0.4811
 7671TIP3    H144504   2.158   5.220  10.682 -0.6909  0.0609  0.1008
 7671TIP3    H244505   2.211   5.277  10.553  1.7742 -1.3248  0.4758
 7672TIP3   OH244506   3.473   2.522   0.628 -0.1571  0.1568 -0.9368
 7672TIP3    H144507   3.495   2.513   0.721 -0.7837 -1.3464 -0.9243
 7672TIP3    H244508   3.461   2.616   0.615  0.4729  0.4281  0.3812
 7673TIP3   OH244509   6.787   6.098   4.696 -0.0947 -0.3574 -0.1017
 7673TIP3    H144510   6.789   6.181   4.647  0.6337  0.1497  0.7678
 7673TIP3    H244511   6.874   6.061   4.684  0.0004 -0.3625  0.5862
 7674TIP3   OH244512   0.569   6.320   3.139 -0.0376 -0.4472 -0.5134
 7674TIP3    H144513   0.658   6.354   3.128 -1.2571  2.6345 -1.4550
 7674TIP3    H244514   0.533   6.320   3.051 -0.1870 -4.1785 -0.5299
 7675TIP3   OH244515   3.461   1.913   3.500 -0.0762 -0.5114  0.3858
 7675TIP3    H144516   3.461   1.886   3.592  1.6269 -0.3203  0.4626
 7675TIP3    H244517   3.473   1.832   3.451  1.6699 -0.3201  0.4663
 7676TIP3   OH244518   1.324   0.921   1.440  0.3931  0.3409 -0.2230
 7676TIP3    H144519   1.329   0.922   1.535  1.7694 -0.7200 -0.2630
 7676TIP3    H244520   1.297   1.010   1.416  0.7223  0.8069  1.1122
 7677TIP3   OH244521   6.184   3.856  15.526 -0.1421  0.4541  0.3287
 7677TIP3    H144522   6.248   3.905  15.577  0.5338  1.5716 -1.5599
 7677TIP3    H244523   6.129   3.924  15.485 -0.6252 -0.4174 -0.4857
 7678TIP3   OH244524   1.197   1.120   5.057  0.6691  0.1228 -0.2783
 7678TIP3    H144525   1.207   1.152   5.147  0.2307 -0.0149 -0.1802
 7678TIP3    H244526   1.161   1.032   5.067  1.6707 -0.3292 -0.5603
 7679TIP3   OH244527   3.691   4.610  14.413  0.2950 -0.3968  0.2755
 7679TIP3    H144528   3.721   4.533  14.461  1.8887 -0.6112 -1.0285
 7679TIP3    H244529   3.753   4.679  14.437  2.2852 -0.9868 -2.8739
 7680TIP3   OH244530   3.044   4.487   4.405 -0.3012 -0.0077  0.1764
 7680TIP3    H144531   3.067   4.394   4.405  1.5949  0.3858  3.2277
 7680TIP3    H244532   3.053   4.514   4.313  0.8503 -2.4175 -0.4624
 7681TIP3   OH244533   1.592   3.935   2.493 -0.2109 -0.2776  0.5284
 7681TIP3    H144534   1.499   3.959   2.490 -0.3079 -0.6549  0.5025
 7681TIP3    H244535   1.627   3.986   2.566 -0.2756  0.4302  0.0745
 7682TIP3   OH244536   2.552   4.839  17.071  0.1605 -0.3756  0.4630
 7682TIP3    H144537   2.616   4.778  17.107 -0.3310 -1.2359 -0.0990
 7682TIP3    H244538   2.493   4.857  17.145  0.7861  0.0871  0.8614
 7683TIP3   OH244539   3.654   5.207   3.864 -0.3882 -0.2940  0.0596
 7683TIP3    H144540   3.590   5.276   3.876  1.3902  1.2353  1.0661
 7683TIP3    H244541   3.656   5.161   3.948 -0.5134 -0.6495 -0.1304
 7684TIP3   OH244542   2.057   2.826   5.042 -0.0901 -0.3858 -0.1997
 7684TIP3    H144543   1.974   2.869   5.021  0.1252  1.4679  2.5662
 7684TIP3    H244544   2.124   2.886   5.009  0.2487 -2.3654 -3.3841
 7685TIP3   OH244545   1.307   4.056   5.612 -0.6483 -0.0084 -0.1987
 7685TIP3    H144546   1.230   4.058   5.556  0.8278 -0.8610 -2.3228
 7685TIP3    H244547   1.318   3.964   5.636  2.5973 -0.7962 -4.1549
 7686TIP3   OH244548   5.682   3.326   1.402 -0.0717  0.1752 -0.0879
 7686TIP3    H144549   5.610   3.317   1.464  1.3897  0.5283  1.7190
 7686TIP3    H244550   5.721   3.411   1.423  3.2967 -1.7040  1.6626
 7687TIP3   OH244551   4.388   5.712   0.101 -0.1820  0.2652 -0.2675
 7687TIP3    H144552   4.362   5.773   0.032 -0.5523  1.4263  0.8755
 7687TIP3    H244553   4.359   5.754   0.182  1.2528 -0.5346  0.6833
 7688TIP3   OH244554   1.522   3.164   4.383 -0.1197  0.2369  0.9586
 7688TIP3    H144555   1.466   3.210   4.446 -1.3164  0.4013 -0.2171
 7688TIP3    H244556   1.491   3.192   4.298  0.7460 -0.8843  0.2572
 7689TIP3   OH244557   4.315   5.101  16.939  0.4000 -0.1339  0.0005
 7689TIP3    H144558   4.277   5.151  16.867  0.7817 -2.2942 -1.7392
 7689TIP3    H244559   4.241   5.054  16.977 -0.0275  1.9470  1.8841
 7690TIP3   OH244560   5.393   6.363  13.055  0.0135  0.5645 -0.2618
 7690TIP3    H144561   5.434   6.441  13.091 -1.8369  0.9666  1.0744
 7690TIP3    H244562   5.389   6.302  13.128  0.5511 -0.4080 -1.0440
 7691TIP3   OH244563   6.675   3.258   5.006  0.0046 -0.3083 -0.7599
 7691TIP3    H144564   6.630   3.215   5.079  1.3026 -0.5299 -0.0537
 7691TIP3    H244565   6.627   3.339   4.992  0.5518  0.4263  1.3185
 7692TIP3   OH244566   4.887   4.555   0.825 -0.1138 -0.6782  0.5696
 7692TIP3    H144567   4.873   4.588   0.736 -0.2056 -1.8016  0.1606
 7692TIP3    H244568   4.909   4.633   0.876 -0.5126  0.0422 -0.3382
 7693TIP3   OH244569   1.472   1.436   4.821  0.2127 -0.2833  0.1711
 7693TIP3    H144570   1.403   1.377   4.851  0.1010 -0.2948 -0.1014
 7693TIP3    H244571   1.467   1.511   4.880 -1.4597  0.6958 -1.1506
 7694TIP3   OH244572   6.294   5.054  13.602  0.0149 -0.0423 -0.0884
 7694TIP3    H144573   6.224   5.013  13.551  0.4353  0.2424 -0.8940
 7694TIP3    H244574   6.253   5.132  13.640 -0.2168 -0.0934 -0.2319
 7695TIP3   OH244575   3.686   5.295  14.087  0.1514  0.6445 -0.2204
 7695TIP3    H144576   3.600   5.335  14.098  0.1606  0.6448 -0.1526
 7695TIP3    H244577   3.724   5.341  14.012  0.0323  0.5419 -0.3453
 7696TIP3   OH244578   3.363   6.739   0.909 -0.1044  0.2485 -0.0722
 7696TIP3    H144579   3.430   6.787   0.959 -0.0262 -0.3833  0.4364
 7696TIP3    H244580   3.392   6.746   0.818 -1.0682  2.7275 -0.2181
 7697TIP3   OH244581   0.102   1.469   0.242  0.5410  0.3995 -0.2746
 7697TIP3    H144582   0.100   1.519   0.160  0.3205 -0.2777 -0.6855
 7697TIP3    H244583   0.139   1.384   0.218 -2.0201 -0.7649 -0.2094
 7698TIP3   OH244584   4.293   3.115   5.232 -0.5144 -0.4565 -1.1269
 7698TIP3    H144585   4.238   3.170   5.176 -1.7634 -0.5817 -0.0306
 7698TIP3    H244586   4.369   3.170   5.252 -0.2433 -0.2700 -2.6096
 7699TIP3   OH244587   4.527   3.217   9.947  0.0485 -0.8260 -0.1517
 7699TIP3    H144588   4.584   3.200   9.872  0.3306 -0.0790 -0.1101
 7699TIP3    H244589   4.538   3.140  10.004 -1.1578 -2.0089 -1.4713
 7700TIP3   OH244590   5.204   3.786  15.817  0.1137  0.1142  0.4167
 7700TIP3    H144591   5.124   3.839  15.816  1.3643  2.0780  0.6237
 7700TIP3    H244592   5.223   3.772  15.724  0.2091  0.7297  0.3369
 7701TIP3   OH244593   5.427   6.202   5.539 -0.1691  0.1932  0.2025
 7701TIP3    H144594   5.360   6.253   5.492 -2.0664 -1.5443  0.9001
 7701TIP3    H244595   5.376   6.138   5.589  2.0674 -1.3265  0.5791
 7702TIP3   OH244596   5.390   3.457  10.828  0.6765  0.0410  0.3368
 7702TIP3    H144597   5.318   3.421  10.880  0.6180 -0.1696  0.1103
 7702TIP3    H244598   5.468   3.419  10.867  0.6235 -0.2287  0.1846
 7703TIP3   OH244599   5.491   2.896   5.575  0.5563  0.6095 -0.0293
 7703TIP3    H144600   5.570   2.863   5.534  1.0353  1.3250  0.3189
 7703TIP3    H244601   5.522   2.949   5.649 -0.2836 -1.2103  1.7017
 7704TIP3   OH244602   0.764   6.370  16.317 -0.6853 -0.4961  0.1167
 7704TIP3    H144603   0.836   6.397  16.373 -1.0207  1.3526 -0.3075
 7704TIP3    H244604   0.706   6.320  16.375 -1.0619  1.4417  1.4677
 7705TIP3   OH244605   3.602   6.299   4.805  0.5603  0.7740  0.0446
 7705TIP3    H144606   3.543   6.313   4.732  1.1853 -0.5001 -0.7161
 7705TIP3    H244607   3.545   6.275   4.878  0.0009  1.3231 -0.2075
 7706TIP3   OH244608   6.261   0.840  11.460  0.7536  0.2724  0.7239
 7706TIP3    H144609   6.244   0.924  11.502 -1.3985  0.9161 -1.2982
 7706TIP3    H244610   6.234   0.853  11.369  2.7053 -1.8774 -0.2321
 7707TIP3   OH244611   5.912   5.839   3.298 -0.0751 -0.0676  0.2970
 7707TIP3    H144612   5.890   5.857   3.207 -0.1083 -1.5736 -0.0045
 7707TIP3    H244613   5.958   5.755   3.296  0.1281 -0.0109  1.6399
 7708TIP3   OH244614   3.209   3.038   0.881  0.8428 -0.2463 -0.2517
 7708TIP3    H144615   3.182   2.971   0.818  1.3576  0.0019 -0.7399
 7708TIP3    H244616   3.253   3.104   0.828 -1.4206  1.4834 -0.0637
 7709TIP3   OH244617   0.811   2.519   0.856  0.1666 -0.1944 -0.2991
 7709TIP3    H144618   0.723   2.482   0.848  0.6332 -1.0665 -1.7393
 7709TIP3    H244619   0.869   2.443   0.852  0.9751  0.3417  1.0462
 7710TIP3   OH244620   0.989   1.900  11.030  0.0397  0.9142  0.0436
 7710TIP3    H144621   0.951   1.965  11.090 -1.6631  1.0570 -1.1344
 7710TIP3    H244622   1.081   1.925  11.023 -0.4838  2.9084 -0.0126
 7711TIP3   OH244623   1.810   0.348  13.634  0.6308 -0.4621  0.0889
 7711TIP3    H144624   1.725   0.311  13.660 -0.7409  0.4255 -2.9061
 7711TIP3    H244625   1.856   0.274  13.593  1.1673 -0.8292  1.3161
 7712TIP3   OH244626   3.796   6.725  16.758  0.7429  0.1857 -0.3950
 7712TIP3    H144627   3.760   6.639  16.740  1.3468 -0.1472 -0.0388
 7712TIP3    H244628   3.891   6.711  16.762  0.8060  0.7564  0.2420
 7713TIP3   OH244629   0.256   3.966  12.080 -0.3357 -0.4441  0.1902
 7713TIP3    H144630   0.306   3.945  12.001 -1.2082  0.0611 -0.5101
 7713TIP3    H244631   0.206   3.887  12.098  0.0132 -0.6282  0.3508
 7714TIP3   OH244632   0.547   0.527   0.993  0.6997  0.4578 -0.4291
 7714TIP3    H144633   0.452   0.516   0.988  0.8289 -1.3774  0.8718
 7714TIP3    H244634   0.563   0.613   0.953 -1.5540  1.0686 -0.0840
 7715TIP3   OH244635   0.137   3.664   2.293  0.1270  0.2324  0.4838
 7715TIP3    H144636   0.161   3.727   2.360  2.1726  1.6551 -1.5189
 7715TIP3    H244637   0.052   3.693   2.261 -0.5354 -0.0585  1.9419
 7716TIP3   OH244638   2.494   1.923   2.233  0.3606  0.2436 -0.5175
 7716TIP3    H144639   2.460   1.856   2.292  2.4723 -0.6158 -0.2312
 7716TIP3    H244640   2.507   1.999   2.289 -1.3368  0.6872 -0.6932
 7717TIP3   OH244641   3.617   5.399   5.254  0.1195  0.5456  0.1668
 7717TIP3    H144642   3.709   5.388   5.228 -0.1881  0.4518 -0.9192
 7717TIP3    H244643   3.611   5.490   5.281  0.6118  0.4653  0.5590
 7718TIP3   OH244644   0.822   5.877   6.178 -0.2975  0.3398  0.5852
 7718TIP3    H144645   0.767   5.825   6.237 -0.0897  0.3344  0.7760
 7718TIP3    H244646   0.855   5.947   6.234 -1.4441  1.3045  0.0662
 7719TIP3   OH244647   1.907   5.143  16.228  0.0371  0.1060 -0.8352
 7719TIP3    H144648   1.960   5.104  16.298 -0.7593 -0.0158 -0.2923
 7719TIP3    H244649   1.856   5.071  16.193 -0.8883  0.4988 -0.3316
 7720TIP3   OH244650   2.333   3.242  15.805 -0.0968  0.1070  0.4938
 7720TIP3    H144651   2.299   3.154  15.788 -2.2671  1.1740 -0.9517
 7720TIP3    H244652   2.343   3.246  15.900 -0.7862 -1.4113  0.6514
 7721TIP3   OH244653   0.232   3.845   4.066  0.0474  0.2396 -0.4558
 7721TIP3    H144654   0.254   3.938   4.052 -0.7088  0.2885 -1.3597
 7721TIP3    H244655   0.167   3.846   4.136 -0.6807  0.4708 -1.1303
 7722TIP3   OH244656   4.128   1.158   2.586 -0.0335 -0.1532  0.1327
 7722TIP3    H144657   4.048   1.137   2.538 -0.4912  0.3901  0.6408
 7722TIP3    H244658   4.140   1.085   2.647 -1.2974  0.7541  1.4951
 7723TIP3   OH244659   3.422   4.583  14.489 -0.1354 -0.3043 -0.1633
 7723TIP3    H144660   3.513   4.583  14.461  0.0828 -0.8631  0.5411
 7723TIP3    H244661   3.396   4.675  14.486  0.7544 -0.0276  0.6096
 7724TIP3   OH244662   0.843   1.895  14.734  0.2516 -0.3698  0.7578
 7724TIP3    H144663   0.939   1.900  14.740  0.1809  0.5496  1.1310
 7724TIP3    H244664   0.821   1.821  14.792  0.6033  0.5071  2.0339
 7725TIP3   OH244665   5.874   5.380  11.295 -0.1520  0.0747 -0.6486
 7725TIP3    H144666   5.868   5.291  11.261  1.1586  0.3022 -1.4902
 7725TIP3    H244667   5.963   5.407  11.277 -0.5507  1.5863 -0.4298
 7726TIP3   OH244668   2.926   6.591   0.563 -0.2343  0.6943 -0.1076
 7726TIP3    H144669   2.904   6.683   0.573 -0.5661  0.3467  2.9731
 7726TIP3    H244670   2.853   6.544   0.606  0.9956 -0.8846  0.3235
 7727TIP3   OH244671   5.484   4.790  12.722  0.2198  0.0508 -0.4772
 7727TIP3    H144672   5.537   4.865  12.694  0.6616 -0.3064 -0.5981
 7727TIP3    H244673   5.434   4.766  12.644 -0.6177  0.8035 -0.1825
 7728TIP3   OH244674   6.506   4.693   4.364  0.4614 -0.3025 -0.1862
 7728TIP3    H144675   6.556   4.729   4.438 -3.0906  1.7870  1.3210
 7728TIP3    H244676   6.506   4.763   4.299 -0.1305 -0.4518 -0.3480
 7729TIP3   OH244677   4.357   2.542  13.858  0.3695  0.2256 -0.7547
 7729TIP3    H144678   4.322   2.582  13.938  1.5635  1.7253 -0.9675
 7729TIP3    H244679   4.384   2.454  13.886  2.1354  1.2583  0.8572
 7730TIP3   OH244680   2.161   3.051  14.825 -0.0637  0.3141 -0.0029
 7730TIP3    H144681   2.242   3.059  14.876  1.5016  2.6392 -2.7124
 7730TIP3    H244682   2.180   2.982  14.760  0.2290  1.7153 -1.4353
 7731TIP3   OH244683   0.786   5.244  13.587 -0.3177  0.5427 -0.2124
 7731TIP3    H144684   0.752   5.325  13.548  0.8524  0.9438 -0.4085
 7731TIP3    H244685   0.784   5.180  13.516 -1.8894  0.2042  0.1203
 7732TIP3   OH244686   0.085   0.611  15.625 -0.2214 -0.4671  0.4582
 7732TIP3    H144687   0.138   0.565  15.690  0.5514 -0.0851  0.1011
 7732TIP3    H244688   0.105   0.703  15.638  0.3503 -0.4128 -0.6629
 7733TIP3   OH244689   4.546   5.351  16.909  0.6049 -0.0007  0.4340
 7733TIP3    H144690   4.494   5.370  16.830  1.4291  1.1878  0.1628
 7733TIP3    H244691   4.618   5.297  16.877  0.8236  0.3072  0.4002
 7734TIP3   OH244692   3.724   1.987  15.435  0.0298 -0.9550 -0.5809
 7734TIP3    H144693   3.766   2.028  15.511 -0.7146  0.3637 -0.8826
 7734TIP3    H244694   3.725   1.893  15.456  0.1879 -0.6458  0.8784
 7735TIP3   OH244695   0.886   4.124   0.071  0.0727  0.2595  0.1738
 7735TIP3    H144696   0.828   4.104   0.144  0.8015  0.1487  0.7239
 7735TIP3    H244697   0.832   4.178   0.012 -0.7983 -0.4102  0.3451
 7736TIP3   OH244698   3.730   5.898   0.035  0.2102  0.2317  0.1531
 7736TIP3    H144699   3.754   5.955   0.108  0.5284  1.5978 -1.0045
 7736TIP3    H244700   3.813   5.872  -0.005  0.0187 -0.1605 -0.0023
 7737TIP3   OH244701   4.932   6.470  13.809 -0.2335 -0.2652  0.2657
 7737TIP3    H144702   4.862   6.514  13.857 -0.8075  0.2732 -1.0434
 7737TIP3    H244703   4.924   6.504  13.720  0.5405 -1.5904 -0.3068
 7738TIP3   OH244704   0.601   5.982  14.508  0.5273  0.6611  0.7336
 7738TIP3    H144705   0.648   5.931  14.442  1.5101  1.3775  0.8591
 7738TIP3    H244706   0.670   6.012  14.568 -0.3037  0.3927  1.8243
 7739TIP3   OH244707   4.847   4.037   3.757 -0.1459  0.6579  0.1974
 7739TIP3    H144708   4.859   4.066   3.848  0.5582 -1.4096  0.7842
 7739TIP3    H244709   4.785   3.965   3.762 -0.1101  0.5333 -0.9677
 7740TIP3   OH244710   0.803   5.078   1.067 -1.0069  0.1834  0.4643
 7740TIP3    H144711   0.778   5.170   1.075 -2.5241  0.0212 -2.1521
 7740TIP3    H244712   0.832   5.054   1.155  0.3396  3.4175  0.9741
 7741TIP3   OH244713   1.973   1.691  12.830 -0.4447 -0.2369  0.2034
 7741TIP3    H144714   1.886   1.669  12.863 -0.2965 -0.2465  0.5954
 7741TIP3    H244715   2.030   1.684  12.906  0.1069 -1.3794 -0.3030
 7742TIP3   OH244716   2.687   2.478   4.637  0.2152  0.4935 -0.2075
 7742TIP3    H144717   2.757   2.542   4.648  1.1087 -0.4660 -0.2458
 7742TIP3    H244718   2.711   2.430   4.558 -0.8258  0.5801 -0.5802
 7743TIP3   OH244719   4.309   4.950   2.367 -0.4401  0.5189 -0.0453
 7743TIP3    H144720   4.289   5.031   2.321 -0.9850  0.4362  0.0336
 7743TIP3    H244721   4.362   4.977   2.442  0.4559  0.6475 -0.7289
 7744TIP3   OH244722   5.832   2.794   2.463 -0.4290 -0.3828  0.5919
 7744TIP3    H144723   5.875   2.709   2.468  2.5014  1.0284  0.6909
 7744TIP3    H244724   5.763   2.782   2.399 -1.4269 -3.3760  2.1152
 7745TIP3   OH244725   4.939   0.032  16.826 -0.6567 -0.3003  0.3474
 7745TIP3    H144726   4.940  -0.059  16.798 -0.8861 -0.7599  1.7984
 7745TIP3    H244727   4.949   0.082  16.745  0.5928 -1.6310 -0.3534
 7746TIP3   OH244728   1.687   5.674   5.925  0.1831 -0.2809  0.1808
 7746TIP3    H144729   1.684   5.599   5.984 -0.4740 -0.7759 -0.4793
 7746TIP3    H244730   1.615   5.730   5.952  0.4583 -0.0473  0.4449
 7747TIP3   OH244731   6.790   2.148   3.754 -0.4367 -0.2345  0.3010
 7747TIP3    H144732   6.833   2.119   3.674  0.8181  1.6604  0.2687
 7747TIP3    H244733   6.773   2.068   3.803  1.2874 -1.1751 -0.6189
 7748TIP3   OH244734   0.081   6.537   5.768  0.2548  0.4818  0.6001
 7748TIP3    H144735   0.174   6.548   5.784 -0.1400  1.3789  2.4432
 7748TIP3    H244736   0.039   6.599   5.828 -1.5769 -0.8899  0.7790
 7749TIP3   OH244737   1.080   2.033  15.229 -0.1359  0.2638  0.3906
 7749TIP3    H144738   1.083   1.946  15.269 -1.6216  1.0425  2.2618
 7749TIP3    H244739   1.171   2.052  15.206  0.1559 -1.9304 -0.4301
 7750TIP3   OH244740   3.385   4.420  15.458 -0.5437  0.0341  0.1821
 7750TIP3    H144741   3.379   4.387  15.548  0.3251 -1.5510 -0.3111
 7750TIP3    H244742   3.348   4.350  15.404  1.3338 -0.1838 -0.8958
 7751TIP3   OH244743   0.875   0.992   1.891  0.4915  0.0427  0.0454
 7751TIP3    H144744   0.801   0.932   1.883  0.7235  0.1908 -4.1542
 7751TIP3    H244745   0.929   0.954   1.961 -0.6943 -3.1948 -0.7276
 7752TIP3   OH244746   2.576   4.069   0.855  0.2246  0.4194  0.2079
 7752TIP3    H144747   2.586   3.974   0.853 -3.2139 -0.0107 -0.1569
 7752TIP3    H244748   2.544   4.088   0.943  1.2493  1.2773  0.3960
 7753TIP3   OH244749   0.332   5.799  17.213 -0.0593 -0.0431  0.4060
 7753TIP3    H144750   0.322   5.775  17.305  0.9666  0.3761  0.6310
 7753TIP3    H244751   0.345   5.716  17.168  0.3845 -0.1684  0.7639
 7754TIP3   OH244752   4.505   1.519  11.054 -0.1800  0.7339 -0.2418
 7754TIP3    H144753   4.444   1.550  10.987 -0.6112  0.1873 -0.1076
 7754TIP3    H244754   4.584   1.571  11.041 -0.7344  1.5688 -0.3100
 7755TIP3   OH244755   1.517   5.747  16.864 -0.0286  0.1575  0.3129
 7755TIP3    H144756   1.481   5.836  16.873 -0.6633 -0.0259 -0.3087
 7755TIP3    H244757   1.611   5.760  16.854 -0.3165  0.8868 -1.6302
 7756TIP3   OH244758   3.494   6.220   1.213  0.4634 -0.1011 -0.5762
 7756TIP3    H144759   3.574   6.190   1.171 -0.0134 -0.2116 -1.4157
 7756TIP3    H244760   3.427   6.157   1.187 -0.1036  0.5303 -0.6695
 7757TIP3   OH244761   2.649   5.230  16.668 -0.5101 -0.0748  0.3946
 7757TIP3    H144762   2.652   5.176  16.589 -0.0910 -0.0599  0.3946
 7757TIP3    H244763   2.587   5.299  16.648 -0.8502 -0.4092  0.2925
 7758TIP3   OH244764   0.699   0.592  16.373 -0.1235 -0.0340 -0.3334
 7758TIP3    H144765   0.723   0.575  16.465  2.3196  2.4042 -0.4701
 7758TIP3    H244766   0.660   0.679  16.374 -1.5243 -0.6220 -1.4232
 7759TIP3   OH244767   4.039   0.310   1.993 -0.5307 -0.1883  0.3976
 7759TIP3    H144768   4.053   0.240   2.057  1.8578  0.7338  0.9211
 7759TIP3    H244769   4.087   0.281   1.915  0.2324  0.7355  0.5193
 7760TIP3   OH244770   5.280   5.137   1.060  0.1449 -0.4736  0.2938
 7760TIP3    H144771   5.292   5.231   1.073  0.8209 -0.4887 -0.2275
 7760TIP3    H244772   5.231   5.131   0.978 -1.1251 -0.5240  1.0381
 7761TIP3   OH244773   6.714   1.522  12.096 -0.1521  0.0705 -0.2421
 7761TIP3    H144774   6.795   1.490  12.058 -0.5818  1.2657 -2.2626
 7761TIP3    H244775   6.656   1.536  12.021 -1.4465  1.3851  0.9651
 7762TIP3   OH244776   5.409   4.762   2.732  0.3897 -0.3003  0.3226
 7762TIP3    H144777   5.413   4.668   2.712  0.9453 -1.4230  5.0060
 7762TIP3    H244778   5.320   4.788   2.708 -0.3101 -2.4374  0.4842
 7763TIP3   OH244779   3.281   6.001  12.293 -0.6816  0.5278 -0.2126
 7763TIP3    H144780   3.370   5.970  12.311 -1.1922 -0.5492  0.4897
 7763TIP3    H244781   3.278   6.012  12.198  0.1333  0.3738 -0.2615
 7764TIP3   OH244782   5.777   2.371   0.906  0.8056  0.4908 -0.4430
 7764TIP3    H144783   5.729   2.290   0.926 -0.0162  0.8125 -1.0933
 7764TIP3    H244784   5.784   2.416   0.990 -1.2754  1.1109 -0.5848
 7765TIP3   OH244785   0.947   0.850   0.347  0.2824  0.1135 -0.5504
 7765TIP3    H144786   0.905   0.925   0.388  2.3804  0.8988  0.1841
 7765TIP3    H244787   1.036   0.851   0.380  0.6449 -2.0733 -1.3837
 7766TIP3   OH244788   1.758   2.181  15.497 -0.1996 -0.6299  0.1086
 7766TIP3    H144789   1.836   2.232  15.477 -0.7249 -0.4126 -1.4327
 7766TIP3    H244790   1.791   2.094  15.519  0.4224 -0.7631 -1.3175
 7767TIP3   OH244791   0.615   6.746  15.273 -0.4379  0.6338 -0.4488
 7767TIP3    H144792   0.616   6.765  15.367 -1.2488 -0.3921 -0.2222
 7767TIP3    H244793   0.645   6.827  15.232  0.6254  0.8640  0.7333
 7768TIP3   OH244794   2.518   2.757  14.647  0.0979 -0.2906 -0.4396
 7768TIP3    H144795   2.550   2.716  14.567  0.2744 -1.5362  0.2546
 7768TIP3    H244796   2.423   2.759  14.638  0.0475 -1.4699 -0.1866
 7769TIP3   OH244797   5.171   1.612   1.627  0.1609 -0.1042 -0.5082
 7769TIP3    H144798   5.087   1.590   1.587 -0.3329 -0.7434  0.8417
 7769TIP3    H244799   5.169   1.707   1.637 -0.9447 -0.2287  0.6580
 7770TIP3   OH244800   3.768   4.112   0.587 -0.3239  0.4955 -0.3162
 7770TIP3    H144801   3.732   4.103   0.675  0.1856 -2.2567 -0.3505
 7770TIP3    H244802   3.847   4.164   0.599 -0.7143  0.8637  0.7359
 7771TIP3   OH244803   5.061   1.200  13.329 -0.3725 -0.1531 -0.5521
 7771TIP3    H144804   5.114   1.273  13.297  0.5677 -0.8440 -0.6168
 7771TIP3    H244805   4.983   1.240  13.366 -0.7109  0.7658 -2.2490
 7772TIP3   OH244806   5.475   0.893  13.308 -0.0663  0.5295  0.1560
 7772TIP3    H144807   5.382   0.870  13.310 -0.2638  1.3078 -0.0118
 7772TIP3    H244808   5.510   0.860  13.391  0.1450 -2.3969 -1.0281
 7773TIP3   OH244809   0.230   1.400  11.759  0.8169  0.3214 -0.0791
 7773TIP3    H144810   0.299   1.417  11.824 -0.2794 -0.3857  1.2830
 7773TIP3    H244811   0.263   1.326  11.709  0.9782 -0.1285  0.6851
 7774TIP3   OH244812   5.371   2.433   2.696 -0.1412  0.3160 -0.1988
 7774TIP3    H144813   5.345   2.407   2.608  1.8782  0.0622 -0.7447
 7774TIP3    H244814   5.462   2.461   2.687  0.1486  0.1186  1.8482
 7775TIP3   OH244815   3.138   0.826   0.705  0.1933  0.2420  0.8847
 7775TIP3    H144816   3.115   0.852   0.615  0.6362  1.3736  1.0851
 7775TIP3    H244817   3.135   0.731   0.704  0.5504  0.2313 -0.4398
 7776TIP3   OH244818   5.051   4.312  12.146  0.5114  0.1194  0.7583
 7776TIP3    H144819   5.090   4.293  12.061  0.2075 -0.3299  0.7200
 7776TIP3    H244820   5.121   4.298  12.209  0.2305 -1.3362  0.7515
 7777TIP3   OH244821   2.464   4.552   1.326 -0.4564 -0.5650  0.7109
 7777TIP3    H144822   2.390   4.610   1.344 -1.2929 -1.6912  0.9443
 7777TIP3    H244823   2.424   4.470   1.299  0.7013  0.2965 -4.0898
 7778TIP3   OH244824   5.756   6.612   3.840 -0.4577  0.3306  0.0739
 7778TIP3    H144825   5.777   6.519   3.827  0.7714  0.6518 -0.2713
 7778TIP3    H244826   5.808   6.638   3.916 -0.3573  0.8787 -0.1803
 7779TIP3   OH244827   4.710   6.450  11.429  0.3769  0.0442  0.2136
 7779TIP3    H144828   4.734   6.407  11.347 -0.3166  1.2700 -0.6519
 7779TIP3    H244829   4.628   6.407  11.455 -0.0063  0.4346 -0.3401
 7780TIP3   OH244830   4.707   5.657   5.331  0.6054 -0.4586  0.3689
 7780TIP3    H144831   4.766   5.730   5.310  0.0237 -0.0932  0.0121
 7780TIP3    H244832   4.624   5.699   5.351  0.5315 -0.9624  1.1147
 7781TIP3   OH244833   0.212   4.232  15.727 -0.4012  0.1007  0.2580
 7781TIP3    H144834   0.301   4.267  15.717 -0.3466  0.0311  0.5026
 7781TIP3    H244835   0.180   4.222  15.637  0.3897 -1.2804  0.1094
 7782TIP3   OH244836   6.313   1.827  16.133  0.1023 -0.3185 -0.5268
 7782TIP3    H144837   6.334   1.765  16.063  1.0221 -0.4275 -0.1563
 7782TIP3    H244838   6.257   1.893  16.090  0.6874 -0.3593 -1.3828
 7783TIP3   OH244839   0.468   3.344   4.801 -0.2773 -0.4783 -0.3536
 7783TIP3    H144840   0.491   3.285   4.729 -0.3047 -0.6964 -0.1815
 7783TIP3    H244841   0.485   3.432   4.766  5.0394 -0.6962  1.2066
 7784TIP3   OH244842   5.518   1.770   4.362  0.0485 -0.4793 -0.4168
 7784TIP3    H144843   5.552   1.857   4.340  0.5697 -1.1170 -2.1553
 7784TIP3    H244844   5.457   1.787   4.435 -0.7423  1.4978 -1.4838
 7785TIP3   OH244845   1.999   5.018   4.541  0.5264  0.3433 -0.5187
 7785TIP3    H144846   1.929   4.983   4.597 -0.4902  0.9149 -1.4265
 7785TIP3    H244847   2.058   4.943   4.528 -1.0841 -0.7718 -1.5828
 7786TIP3   OH244848   5.756   3.225   4.773 -0.0347 -0.0177  0.8320
 7786TIP3    H144849   5.825   3.189   4.828 -0.3765  0.3309  1.4859
 7786TIP3    H244850   5.699   3.150   4.755 -0.2266 -0.0128  1.4099
 7787TIP3   OH244851   2.820   0.237  14.126  0.3339 -0.0827  0.3272
 7787TIP3    H144852   2.803   0.303  14.193  0.2901  1.1713 -0.8915
 7787TIP3    H244853   2.884   0.178  14.165 -0.1701  0.2736  1.6943
 7788TIP3   OH244854   2.598   0.213   0.224  0.2974  0.9022  0.5786
 7788TIP3    H144855   2.669   0.161   0.262  0.8502 -0.7716 -2.5210
 7788TIP3    H244856   2.640   0.264   0.155 -0.8900  2.8269  1.2219
 7789TIP3   OH244857   5.943   0.855   5.867 -0.2888 -0.7099 -0.2614
 7789TIP3    H144858   5.856   0.887   5.843  0.2464  0.4272 -0.7110
 7789TIP3    H244859   5.952   0.772   5.819 -1.3111 -1.0875  0.1810
 7790TIP3   OH244860   6.760   1.794  10.811  0.2934 -0.0167 -0.3486
 7790TIP3    H144861   6.827   1.826  10.751 -0.1494  0.7585 -0.4363
 7790TIP3    H244862   6.807   1.736  10.871  1.1124  0.8415 -0.1535
 7791TIP3   OH244863   5.560   2.401   3.025 -0.2577 -0.1514  1.1978
 7791TIP3    H144864   5.574   2.472   3.087 -0.7311  0.7990  0.2383
 7791TIP3    H244865   5.480   2.426   2.978  0.1831 -0.7580  0.1040
 7792TIP3   OH244866   3.838   4.818  13.376  0.0837  0.2325  0.3002
 7792TIP3    H144867   3.823   4.912  13.383  1.0706  0.4249 -0.1154
 7792TIP3    H244868   3.898   4.798  13.448  0.6022  0.0915 -0.1621
 7793TIP3   OH244869   5.275   1.635  11.436 -0.1731  0.7226  0.1592
 7793TIP3    H144870   5.327   1.610  11.512  0.1458  1.6806  0.2700
 7793TIP3    H244871   5.331   1.616  11.361 -0.5663 -0.4119  0.1481
 7794TIP3   OH244872   0.722   4.817   6.770  0.4650 -0.3289  0.5422
 7794TIP3    H144873   0.649   4.790   6.715  0.4422  1.0465 -0.1144
 7794TIP3    H244874   0.794   4.759   6.745  0.6628  0.7620 -1.4635
 7795TIP3   OH244875   3.443   3.846  14.457 -0.7606 -0.2666  0.0346
 7795TIP3    H144876   3.468   3.753  14.462 -0.5533 -0.1187  1.8355
 7795TIP3    H244877   3.376   3.857  14.524 -1.7631  0.6100 -1.0751
 7796TIP3   OH244878   2.342   0.368  17.030  0.0446  0.6618  0.0891
 7796TIP3    H144879   2.283   0.294  17.043  0.9522 -0.2166 -0.8076
 7796TIP3    H244880   2.359   0.401  17.118  0.5791 -0.9210  0.5774
 7797TIP3   OH244881   3.036   4.984   4.204 -0.1432  0.2907 -0.1159
 7797TIP3    H144882   3.125   4.950   4.194 -0.1747  0.1903 -0.0634
 7797TIP3    H244883   2.999   4.933   4.277 -0.0218  0.7918  0.3018
 7798TIP3   OH244884   6.497   3.597  16.668  0.2226 -0.3844  0.1340
 7798TIP3    H144885   6.571   3.593  16.607 -0.3555  1.7074 -0.7422
 7798TIP3    H244886   6.447   3.673  16.640 -0.0681  0.6260  3.2530
 7799TIP3   OH244887   6.632   3.386   0.955  0.0616 -0.2044 -0.0886
 7799TIP3    H144888   6.663   3.427   0.874 -1.6350  1.5431  0.1146
 7799TIP3    H244889   6.559   3.331   0.927 -1.7236  1.8285  0.4616
 7800TIP3   OH244890   0.999   1.484   4.102  0.3563  0.2696 -0.2701
 7800TIP3    H144891   0.937   1.413   4.121  0.1198  0.5750  0.1178
 7800TIP3    H244892   0.943   1.560   4.085  0.6340  0.6967  0.6975
 7801TIP3   OH244893   5.157   5.450  14.790  0.2041  0.7258  0.1260
 7801TIP3    H144894   5.084   5.489  14.742 -0.4650 -0.6165  0.0413
 7801TIP3    H244895   5.219   5.522  14.802 -1.7129  2.2285  1.3415
 7802TIP3   OH244896   2.981   0.937   2.445 -0.0869 -0.4827 -0.1746
 7802TIP3    H144897   2.981   0.946   2.350  2.5220 -0.4001 -0.1977
 7802TIP3    H244898   3.005   1.024   2.477 -0.5696 -0.6139  0.5466
 7803TIP3   OH244899   1.865   3.104  13.411  0.2614  0.3718  0.1214
 7803TIP3    H144900   1.846   3.072  13.323 -0.4525 -0.2114  0.4834
 7803TIP3    H244901   1.957   3.129  13.408  1.8429 -4.7565  0.7309
 7804TIP3   OH244902   4.286   1.659   0.044 -0.8040 -0.1877  0.4122
 7804TIP3    H144903   4.336   1.585   0.077  1.1327  1.0890  0.4268
 7804TIP3    H244904   4.233   1.623  -0.027  0.1956 -1.5568  0.3494
 7805TIP3   OH244905   1.364   1.910   3.582  1.3001  0.1597  0.3963
 7805TIP3    H144906   1.379   1.856   3.505  1.1065 -0.2697  0.6594
 7805TIP3    H244907   1.274   1.942   3.573  0.9947 -0.5577  0.8528
 7806TIP3   OH244908   6.137   2.865   5.768  0.1778  0.3985  0.0064
 7806TIP3    H144909   6.221   2.871   5.813  0.1693 -1.3356  0.2689
 7806TIP3    H244910   6.133   2.775   5.738 -2.1201  0.1641  0.9854
 7807TIP3   OH244911   2.156   3.776  12.384 -0.1698 -0.1462  0.1873
 7807TIP3    H144912   2.186   3.863  12.358  0.0967 -0.9985 -2.4679
 7807TIP3    H244913   2.065   3.773  12.355 -1.4771  0.6250  3.8313
 7808TIP3   OH244914   0.789   1.397  11.508  0.3446  0.1752  0.0410
 7808TIP3    H144915   0.807   1.458  11.580 -0.7091  1.1622 -0.5110
 7808TIP3    H244916   0.715   1.436  11.462 -1.3818 -2.3254  0.6104
 7809TIP3   OH244917   4.720   4.748   4.653 -0.5004 -0.1288  0.5808
 7809TIP3    H144918   4.630   4.726   4.632  0.4353 -1.9656 -1.6849
 7809TIP3    H244919   4.744   4.686   4.722  0.4458 -2.8133 -2.0707
 7810TIP3   OH244920   3.090   0.261   0.438 -0.0061  0.6689  0.1606
 7810TIP3    H144921   3.076   0.239   0.346  2.2317 -1.0369  0.1741
 7810TIP3    H244922   3.126   0.350   0.436  1.6171  0.0253 -0.7852
 7811TIP3   OH244923   6.648   0.036   1.462 -0.2685 -0.1285  0.0354
 7811TIP3    H144924   6.571  -0.020   1.452  0.5622 -1.4585  0.9314
 7811TIP3    H244925   6.687   0.009   1.545  0.1967  1.7520  0.4674
 7812TIP3   OH244926   3.319   1.383  13.866  0.2350 -0.8142 -0.4146
 7812TIP3    H144927   3.267   1.455  13.903  2.3754 -1.3109  3.8023
 7812TIP3    H244928   3.273   1.304  13.894  1.3414 -1.1852  0.3825
 7813TIP3   OH244929   4.831   1.026   0.175 -0.2531  0.1070 -0.2188
 7813TIP3    H144930   4.905   1.012   0.117 -0.0233  1.1236 -0.1846
 7813TIP3    H244931   4.756   0.986   0.130  0.4165 -1.4679  0.0335
 7814TIP3   OH244932   2.532   2.777   2.926  0.0235  0.7544 -0.1199
 7814TIP3    H144933   2.564   2.808   2.842  2.2707  2.2912  1.2557
 7814TIP3    H244934   2.591   2.705   2.949 -0.5554  0.3719  0.1989
 7815TIP3   OH244935   0.942   1.218   1.460 -0.4525 -0.4126  0.7049
 7815TIP3    H144936   0.964   1.196   1.370  0.5406 -1.4343  1.1896
 7815TIP3    H244937   0.889   1.144   1.491  0.0244 -0.5324  1.2580
 7816TIP3   OH244938   2.180   0.513  14.584 -0.1267 -0.5396  0.2541
 7816TIP3    H144939   2.101   0.567  14.575  1.2699  1.2447 -1.9084
 7816TIP3    H244940   2.210   0.528  14.673 -1.4917 -0.1623  0.6553
 7817TIP3   OH244941   1.949   2.298   5.498 -0.0330  0.0679 -0.4711
 7817TIP3    H144942   1.872   2.246   5.476 -0.2202 -0.2762  0.9146
 7817TIP3    H244943   1.919   2.388   5.494 -0.1944 -0.0113 -1.0890
 7818TIP3   OH244944   3.920   4.289  16.866  0.6026 -0.2716  0.2985
 7818TIP3    H144945   3.838   4.338  16.857  0.3087 -1.0386 -1.3850
 7818TIP3    H244946   3.988   4.349  16.839  0.6713  0.5124  2.1108
 7819TIP3   OH244947   6.395   5.533   0.290  0.1711 -0.2188 -0.1527
 7819TIP3    H144948   6.334   5.543   0.364 -0.3929  0.2693 -0.6778
 7819TIP3    H244949   6.355   5.466   0.235 -0.0951  0.3899 -0.7040
 7820TIP3   OH244950   3.457   4.962   5.422  0.1797 -0.4806 -0.1513
 7820TIP3    H144951   3.439   4.952   5.515  2.2299 -1.3109  0.2020
 7820TIP3    H244952   3.548   4.932   5.412  0.0180 -0.3468 -2.3973
 7821TIP3   OH244953   3.137   2.247  13.745  0.3497  0.7428  0.5954
 7821TIP3    H144954   3.121   2.341  13.740 -0.1420  0.6250 -0.1323
 7821TIP3    H244955   3.099   2.212  13.664 -0.3608 -0.2058  1.3290
 7822TIP3   OH244956   6.794   4.120  14.411  0.2655 -0.2739  0.1538
 7822TIP3    H144957   6.720   4.092  14.464 -0.3150  0.5554 -0.2201
 7822TIP3    H244958   6.758   4.130  14.323  0.1615  2.9400  0.5211
 7823TIP3   OH244959   0.802   3.919   2.824  0.3632 -0.6187 -0.2458
 7823TIP3    H144960   0.753   3.845   2.788 -0.4101 -0.1234 -0.2248
 7823TIP3    H244961   0.779   3.993   2.767  0.3677 -0.1826  0.3087
 7824TIP3   OH244962   4.451   2.330   5.917 -0.5478  0.7238  0.2950
 7824TIP3    H144963   4.545   2.318   5.930 -0.5907  0.6306  0.5251
 7824TIP3    H244964   4.437   2.309   5.825 -0.2161  1.5222  0.0597
 7825TIP3   OH244965   6.211   3.005  11.496 -0.0032  0.0679  0.1265
 7825TIP3    H144966   6.199   3.015  11.402 -1.7197  1.8951  0.5029
 7825TIP3    H244967   6.167   2.923  11.517  2.9933 -1.9454 -1.0699
 7826TIP3   OH244968   4.959   2.945  16.647 -0.0982 -0.1950  0.1831
 7826TIP3    H144969   4.998   2.860  16.627  0.2464  0.2681 -1.2166
 7826TIP3    H244970   5.017   2.983  16.714  1.1149 -0.0928 -0.8911
 7827TIP3   OH244971   5.305   4.187  16.439 -0.2304 -1.1630 -0.2059
 7827TIP3    H144972   5.319   4.227  16.525  0.7729 -0.9096 -0.4854
 7827TIP3    H244973   5.291   4.261  16.380 -1.0010 -1.3394 -0.2571
 7828TIP3   OH244974   6.026   1.374   0.781 -0.4607  0.8798  0.0286
 7828TIP3    H144975   5.983   1.406   0.860  1.2037  2.5845  0.2755
 7828TIP3    H244976   5.958   1.379   0.713 -0.2665  5.2005  0.0179
 7829TIP3   OH244977   3.364   5.480   2.910 -0.0003  0.3353  0.7454
 7829TIP3    H144978   3.358   5.386   2.894 -1.3631  0.2429  1.7103
 7829TIP3    H244979   3.323   5.520   2.833  0.9535  0.1644  0.1396
 7830TIP3   OH244980   5.402   0.901  16.927 -0.0880  0.3087  0.3901
 7830TIP3    H144981   5.445   0.815  16.921  0.8212  0.6949  1.2584
 7830TIP3    H244982   5.312   0.881  16.951  0.6735 -0.3148  2.9333
 7831TIP3   OH244983   6.084   4.724  14.615 -0.5494 -0.2707  0.5415
 7831TIP3    H144984   6.141   4.755  14.685 -0.0983 -1.0536  0.5275
 7831TIP3    H244985   6.004   4.696  14.661 -0.7098  0.3219  0.6170
 7832TIP3   OH244986   5.480   4.705  11.651 -0.8160  0.4507  0.0858
 7832TIP3    H144987   5.540   4.653  11.705  0.3067 -0.2719 -1.8211
 7832TIP3    H244988   5.414   4.642  11.622 -1.1195  0.7303  0.1584
 7833TIP3   OH244989   3.284   1.438   0.011  0.1564  0.3323  0.5191
 7833TIP3    H144990   3.207   1.470   0.057 -0.7791 -2.7126  1.2347
 7833TIP3    H244991   3.357   1.486   0.049 -0.9727  0.3181  2.7413
 7834TIP3   OH244992   6.004   0.492   1.173  0.3237  0.3026 -0.5319
 7834TIP3    H144993   5.959   0.577   1.165 -0.2699  0.1619  1.1984
 7834TIP3    H244994   5.984   0.447   1.091 -1.4756  0.8440 -0.4134
 7835TIP3   OH244995   0.526   5.041  14.938 -0.0413 -0.0274  0.3760
 7835TIP3    H144996   0.461   4.986  14.895 -0.1778 -0.7249  1.4545
 7835TIP3    H244997   0.583   5.071  14.867 -0.8648 -0.3296 -0.4197
 7836TIP3   OH244998   5.777   4.436  12.811 -0.0898 -0.7561  0.1865
 7836TIP3    H144999   5.760   4.407  12.901 -0.7712 -1.9244 -0.3113
 7836TIP3    H245000   5.721   4.514  12.801 -0.7653 -1.1948  0.4592
 7837TIP3   OH245001   3.361   5.373   4.460 -0.3572  0.2985  0.0002
 7837TIP3    H145002   3.418   5.302   4.491 -1.6821 -0.4835  0.7157
 7837TIP3    H245003   3.421   5.439   4.426  1.0024 -0.2926  1.1876
 7838TIP3   OH245004   3.859   2.901  16.487  0.1581 -0.3758 -0.1507
 7838TIP3    H145005   3.764   2.893  16.498  0.0578  1.4072  0.5286
 7838TIP3    H245006   3.876   2.995  16.499  2.0696 -0.7603  0.2779
 7839TIP3   OH245007   2.769   3.950  14.090 -0.4060  0.0646  0.2724
 7839TIP3    H145008   2.808   3.901  14.162 -0.2263  0.5128  0.4813
 7839TIP3    H245009   2.712   4.014  14.133 -0.0650  0.5320  0.0255
 7840TIP3   OH245010   3.691   6.800   1.784 -0.5844 -0.4714 -0.3764
 7840TIP3    H145011   3.771   6.771   1.740 -0.1295  0.6956 -0.3392
 7840TIP3    H245012   3.714   6.803   1.877 -0.2213  1.2406 -0.5048
 7841TIP3   OH245013   3.246   4.164  11.319 -0.6337  0.3024  0.5232
 7841TIP3    H145014   3.184   4.193  11.254 -0.5036 -0.8169 -0.1258
 7841TIP3    H245015   3.197   4.164  11.402 -0.4319  2.9640  0.6730
 7842TIP3   OH245016   5.300   3.778   2.332  0.3719 -0.5315  0.2502
 7842TIP3    H145017   5.285   3.715   2.403  0.3879 -0.9041 -0.0730
 7842TIP3    H245018   5.372   3.740   2.281  0.5121 -0.1528  0.1666
 7843TIP3   OH245019   1.757   0.485  13.405  0.5978  0.4795  0.3275
 7843TIP3    H145020   1.668   0.519  13.410 -0.0373 -1.2091  1.0778
 7843TIP3    H245021   1.773   0.446  13.491  1.9736  0.5644  0.1285
 7844TIP3   OH245022   2.531   2.702   0.429 -0.2014 -0.0979  0.2595
 7844TIP3    H145023   2.480   2.777   0.461 -0.5057  0.5213 -1.6360
 7844TIP3    H245024   2.473   2.659   0.366  0.2103 -1.5833  0.8835
 7845TIP3   OH245025   4.217   5.988  14.356 -0.2233 -0.0918 -0.7879
 7845TIP3    H145026   4.261   6.068  14.328 -0.3623  0.6860  1.1229
 7845TIP3    H245027   4.135   6.018  14.395  0.4113 -1.0200  1.3553
 7846TIP3   OH245028   2.291   3.365   3.290  0.2686 -0.1520  0.0883
 7846TIP3    H145029   2.340   3.283   3.294 -0.5482 -0.7418 -1.2303
 7846TIP3    H245030   2.213   3.349   3.344  0.6433  0.1367  0.7105
 7847TIP3   OH245031   0.315   6.465   6.111 -0.0925  0.4377  0.3170
 7847TIP3    H145032   0.368   6.437   6.037 -0.9749 -0.7646  0.1169
 7847TIP3    H245033   0.370   6.527   6.158  1.2182 -0.2748 -0.2531
 7848TIP3   OH245034   5.851   4.650  14.753 -0.0633  0.0692  0.0642
 7848TIP3    H145035   5.778   4.707  14.775 -1.4809 -1.7285  0.0794
 7848TIP3    H245036   5.882   4.618  14.838  0.8910  0.9427  0.0725
 7849TIP3   OH245037   1.262   5.428  16.977  0.6023  0.4549  0.0562
 7849TIP3    H145038   1.303   5.514  16.972  0.0282  0.7213 -0.0880
 7849TIP3    H245039   1.250   5.413  17.071 -0.2518  0.9823  0.0302
 7850TIP3   OH245040   2.347   3.495  11.728 -0.0957  0.3500 -0.3255
 7850TIP3    H145041   2.398   3.520  11.806 -1.9567 -0.3852  1.1675
 7850TIP3    H245042   2.289   3.425  11.759 -0.6089 -0.2037 -2.4826
 7851TIP3   OH245043   4.052   4.030   2.304  0.4574 -0.5358  0.5591
 7851TIP3    H145044   4.127   4.030   2.363  0.5860 -0.6907  0.3930
 7851TIP3    H245045   4.071   4.100   2.241 -0.5004  0.8325  1.7523
 7852TIP3   OH245046   5.117   1.048   3.103  0.2875 -0.4874  0.5463
 7852TIP3    H145047   5.169   1.072   3.026  0.8854  0.0635  1.1149
 7852TIP3    H245048   5.107   1.130   3.151  0.3460 -0.9319  1.3220
 7853TIP3   OH245049   5.647   1.387  13.809 -0.1386 -0.1630  0.0169
 7853TIP3    H145050   5.723   1.415  13.859 -0.0119  0.4823 -0.5217
 7853TIP3    H245051   5.614   1.467  13.769 -0.0120 -0.7102 -1.2274
 7854TIP3   OH245052   0.299   0.237   4.121 -0.6578 -0.3766 -0.5805
 7854TIP3    H145053   0.286   0.192   4.205  0.3760 -2.0945 -1.3143
 7854TIP3    H245054   0.380   0.200   4.087 -0.2676  1.4332 -1.6395
 7855TIP3   OH245055   2.985   3.366   3.239  0.3494  0.0919 -0.1700
 7855TIP3    H145056   3.078   3.362   3.262  0.5337 -1.2864 -1.0544
 7855TIP3    H245057   2.956   3.275   3.244 -0.8098  0.4358 -0.5167
 7856TIP3   OH245058   2.246   6.083   2.654  0.6395 -0.1797 -0.2268
 7856TIP3    H145059   2.218   6.129   2.576 -0.8015 -0.4296  0.1278
 7856TIP3    H245060   2.270   6.152   2.716  0.1771  0.0534 -0.3070
 7857TIP3   OH245061   0.570   5.156  14.434 -0.9835  0.0542 -0.0839
 7857TIP3    H145062   0.618   5.142  14.353 -0.6448 -0.4295  0.1993
 7857TIP3    H245063   0.484   5.117  14.418  0.3961 -3.7362  1.1902
 7858TIP3   OH245064   2.196   4.366   3.996  0.0294  0.5148 -0.1925
 7858TIP3    H145065   2.248   4.286   4.000 -0.2651  0.3629  0.7547
 7858TIP3    H245066   2.258   4.436   4.016 -0.0716  0.3627  0.6497
 7859TIP3   OH245067   4.308   5.163  14.382 -0.1422 -0.0589 -0.3235
 7859TIP3    H145068   4.371   5.151  14.453  1.3079  0.8241 -1.4405
 7859TIP3    H245069   4.230   5.197  14.425  1.2006  1.8193  0.6658
 7860TIP3   OH245070   5.070   2.510  15.314  0.0592  0.2404  0.3325
 7860TIP3    H145071   4.999   2.572  15.334  0.6638  1.4512 -1.1440
 7860TIP3    H245072   5.025   2.429  15.291 -0.8683  1.0065 -0.6104
 7861TIP3   OH245073   4.290   4.430  14.818  0.0400 -0.1157  0.0612
 7861TIP3    H145074   4.302   4.339  14.843  0.0147 -0.0857  0.1844
 7861TIP3    H245075   4.267   4.475  14.900 -1.4990 -0.2735 -0.2645
 7862TIP3   OH245076   5.016   5.043   1.187  0.1958  0.2679  0.5010
 7862TIP3    H145077   4.988   5.077   1.102 -2.6730  0.4076  1.4318
 7862TIP3    H245078   5.000   4.949   1.182  0.1304  0.2596  0.8308
 7863TIP3   OH245079   1.589   5.248   0.629 -0.7304  0.4108 -0.1116
 7863TIP3    H145080   1.644   5.277   0.702  0.5419  0.3136 -1.0085
 7863TIP3    H245081   1.531   5.321   0.611  0.2999  1.1965 -0.2884
 7864TIP3   OH245082   5.114   5.288   5.043 -0.2111 -0.8928  0.5127
 7864TIP3    H145083   5.185   5.228   5.020 -0.1618 -0.9345  0.7780
 7864TIP3    H245084   5.050   5.277   4.972  1.1240  0.9126 -1.0216
 7865TIP3   OH245085   5.837   2.695  12.649  0.0101 -0.1184 -0.3781
 7865TIP3    H145086   5.872   2.753  12.581 -1.4974  0.4804 -0.6702
 7865TIP3    H245087   5.915   2.659  12.692  0.9837  1.4504 -0.7555
 7866TIP3   OH245088   5.338   0.444   5.573  0.7243  0.3077  0.2798
 7866TIP3    H145089   5.405   0.422   5.509  0.0066 -2.3665  0.3985
 7866TIP3    H245090   5.387   0.454   5.655  1.1462 -0.2205  0.0958
 7867TIP3   OH245091   6.373   3.190  15.303 -0.0028 -0.1836  0.1548
 7867TIP3    H145092   6.383   3.109  15.253 -0.6787  0.2006 -0.6191
 7867TIP3    H245093   6.290   3.179  15.350 -0.6086  0.4504 -0.7309
 7868TIP3   OH245094   1.167   0.393   5.244  0.2185 -0.4000  0.1823
 7868TIP3    H145095   1.080   0.429   5.226 -0.0569 -1.1237  0.0442
 7868TIP3    H245096   1.212   0.395   5.160 -0.4686 -2.1611 -0.2600
 7869TIP3   OH245097   0.878   3.071  12.070  0.0113  0.4730  0.0824
 7869TIP3    H145098   0.926   2.998  12.110 -2.6856 -2.0068 -0.9884
 7869TIP3    H245099   0.788   3.060  12.103 -0.1708  4.1565  0.9678
 7870TIP3   OH245100   0.087   1.568  11.610 -0.2122  0.3647 -0.1436
 7870TIP3    H145101   0.144   1.509  11.660 -0.3280  2.3826  2.5120
 7870TIP3    H245102   0.003   1.523  11.605  0.8381 -1.4641 -1.7655
 7871TIP3   OH245103   6.264   4.571   4.411 -0.0786  0.0610 -0.0778
 7871TIP3    H145104   6.348   4.614   4.393  0.5042 -0.0602  2.2862
 7871TIP3    H245105   6.208   4.599   4.339  1.4128  1.7221 -0.6407
 7872TIP3   OH245106   0.529   5.814   4.933 -0.2653 -0.0561  0.1993
 7872TIP3    H145107   0.537   5.766   5.015  1.3325 -0.0534  0.0619
 7872TIP3    H245108   0.586   5.767   4.872 -0.4004  0.7259 -0.5418
 7873TIP3   OH245109   2.127   1.742  13.742 -0.2766  0.5346  0.2814
 7873TIP3    H145110   2.097   1.740  13.833  0.0977  0.3966  0.4014
 7873TIP3    H245111   2.157   1.653  13.725 -3.3139 -0.3088 -0.9724
 7874TIP3   OH245112   6.353   0.139   6.391 -0.4186  0.5216 -0.4162
 7874TIP3    H145113   6.371   0.201   6.321 -1.4645  2.5966  1.0795
 7874TIP3    H245114   6.276   0.174   6.436  0.0208 -0.9054  1.5624
 7875TIP3   OH245115   6.667   3.583   3.364 -0.3599 -0.4637 -0.2866
 7875TIP3    H145116   6.726   3.638   3.417 -0.6893 -1.1019  0.7619
 7875TIP3    H245117   6.591   3.570   3.421 -1.4962  0.3031 -1.6054
 7876TIP3   OH245118   1.860   2.464  15.397  0.2391 -0.1193 -0.3178
 7876TIP3    H145119   1.793   2.532  15.394  0.2425 -0.0958  0.1482
 7876TIP3    H245120   1.935   2.505  15.438 -0.1002 -0.6937  0.9024
 7877TIP3   OH245121   2.709   2.574  13.673  0.1280  0.0303 -0.3001
 7877TIP3    H145122   2.735   2.484  13.694 -0.3246 -0.2739 -1.0086
 7877TIP3    H245123   2.692   2.572  13.579  1.0568  1.0966 -0.5003
 7878TIP3   OH245124   5.189   2.226   5.532  0.0713 -0.0256  0.1700
 7878TIP3    H145125   5.213   2.278   5.608  0.5448  2.8187 -1.8370
 7878TIP3    H245126   5.267   2.227   5.476 -0.4990 -1.4299 -0.6675
 7879TIP3   OH245127   5.401   6.050  12.956 -0.2679 -0.6495  0.3285
 7879TIP3    H145128   5.359   6.124  12.912  1.1559 -0.5274 -0.8716
 7879TIP3    H245129   5.451   6.089  13.027 -0.2753 -0.5397  0.2749
 7880TIP3   OH245130   2.312   1.105  16.993 -0.1217 -0.1470  0.2220
 7880TIP3    H145131   2.302   1.193  16.956 -1.2973 -1.0821 -1.7515
 7880TIP3    H245132   2.392   1.071  16.955 -0.9855 -0.8645 -0.9688
 7881TIP3   OH245133   4.396   6.199  13.172  0.5728 -0.0048  0.7281
 7881TIP3    H145134   4.457   6.216  13.100  0.8447 -0.4652  0.8470
 7881TIP3    H245135   4.370   6.286  13.202  1.5780  0.2072  1.0162
 7882TIP3   OH245136   2.083   2.575   5.399 -0.0390  0.1841 -0.3361
 7882TIP3    H145137   2.178   2.580   5.388  0.1660  0.2728  1.3454
 7882TIP3    H245138   2.054   2.667   5.395  0.2092  0.3409  1.2637
 7883TIP3   OH245139   3.471   5.963   3.848  0.1471  0.1900 -0.9454
 7883TIP3    H145140   3.458   6.023   3.921  0.7745 -1.4085  0.5103
 7883TIP3    H245141   3.562   5.936   3.855 -0.3669 -1.6110 -1.0548
 7884TIP3   OH245142   3.832   5.509  11.456  0.1092  0.3824 -0.0669
 7884TIP3    H145143   3.910   5.560  11.476  1.3021 -2.0603  1.8265
 7884TIP3    H245144   3.764   5.574  11.438  1.7931  2.5915  1.3544
 7885TIP3   OH245145   3.088   0.058   4.309 -0.2867  0.5055  0.1809
 7885TIP3    H145146   3.119  -0.024   4.348 -0.0930  0.4412 -0.1070
 7885TIP3    H245147   3.020   0.089   4.369 -2.0171 -1.0883 -0.9374
 7886TIP3   OH245148   4.819   5.841   3.517  0.1255 -0.3985  0.3759
 7886TIP3    H145149   4.888   5.903   3.496 -0.4553 -0.3532 -1.5088
 7886TIP3    H245150   4.763   5.886   3.580  0.0592  0.7620 -0.5034
 7887TIP3   OH245151   1.711   2.940   2.130 -0.7471  0.5679  0.0572
 7887TIP3    H145152   1.653   3.009   2.099 -0.1278  1.2671  0.4563
 7887TIP3    H245153   1.756   2.978   2.205 -0.1467 -0.1451  0.0657
 7888TIP3   OH245154   6.753   5.874  16.049  0.3506  0.1704  0.5432
 7888TIP3    H145155   6.742   5.780  16.043  1.5575 -0.1135  2.4749
 7888TIP3    H245156   6.842   5.886  16.082  0.4584  2.0116 -0.3217
 7889TIP3   OH245157   5.369   5.312   3.661 -0.1691 -0.0728  0.1169
 7889TIP3    H145158   5.400   5.350   3.743 -2.8910 -1.6478  1.9784
 7889TIP3    H245159   5.334   5.226   3.686 -0.9935 -0.6245 -2.7111
 7890TIP3   OH245160   3.801   0.279   6.752  0.6781 -0.4243  0.2388
 7890TIP3    H145161   3.841   0.362   6.725  1.2766 -0.9244 -0.4478
 7890TIP3    H245162   3.708   0.299   6.764  1.0303  0.6126  1.2366
 7891TIP3   OH245163   1.147   3.835   2.229  0.7211  0.3824 -0.0432
 7891TIP3    H145164   1.173   3.854   2.319 -2.2845  3.1107  0.3592
 7891TIP3    H245165   1.147   3.920   2.185 -0.2458 -0.5479 -1.9138
 7892TIP3   OH245166   0.135   5.414   4.215 -0.2524  0.4075 -0.5491
 7892TIP3    H145167   0.163   5.483   4.154  0.4625 -0.9942 -1.8541
 7892TIP3    H245168   0.074   5.458   4.275 -0.1502  2.0694 -1.6217
 7893TIP3   OH245169   5.757   2.166   2.525  0.2421  0.8343  0.1086
 7893TIP3    H145170   5.706   2.193   2.448  0.1828  2.2398  0.6234
 7893TIP3    H245171   5.828   2.113   2.489 -1.2754 -0.7243 -0.6699
 7894TIP3   OH245172   4.868   2.770   0.138 -0.1935  0.7438  0.0755
 7894TIP3    H145173   4.848   2.703   0.203  1.5289 -0.3274 -0.4713
 7894TIP3    H245174   4.924   2.833   0.184  1.7870 -0.4959 -0.5901
 7895TIP3   OH245175   3.809   6.390  11.300  0.3247 -0.1682  0.1192
 7895TIP3    H145176   3.766   6.360  11.380  1.9277 -1.1729  0.6316
 7895TIP3    H245177   3.745   6.373  11.230 -0.7650 -0.0384  1.0663
 7896TIP3   OH245178   1.381   2.716  16.473 -0.1401 -0.7575  0.4699
 7896TIP3    H145179   1.303   2.674  16.508 -1.5328 -0.2823 -1.9002
 7896TIP3    H245180   1.348   2.771  16.401  2.1254  1.0914  0.7775
 7897TIP3   OH245181   3.016   1.819   2.019 -0.6313  0.0148 -0.1120
 7897TIP3    H145182   3.064   1.736   2.028  2.0107  1.3234 -1.6165
 7897TIP3    H245183   3.008   1.851   2.108  0.1786 -0.8659  0.2945
 7898TIP3   OH245184   4.245   6.102   2.707  0.1691  0.1972 -0.5081
 7898TIP3    H145185   4.295   6.181   2.729 -0.0907  0.1406  0.3069
 7898TIP3    H245186   4.301   6.029   2.733  0.7005  0.0999 -1.9075
 7899TIP3   OH245187   1.896   1.745   0.669  0.2311 -0.2691  0.2392
 7899TIP3    H145188   1.946   1.825   0.684 -0.5406  0.1161  0.8007
 7899TIP3    H245189   1.937   1.681   0.728 -0.3670  0.2295  1.2090
 7900TIP3   OH245190   4.267   1.777   5.618  0.1672 -0.2169 -0.6856
 7900TIP3    H145191   4.222   1.789   5.534  0.1316 -0.0898 -0.6485
 7900TIP3    H245192   4.206   1.726   5.671 -0.6923  1.4875 -0.0045
 7901TIP3   OH245193   4.122   2.170  14.536  0.4597  0.0876  0.0290
 7901TIP3    H145194   4.147   2.189  14.445  0.7890  1.0058  0.3037
 7901TIP3    H245195   4.203   2.183  14.586  0.5829 -1.6142  0.2998
 7902TIP3   OH245196   1.430   5.969  14.757 -0.1061 -0.1888  0.0096
 7902TIP3    H145197   1.339   5.995  14.742  0.0072  0.0662 -0.2465
 7902TIP3    H245198   1.447   5.903  14.690 -0.0539 -0.1180 -0.0475
 7903TIP3   OH245199   5.524   2.914  12.439 -0.2379 -0.5944  0.1158
 7903TIP3    H145200   5.567   2.909  12.524 -1.1144 -0.1843  0.5892
 7903TIP3    H245201   5.430   2.910  12.459 -0.4801  0.4919 -0.7575
 7904TIP3   OH245202   4.579   1.548   5.000 -0.2175 -0.0431  0.6980
 7904TIP3    H145203   4.556   1.530   4.909  2.7609 -0.0191 -0.0869
 7904TIP3    H245204   4.498   1.530   5.049 -1.3623 -1.7183 -1.7353
 7905TIP3   OH245205   0.031   2.205   0.586 -0.2568  0.2376  0.6654
 7905TIP3    H145206  -0.009   2.203   0.673  0.3394 -2.5246  0.9304
 7905TIP3    H245207   0.123   2.182   0.602 -0.1661 -0.4194 -0.6999
 7906TIP3   OH245208   0.972   6.242  17.272  0.0650  1.0252 -0.0477
 7906TIP3    H145209   0.904   6.227  17.207 -0.1157  0.1731  0.3376
 7906TIP3    H245210   0.978   6.337  17.279 -0.6096  1.1071 -0.5732
 7907TIP3   OH245211   3.390   6.774   4.433 -0.9298 -0.1441  0.2301
 7907TIP3    H145212   3.433   6.737   4.357  1.4379 -2.1200  2.4797
 7907TIP3    H245213   3.389   6.869   4.416 -0.5208 -0.5470 -2.2311
 7908TIP3   OH245214   3.401   4.638   5.068 -0.1892  0.5301  0.4393
 7908TIP3    H145215   3.412   4.646   4.973  0.7321 -3.4547  0.1321
 7908TIP3    H245216   3.379   4.726   5.097  2.0333  2.3497 -3.1309
 7909TIP3   OH245217   5.564   3.131  11.114  0.7065  0.3681  0.0209
 7909TIP3    H145218   5.588   3.139  11.022  0.2994 -0.0820 -0.1245
 7909TIP3    H245219   5.495   3.196  11.127  2.8257  2.5776  0.7443
 7910TIP3   OH245220   3.694   5.646   0.642 -0.3431  0.4008 -0.5485
 7910TIP3    H145221   3.643   5.606   0.572 -1.3807  1.2436 -0.2941
 7910TIP3    H245222   3.637   5.641   0.719  1.3906 -1.9434  0.6466
 7911TIP3   OH245223   3.739   2.214   5.987 -0.0997  0.1008 -0.4490
 7911TIP3    H145224   3.810   2.276   5.968  0.8296 -0.5400  0.9463
 7911TIP3    H245225   3.695   2.250   6.064  0.2599 -0.8077  0.1899
 7912TIP3   OH245226   3.922   3.514   3.236 -0.2228  0.1818 -0.2267
 7912TIP3    H145227   3.906   3.486   3.146  2.0166  0.2128 -0.6455
 7912TIP3    H245228   3.969   3.441   3.276 -1.7050 -0.0847  1.1232
 7913TIP3   OH245229   6.128   2.721   1.983 -0.4664  0.4252 -0.4262
 7913TIP3    H145230   6.133   2.783   1.910 -1.0644  0.3465 -0.5338
 7913TIP3    H245231   6.124   2.635   1.941 -0.0470  0.3359 -0.2847
 7914TIP3   OH245232   0.156   2.456  11.687  0.1412  0.2960 -0.5477
 7914TIP3    H145233   0.141   2.445  11.593 -0.2709  0.7878 -0.5435
 7914TIP3    H245234   0.215   2.531  11.693  0.5718 -0.0467 -0.4350
 7915TIP3   OH245235   1.884   0.164  14.686 -0.9841 -0.6034  0.0083
 7915TIP3    H145236   1.836   0.103  14.631 -0.2314 -1.0618 -0.1481
 7915TIP3    H245237   1.838   0.248  14.676 -0.0674 -0.3694 -2.3416
 7916TIP3   OH245238   6.474   6.310  14.362  0.0777  0.3368  0.4346
 7916TIP3    H145239   6.517   6.312  14.448 -0.9275 -0.7250  0.9708
 7916TIP3    H245240   6.383   6.291  14.381 -0.4670  1.6619 -0.7776
 7917TIP3   OH245241   4.987   0.736  13.684  0.1004  0.1876  0.8867
 7917TIP3    H145242   5.004   0.829  13.667  1.0873 -0.3299 -1.0972
 7917TIP3    H245243   4.974   0.731  13.779  0.3027  2.3059  1.0525
 7918TIP3   OH245244   3.797   6.500   1.150  0.3438  0.2522  0.2434
 7918TIP3    H145245   3.846   6.556   1.211  0.1123  0.4990  0.2086
 7918TIP3    H245246   3.824   6.411   1.171  0.4647  0.3559  0.5281
 7919TIP3   OH245247   5.561   6.247  15.080 -0.4216  0.0992 -0.1829
 7919TIP3    H145248   5.473   6.243  15.117 -0.7748  2.4150 -0.6615
 7919TIP3    H245249   5.566   6.334  15.040  2.0279 -0.0625 -0.3111
 7920TIP3   OH245250   4.200   2.090   5.278  0.0237 -0.9162  0.3541
 7920TIP3    H145251   4.177   2.144   5.354 -1.4025  0.3486 -0.9381
 7920TIP3    H245252   4.290   2.115   5.258 -0.5405  0.8707 -0.0947
 7921TIP3   OH245253   1.602   2.438   0.596 -0.0805  0.0278  0.0985
 7921TIP3    H145254   1.538   2.499   0.559  1.7725  1.1732 -1.3292
 7921TIP3    H245255   1.601   2.457   0.690 -1.7466  0.0977  0.0863
 7922TIP3   OH245256   5.856   5.113  15.715  0.0955  0.6782  0.3458
 7922TIP3    H145257   5.805   5.033  15.731 -0.3744  1.3129  2.0245
 7922TIP3    H245258   5.813   5.154  15.639 -0.2233 -0.1770  0.0541
 7923TIP3   OH245259   5.774   2.091  12.864 -0.0542 -0.4352 -0.3779
 7923TIP3    H145260   5.741   2.034  12.794  0.2153 -1.2373  0.1472
 7923TIP3    H245261   5.798   2.172  12.819 -2.7680  0.2040 -0.7862
 7924TIP3   OH245262   4.514   1.350  12.600  0.6806 -0.0037  0.2564
 7924TIP3    H145263   4.541   1.385  12.515  1.3562  1.5847  1.1169
 7924TIP3    H245264   4.467   1.269  12.578 -1.8728  1.9695 -1.8406
 7925TIP3   OH245265   5.358   1.773  11.101 -0.0511 -0.3291  0.0602
 7925TIP3    H145266   5.346   1.735  11.014  1.5631 -0.1888 -0.2385
 7925TIP3    H245267   5.400   1.703  11.152 -1.0407 -0.4311  0.7446
 7926TIP3   OH245268   3.042   1.353   0.555 -0.2952  0.1653 -0.1378
 7926TIP3    H145269   3.110   1.394   0.608 -0.4806 -0.0438  0.2684
 7926TIP3    H245270   2.977   1.323   0.619  0.2811 -1.5742 -0.3395
 7927TIP3   OH245271   2.479   6.663  15.264 -0.3317  0.3818  0.1280
 7927TIP3    H145272   2.398   6.613  15.260 -0.1210  0.0356  0.2332
 7927TIP3    H245273   2.467   6.733  15.200 -0.4138 -0.1120 -0.4024
 7928TIP3   OH245274   4.962   2.247   0.950 -0.3642  0.9597 -0.7289
 7928TIP3    H145275   4.992   2.321   1.004  0.5729 -0.0370  0.1592
 7928TIP3    H245276   5.027   2.241   0.880 -0.5051  1.0514 -0.8667
 7929TIP3   OH245277   5.209   2.878  16.424 -0.2846  0.0091 -0.2747
 7929TIP3    H145278   5.273   2.812  16.451 -0.4433  0.2201  0.6146
 7929TIP3    H245279   5.259   2.939  16.371  0.6413  1.0940  1.7931
 7930TIP3   OH245280   1.169   3.011  11.154  0.3589  0.1893  0.6823
 7930TIP3    H145281   1.218   2.953  11.212  0.4160  0.6825  1.1320
 7930TIP3    H245282   1.179   2.972  11.067 -0.1804 -0.8568  1.0818
 7931TIP3   OH245283   4.834   1.885   4.577  0.2718 -0.0399 -0.4175
 7931TIP3    H145284   4.822   1.945   4.650  1.5399  0.9766 -1.0237
 7931TIP3    H245285   4.750   1.885   4.532 -0.1371  0.2573  0.3377
 7932TIP3   OH245286   2.373   6.635   3.929 -0.4096 -0.0993 -0.1774
 7932TIP3    H145287   2.467   6.652   3.937 -0.8281  1.7856  1.1751
 7932TIP3    H245288   2.367   6.556   3.875  1.9317 -0.0455 -0.5639
 7933TIP3   OH245289   2.171   0.218  16.779  0.0915 -0.5564  0.3089
 7933TIP3    H145290   2.255   0.174  16.789  0.5615  0.1024 -0.7423
 7933TIP3    H245291   2.193   0.309  16.761 -0.8249 -0.5670 -0.9087
 7934TIP3   OH245292   2.015   5.867   5.065  0.3029  0.2173 -0.0396
 7934TIP3    H145293   2.093   5.907   5.026  1.0561  0.2253  1.4445
 7934TIP3    H245294   2.049   5.814   5.137 -0.9880 -0.4843  0.0630
 7935TIP3   OH245295   6.304   5.731   4.992 -0.6114 -0.2828 -0.3656
 7935TIP3    H145296   6.345   5.783   5.061 -1.1023 -0.6798  0.2252
 7935TIP3    H245297   6.280   5.795   4.925  0.2708  0.0463 -0.3748
 7936TIP3   OH245298   4.101   2.872   0.933 -0.1309  0.1346  0.3057
 7936TIP3    H145299   4.191   2.895   0.958 -0.5407  1.7021  0.3774
 7936TIP3    H245300   4.098   2.892   0.839 -0.8440  1.5503  0.6176
 7937TIP3   OH245301   4.089   4.768  12.068 -0.4726  0.2587  0.1011
 7937TIP3    H145302   4.098   4.724  12.152 -2.5705 -0.0911  0.1754
 7937TIP3    H245303   4.177   4.772  12.033  0.2600 -0.6288  1.7998
 7938TIP3   OH245304   2.280   0.298   1.276 -0.3474 -0.0883  0.8535
 7938TIP3    H145305   2.252   0.361   1.211 -3.4468 -2.3749 -0.1754
 7938TIP3    H245306   2.253   0.336   1.360 -1.0257  0.5034  0.3647
 7939TIP3   OH245307   0.516   3.902   1.153 -0.4524  0.1664 -0.5162
 7939TIP3    H145308   0.498   3.971   1.216  1.1650 -0.4315  0.6383
 7939TIP3    H245309   0.459   3.830   1.179 -0.3050  0.1700 -0.1880
 7940TIP3   OH245310   4.219   3.910   4.025  0.7786 -0.3415  0.4608
 7940TIP3    H145311   4.285   3.893   4.093 -1.2811  0.2977  2.6656
 7940TIP3    H245312   4.161   3.834   4.028  0.5693 -0.2182 -0.4486
 7941TIP3   OH245313   3.369   0.743  14.023 -0.1607  0.1071  0.1204
 7941TIP3    H145314   3.385   0.649  14.016  0.0130  0.1755 -0.4204
 7941TIP3    H245315   3.451   0.784  13.997 -0.6001  0.4275 -0.7635
 7942TIP3   OH245316   2.672   0.106   3.061 -0.1917 -0.1258  0.2028
 7942TIP3    H145317   2.724   0.184   3.041 -0.6380 -0.4943 -2.4641
 7942TIP3    H245318   2.737   0.038   3.078  0.2320 -0.1571 -1.4507
 7943TIP3   OH245319   1.614   0.669  16.898  0.0252  0.0558  0.0137
 7943TIP3    H145320   1.702   0.683  16.932  0.3628  0.1445 -0.8781
 7943TIP3    H245321   1.598   0.575  16.907  0.3775 -0.0262 -0.2154
 7944TIP3   OH245322   3.017   5.030  11.827 -0.0321  0.3315  0.2000
 7944TIP3    H145323   3.082   4.971  11.787 -1.8965 -0.9942 -0.9550
 7944TIP3    H245324   3.017   5.006  11.920 -1.7246 -2.4814 -0.4747
 7945TIP3   OH245325   4.606   1.917  14.759  0.3251  0.2015  0.0810
 7945TIP3    H145326   4.518   1.952  14.750  0.2335  0.2211  1.0068
 7945TIP3    H245327   4.657   1.962  14.692 -0.3854  0.1277 -0.5071
 7946TIP3   OH245328   2.663   6.255  10.675 -0.1469 -0.3956 -0.0459
 7946TIP3    H145329   2.686   6.289  10.589 -1.4313 -0.8743 -0.5881
 7946TIP3    H245330   2.605   6.321  10.712  0.6860 -0.0221  0.6023
 7947TIP3   OH245331   0.583   2.400   3.281  0.6515 -0.0293 -0.2309
 7947TIP3    H145332   0.641   2.325   3.265  0.2752 -0.5672  0.8242
 7947TIP3    H245333   0.635   2.460   3.334  0.7196  0.1347 -0.4841
 7948TIP3   OH245334   3.666   1.737  12.094  0.1209 -0.1202 -0.3241
 7948TIP3    H145335   3.602   1.707  12.159  0.4000  1.5969  0.7672
 7948TIP3    H245336   3.726   1.792  12.144  1.2282 -0.0271 -1.7548
 7949TIP3   OH245337   4.779   1.970  13.300  1.2389 -0.1341  0.0938
 7949TIP3    H145338   4.874   1.980  13.298  1.0566  1.6868 -1.2010
 7949TIP3    H245339   4.755   1.954  13.208  0.3560 -1.2385  0.5025
 7950TIP3   OH245340   1.676   0.967  12.070  0.3534 -0.6531 -0.6614
 7950TIP3    H145341   1.742   0.955  12.002 -0.4636  2.4434 -2.0928
 7950TIP3    H245342   1.595   0.983  12.021 -0.9244 -1.6192  1.0797
 7951TIP3   OH245343   0.947   0.491   5.140  0.7178 -0.0369  0.2439
 7951TIP3    H145344   0.895   0.552   5.192  2.5384  0.7257  1.2022
 7951TIP3    H245345   0.882   0.437   5.095 -0.9329  2.2718 -0.2533
 7952TIP3   OH245346   1.030   3.528  12.724 -0.1776  0.0667  0.0025
 7952TIP3    H145347   1.065   3.587  12.791 -0.0350  1.2022 -1.0463
 7952TIP3    H245348   1.106   3.507  12.670 -0.1290 -1.4853  0.6411
 7953TIP3   OH245349   0.560   6.469  12.532  0.4627  0.0088  0.1506
 7953TIP3    H145350   0.471   6.489  12.504  0.6545 -0.5590 -0.8797
 7953TIP3    H245351   0.615   6.520  12.473  0.7975  1.5647  1.7634
 7954TIP3   OH245352   1.563   2.824   4.810 -0.2289  0.0000  0.7855
 7954TIP3    H145353   1.629   2.755   4.803 -2.4465 -2.0196 -1.0876
 7954TIP3    H245354   1.502   2.792   4.876 -0.0921  1.2368  1.5310
 7955TIP3   OH245355   1.584   0.690  14.202 -0.4249 -0.5205 -0.2413
 7955TIP3    H145356   1.580   0.612  14.257  0.9624  0.0065  0.6406
 7955TIP3    H245357   1.511   0.744  14.232  0.2653 -0.2783  1.0323
 7956TIP3   OH245358   0.973   5.225   1.864 -0.1788  0.0248  0.3566
 7956TIP3    H145359   0.932   5.166   1.927  0.1132  0.0534  0.5741
 7956TIP3    H245360   0.991   5.305   1.913  2.2484 -0.7949  0.8961
 7957TIP3   OH245361   3.488   1.685   1.154 -0.5821 -0.0849 -0.4592
 7957TIP3    H145362   3.420   1.686   1.086 -0.2498 -2.9809 -0.9045
 7957TIP3    H245363   3.449   1.637   1.227  0.3295 -0.1363  0.0037
 7958TIP3   OH245364   1.838   3.209   1.127 -0.0461 -0.3837 -0.3820
 7958TIP3    H145365   1.930   3.189   1.141  0.0174  0.2171  0.0636
 7958TIP3    H245366   1.836   3.303   1.108 -0.8188  0.1291  2.0796
 7959TIP3   OH245367   2.220   1.770  15.492 -0.6282  0.4521 -0.1596
 7959TIP3    H145368   2.268   1.793  15.412 -0.3080 -0.4111 -0.2178
 7959TIP3    H245369   2.288   1.748  15.556 -0.9080  0.2607  0.0752
 7960TIP3   OH245370   2.485   3.316  15.080  0.1523 -0.3806  0.0333
 7960TIP3    H145371   2.568   3.337  15.038  0.8373  2.5280  2.7239
 7960TIP3    H245372   2.426   3.387  15.055  0.0927  0.5000  2.6021
 7961TIP3   OH245373   4.688   3.498  16.273 -0.3119  0.3241  0.3679
 7961TIP3    H145374   4.738   3.563  16.224  1.3809 -1.1606  0.1051
 7961TIP3    H245375   4.603   3.495  16.227  1.5309 -1.6803 -3.1365
 7962TIP3   OH245376   1.415   6.256  17.245  0.1411 -0.3478  0.0994
 7962TIP3    H145377   1.416   6.324  17.178  0.7010  0.4914  0.9403
 7962TIP3    H245378   1.352   6.288  17.310  0.9867 -0.2549  0.8805
 7963TIP3   OH245379   5.391   6.650   5.480 -0.4989 -0.0103 -0.5752
 7963TIP3    H145380   5.457   6.593   5.440 -0.4635 -0.1631 -0.3005
 7963TIP3    H245381   5.348   6.595   5.545 -1.3109 -0.0906 -1.1717
 7964TIP3   OH245382   6.022   2.423   3.433  0.0521  0.1346  0.6740
 7964TIP3    H145383   6.064   2.359   3.375  1.3352 -0.1643  1.8970
 7964TIP3    H245384   5.935   2.386   3.449  0.2070 -0.5030  0.0956
 7965TIP3   OH245385   5.452   1.050   1.503 -0.2095  0.1927  0.4794
 7965TIP3    H145386   5.524   1.081   1.447 -0.4577  1.1862  0.7017
 7965TIP3    H245387   5.463   0.955   1.505 -0.1062  0.1461 -1.1442
 7966TIP3   OH245388   0.734   3.510   3.358 -0.8440  0.0469 -0.4644
 7966TIP3    H145389   0.659   3.488   3.413  0.3721  0.8297  1.5578
 7966TIP3    H245390   0.795   3.437   3.370 -0.3905  0.4308 -0.4368
 7967TIP3   OH245391   2.876   6.430   0.236 -0.5206 -0.7514  0.4260
 7967TIP3    H145392   2.870   6.473   0.150 -2.2767 -0.4685  0.6685
 7967TIP3    H245393   2.788   6.439   0.273  0.6174  0.5201  2.9188
 7968TIP3   OH245394   0.965   3.295   6.275 -0.3071  0.0819  0.6108
 7968TIP3    H145395   0.903   3.331   6.338  0.3159 -1.3579  2.1061
 7968TIP3    H245396   0.961   3.200   6.289  0.2184 -0.2270 -1.1794
 7969TIP3   OH245397   1.647   5.310  11.640 -0.2710  0.3682  0.2579
 7969TIP3    H145398   1.658   5.236  11.580 -3.4442  0.2948 -0.3016
 7969TIP3    H245399   1.652   5.387  11.584  0.4295  0.4668  0.4535
 7970TIP3   OH245400   4.514   0.439   2.207  0.4955 -0.3473 -0.3061
 7970TIP3    H145401   4.580   0.389   2.159  2.4156  0.9249  0.8912
 7970TIP3    H245402   4.547   0.529   2.206 -1.6074  0.4568 -0.2849
 7971TIP3   OH245403   3.783   6.339  14.736 -0.4613 -0.2492  0.3855
 7971TIP3    H145404   3.860   6.306  14.781 -0.6424  1.4162  1.9634
 7971TIP3    H245405   3.805   6.430  14.715 -1.6256 -0.0537 -0.0319
 7972TIP3   OH245406   3.800   6.094  16.568 -0.3390 -0.0469 -0.0865
 7972TIP3    H145407   3.829   6.034  16.499  3.5380  0.9665  0.5211
 7972TIP3    H245408   3.802   6.180  16.527  0.2411  0.3663  0.8040
 7973TIP3   OH245409   2.453   5.875   2.637 -0.3511  0.2668 -0.0295
 7973TIP3    H145410   2.513   5.928   2.584 -0.5478 -1.2060 -1.7911
 7973TIP3    H245411   2.386   5.937   2.667  1.3960  1.6952  0.9680
 7974TIP3   OH245412   1.479   3.935   5.224  0.1177  0.5088  0.1891
 7974TIP3    H145413   1.553   3.895   5.178 -0.7321 -0.4918 -0.3461
 7974TIP3    H245414   1.519   3.990   5.291  1.3465  0.2208 -0.2913
 7975TIP3   OH245415   4.173   0.280   0.392 -0.0737 -0.3485 -0.5125
 7975TIP3    H145416   4.226   0.294   0.314 -2.5515 -2.3559 -2.6806
 7975TIP3    H245417   4.151   0.187   0.390 -0.6801 -0.3152  2.2795
 7976TIP3   OH245418   4.456   0.377   4.949  0.2715 -0.5090  0.3718
 7976TIP3    H145419   4.545   0.402   4.973  0.7180 -0.5530 -1.1508
 7976TIP3    H245420   4.405   0.391   5.028  1.5314  0.0330  1.1117
 7977TIP3   OH245421   1.811   6.763   1.617  0.5327  0.5615 -0.8363
 7977TIP3    H145422   1.844   6.673   1.610 -1.0593 -0.3621  2.4210
 7977TIP3    H245423   1.859   6.801   1.691 -1.4724  1.0811  0.2562
 7978TIP3   OH245424   3.509   1.149  14.689 -0.2853 -0.1530 -0.1838
 7978TIP3    H145425   3.573   1.158  14.618 -0.3401 -0.5969 -0.2883
 7978TIP3    H245426   3.517   1.231  14.738  2.7173 -1.5092  1.7622
 7979TIP3   OH245427   0.277   3.581   3.980 -0.3134 -0.4275  0.2564
 7979TIP3    H145428   0.272   3.670   4.014 -1.7639 -0.2355 -0.4212
 7979TIP3    H245429   0.339   3.587   3.907  0.2481 -0.1667  0.7456
 7980TIP3   OH245430   1.611   0.650   3.065 -0.1460 -0.4008  0.7982
 7980TIP3    H145431   1.564   0.714   3.118 -1.1727 -1.4197  1.1432
 7980TIP3    H245432   1.560   0.569   3.073  1.1009 -1.2641  0.3512
 7981TIP3   OH245433   5.870   2.856  14.189 -0.0685 -0.4655  0.0693
 7981TIP3    H145434   5.944   2.795  14.188 -0.6763 -1.2103 -0.4000
 7981TIP3    H245435   5.824   2.836  14.270 -0.9149 -1.4409 -0.6313
 7982TIP3   OH245436   3.721   5.711  11.680  0.2340  0.3530  0.2832
 7982TIP3    H145437   3.657   5.650  11.716  1.0690 -0.0184  1.1710
 7982TIP3    H245438   3.800   5.696  11.732  0.7516  1.4800 -0.1639
 7983TIP3   OH245439   6.668   2.733   3.481  0.1362 -0.3226 -0.3282
 7983TIP3    H145440   6.731   2.765   3.416  1.1000 -1.5268  0.0047
 7983TIP3    H245441   6.624   2.813   3.512  1.8824  0.6080 -0.1626
 7984TIP3   OH245442   2.743   4.374   2.299 -0.1152 -0.0129  0.1336
 7984TIP3    H145443   2.799   4.299   2.283  0.5858  0.7677 -1.0974
 7984TIP3    H245444   2.721   4.368   2.392  0.9236 -1.0552  0.3161
 7985TIP3   OH245445   1.326   3.205  16.936  0.5059  0.0325 -0.3850
 7985TIP3    H145446   1.281   3.285  16.907  0.3002 -0.0423 -0.2763
 7985TIP3    H245447   1.381   3.180  16.862 -1.4519 -1.2196 -1.4726
 7986TIP3   OH245448   3.104   4.876  11.157 -0.2844 -0.4713 -0.1616
 7986TIP3    H145449   3.119   4.820  11.233 -2.2107 -0.2956  0.3575
 7986TIP3    H245450   3.070   4.817  11.090 -0.9243 -0.1707 -0.0975
 7987TIP3   OH245451   0.486   0.991  12.553 -0.0308  0.2534  0.7304
 7987TIP3    H145452   0.511   0.995  12.645  0.2811 -1.2476  0.7201
 7987TIP3    H245453   0.536   0.917  12.518 -0.8557  0.2336 -0.4244
 7988TIP3   OH245454   6.311   0.597  12.677 -0.1043 -0.1334  0.1917
 7988TIP3    H145455   6.374   0.668  12.668  1.2976 -1.0677  2.2721
 7988TIP3    H245456   6.236   0.625  12.625  0.8414  2.3834  0.1128
 7989TIP3   OH245457   3.003   1.880  15.472 -0.0667  0.1151  0.3382
 7989TIP3    H145458   3.075   1.838  15.520 -0.4482 -0.0531  0.7681
 7989TIP3    H245459   2.948   1.919  15.541 -0.2318  0.4892 -0.0023
 7990TIP3   OH245460   0.558   5.759  14.944 -0.3006 -0.3106 -0.2171
 7990TIP3    H145461   0.595   5.744  15.031  0.6785  1.0655 -0.3865
 7990TIP3    H245462   0.599   5.840  14.914 -2.3020  0.4121 -1.0508
 7991TIP3   OH245463   3.361   5.977  10.677  0.2138  0.6057 -0.2544
 7991TIP3    H145464   3.398   6.047  10.731 -0.5886  0.8802 -0.0575
 7991TIP3    H245465   3.398   5.992  10.590 -1.5592  2.5307 -0.7196
 7992TIP3   OH245466   3.578   2.177  13.198  0.2197 -0.6139 -0.1644
 7992TIP3    H145467   3.515   2.139  13.138 -0.3878  0.3030 -0.1263
 7992TIP3    H245468   3.525   2.229  13.259  0.8027 -1.7535  1.3352
 7993TIP3   OH245469   6.304   4.490   4.862 -0.3039 -0.3325  0.3507
 7993TIP3    H145470   6.282   4.541   4.940  0.4655  1.9642 -0.8707
 7993TIP3    H245471   6.256   4.533   4.792  1.7878 -0.1402 -1.0166
 7994TIP3   OH245472   6.600   4.357   3.323 -0.2091 -0.3764  0.0892
 7994TIP3    H145473   6.654   4.297   3.373 -0.5208 -1.3065 -0.6586
 7994TIP3    H245474   6.655   4.433   3.307 -0.1339 -0.0323  1.8859
 7995TIP3   OH245475   4.131   5.282   3.096  0.3479 -0.4187  0.4230
 7995TIP3    H145476   4.135   5.302   3.189  0.2916  0.7695  0.1783
 7995TIP3    H245477   4.045   5.313   3.068  0.1577 -1.2447  0.0780
 7996TIP3   OH245478   1.895   4.575   5.854  0.0918  0.0252 -0.2913
 7996TIP3    H145479   1.946   4.557   5.774 -0.0486  2.5754 -1.0076
 7996TIP3    H245480   1.961   4.584   5.922  0.5699  2.1393 -0.9902
 7997TIP3   OH245481   3.754   6.445  15.653 -0.7154 -0.4261  0.0775
 7997TIP3    H145482   3.778   6.473  15.741 -1.0643 -1.9347  0.6747
 7997TIP3    H245483   3.659   6.459  15.648 -0.7409 -0.6124  0.0420
 7998TIP3   OH245484   6.558   1.920   2.316  0.3127  0.3348 -0.2664
 7998TIP3    H145485   6.540   1.970   2.396  3.6358 -0.4233  1.0415
 7998TIP3    H245486   6.512   1.837   2.331  0.0651  0.5806  0.4046
 7999TIP3   OH245487   0.829   3.687  16.723 -0.3683 -0.2006 -0.5694
 7999TIP3    H145488   0.800   3.778  16.714  0.3305  0.0418 -0.3725
 7999TIP3    H245489   0.862   3.663  16.636 -1.5796 -0.6322 -0.9238
 8000TIP3   OH245490   0.741   4.791   0.058 -0.2076 -0.2607 -0.0228
 8000TIP3    H145491   0.669   4.850   0.037 -1.4450 -1.6278  0.2668
 8000TIP3    H245492   0.698   4.710   0.085  1.4644 -1.9180 -2.1620
 8001TIP3   OH245493   4.858   4.032  16.074  0.2438 -0.5291 -0.4626
 8001TIP3    H145494   4.774   4.003  16.037  0.0025 -0.2183 -0.1576
 8001TIP3    H245495   4.852   4.010  16.167  0.7298 -1.0277 -0.5425
 8002TIP3   OH245496   0.027   1.162  12.605  0.3641  0.1677  0.0934
 8002TIP3    H145497  -0.049   1.219  12.620  0.1325 -0.0102 -0.3913
 8002TIP3    H245498   0.071   1.200  12.529 -2.0268 -2.5653 -2.7987
 8003TIP3   OH245499   1.568   1.642   4.279 -0.1845  0.5165 -0.0000
 8003TIP3    H145500   1.485   1.622   4.235 -1.1008 -0.6002  2.1285
 8003TIP3    H245501   1.550   1.625   4.372  2.0420  1.5730  0.6600
 8004TIP3   OH245502   2.770   0.492   1.207 -0.5469 -0.0028  0.5171
 8004TIP3    H145503   2.692   0.458   1.250 -1.7387  1.3437 -0.5146
 8004TIP3    H245504   2.750   0.584   1.190  0.6825  0.0072 -1.0354
 8005TIP3   OH245505   2.567   5.135   1.445 -0.5701 -0.7008 -0.0655
 8005TIP3    H145506   2.529   5.211   1.402  0.0933  1.4433  2.9474
 8005TIP3    H245507   2.494   5.075   1.458 -1.1481 -0.5071 -2.2806
 8006TIP3   OH245508   4.487   0.836  14.988 -0.3328 -0.1220  0.4148
 8006TIP3    H145509   4.419   0.872  14.931 -0.1089  0.4358  0.4910
 8006TIP3    H245510   4.562   0.895  14.977  0.6845 -1.6069 -0.8433
 8007TIP3   OH245511   2.574   1.998  12.662  0.3005  0.3317 -1.0421
 8007TIP3    H145512   2.510   1.956  12.605 -0.7580  0.5252 -0.0104
 8007TIP3    H245513   2.640   1.931  12.677 -2.5030 -1.8409  2.4589
 8008TIP3   OH245514   1.063   1.120  13.631  0.3627  0.6057 -0.1445
 8008TIP3    H145515   1.053   1.102  13.538 -0.7912 -0.8319  0.2405
 8008TIP3    H245516   1.013   1.201  13.645  0.8036  0.9953 -0.8309
 8009TIP3   OH245517   4.376   2.548   4.339 -0.6452 -0.8314 -0.3153
 8009TIP3    H145518   4.313   2.478   4.321 -0.1551 -1.6554  1.1478
 8009TIP3    H245519   4.372   2.560   4.434 -0.0087  0.4545 -0.4462
 8010TIP3   OH245520   3.093   0.584  16.080 -0.3243  0.6619 -0.1385
 8010TIP3    H145521   3.152   0.591  16.156 -1.1116 -1.4534  0.7010
 8010TIP3    H245522   3.043   0.665  16.081  3.0852  2.8773 -1.3290
 8011TIP3   OH245523   4.777   0.567   0.505 -0.3789 -0.2458  0.0445
 8011TIP3    H145524   4.698   0.542   0.458 -0.1246 -0.6495 -0.1718
 8011TIP3    H245525   4.848   0.524   0.457 -0.0784 -0.3289  0.5585
 8012TIP3   OH245526   5.024   0.243  13.713 -0.5671 -0.6125 -0.3147
 8012TIP3    H145527   5.085   0.270  13.782 -0.6193 -0.9455 -0.1371
 8012TIP3    H245528   5.021   0.147  13.720  1.8820 -0.9365 -2.8183
 8013TIP3   OH245529   2.153   4.007   3.532  0.0854  0.5360  0.0402
 8013TIP3    H145530   2.200   4.089   3.543 -0.0177  0.9362 -2.2563
 8013TIP3    H245531   2.204   3.943   3.582  1.2363  1.6116  0.2664
 8014TIP3   OH245532   2.311   0.780  15.121 -0.2581  0.3727  0.3737
 8014TIP3    H145533   2.368   0.785  15.198  0.4832  0.7266 -0.2030
 8014TIP3    H245534   2.363   0.735  15.055 -0.8996  0.0661  0.0729
 8015TIP3   OH245535   2.468   3.388  14.715  0.5525  0.0385  0.2119
 8015TIP3    H145536   2.507   3.373  14.801  0.9306 -0.9972 -0.1367
 8015TIP3    H245537   2.374   3.375  14.728  0.6432 -0.4492  0.4009
 8016TIP3   OH245538   4.927   4.447  12.355  0.1825 -0.0109  0.4460
 8016TIP3    H145539   4.967   4.389  12.290 -1.3257 -0.1184 -0.3982
 8016TIP3    H245540   5.000   4.501  12.387  1.0779 -0.4795 -0.7664
 8017TIP3   OH245541   2.614   4.888   2.556 -0.0680  0.1059  0.5346
 8017TIP3    H145542   2.527   4.872   2.594  0.2783 -0.3040  1.1650
 8017TIP3    H245543   2.636   4.805   2.513 -0.0053  0.2251  0.3374
 8018TIP3   OH245544   3.412   2.152  13.467 -0.1447 -0.0350 -0.1690
 8018TIP3    H145545   3.506   2.142  13.482  0.0528 -0.9287 -1.9273
 8018TIP3    H245546   3.402   2.240  13.431  0.0183  0.0712  0.0470
 8019TIP3   OH245547   1.541   4.080  14.445  0.0449 -0.7279  0.3724
 8019TIP3    H145548   1.487   4.157  14.427 -1.4458 -1.8670 -0.1853
 8019TIP3    H245549   1.630   4.113  14.450 -0.4702  0.8736 -0.8520
 8020TIP3   OH245550   0.696   0.112   3.395  0.0069 -0.2775  0.1719
 8020TIP3    H145551   0.758   0.179   3.366  0.3626  0.0811  1.7181
 8020TIP3    H245552   0.675   0.136   3.485 -2.2278 -0.5280 -0.2684
 8021TIP3   OH245553   3.406   4.406  12.399 -0.2550 -0.4729 -0.1274
 8021TIP3    H145554   3.410   4.330  12.456  0.7339 -1.1372 -1.0524
 8021TIP3    H245555   3.420   4.481  12.457  2.2229 -1.2321  0.3222
 8022TIP3   OH245556   5.172   1.820  14.161  0.2673  0.5894 -0.2752
 8022TIP3    H145557   5.252   1.852  14.202 -0.3613  1.0444  0.5936
 8022TIP3    H245558   5.165   1.871  14.080  0.3828  1.1800  0.0853
 8023TIP3   OH245559   4.709   2.952  15.341  0.4004  0.0654  0.1136
 8023TIP3    H145560   4.765   2.890  15.388 -1.7328 -1.4759  0.7241
 8023TIP3    H245561   4.769   3.017  15.305  2.5283 -1.3739  0.9804
 8024TIP3   OH245562   0.804   0.120  15.420  0.1297 -0.4988 -0.3090
 8024TIP3    H145563   0.810   0.094  15.328  2.3482 -0.2168 -0.2914
 8024TIP3    H245564   0.743   0.193  15.421 -0.8936 -1.3385 -1.3675
 8025TIP3   OH245565   1.681   1.426   0.675 -0.5229 -0.0897  0.6060
 8025TIP3    H145566   1.719   1.401   0.591 -1.3903 -1.5461  0.6280
 8025TIP3    H245567   1.666   1.521   0.667  1.1991  0.1419 -0.1361
 8026TIP3   OH245568   6.518   3.303  11.137 -0.2029 -0.1074  0.0899
 8026TIP3    H145569   6.492   3.284  11.047  0.5474  1.5170 -0.5026
 8026TIP3    H245570   6.487   3.393  11.152  0.9412  0.1519  0.9493
 8027TIP3   OH245571   1.338   1.442   0.574 -0.3408 -0.2854 -0.3036
 8027TIP3    H145572   1.403   1.507   0.546  0.1965 -1.1262 -1.0502
 8027TIP3    H245573   1.359   1.425   0.666  0.0511 -0.0295 -0.3446
 8028TIP3   OH245574   0.878   0.269   5.311  0.5201 -0.6763  0.7750
 8028TIP3    H145575   0.850   0.178   5.309 -0.3711 -0.3835 -0.6985
 8028TIP3    H245576   0.809   0.314   5.360 -0.9893 -0.1772 -1.7329
 8029TIP3   OH245577   5.826   3.998  16.965  0.1290 -0.2195  0.2715
 8029TIP3    H145578   5.778   4.044  17.034 -0.1974  1.2585 -0.9398
 8029TIP3    H245579   5.817   3.905  16.988 -1.4742  0.1662  1.2461
 8030TIP3   OH245580   1.559   3.330  11.809  0.3738 -0.3324 -0.2899
 8030TIP3    H145581   1.632   3.306  11.753 -0.5706 -2.1026 -0.7977
 8030TIP3    H245582   1.501   3.381  11.752  1.0588  0.8460  0.0430
 8031TIP3   OH245583   0.190   3.611   3.612 -0.4192  0.0695  0.3828
 8031TIP3    H145584   0.147   3.526   3.609 -1.3313  0.5565 -0.6996
 8031TIP3    H245585   0.126   3.672   3.575  0.3171  1.1821  0.9126
 8032TIP3   OH245586   3.176   3.202  16.869  0.1446 -0.3480 -0.6218
 8032TIP3    H145587   3.181   3.124  16.815  1.7134 -0.1406 -0.8221
 8032TIP3    H245588   3.172   3.169  16.959  2.1347 -0.6935 -0.6173
 8033TIP3   OH245589   3.014   3.515   5.019  0.1632 -0.1467 -0.1123
 8033TIP3    H145590   3.037   3.553   4.934  1.6369 -0.6958  0.0400
 8033TIP3    H245591   3.079   3.550   5.079  1.8852 -3.3387 -0.0624
 8034TIP3   OH245592   2.383   0.175   4.585 -0.0633  0.5370 -0.1345
 8034TIP3    H145593   2.461   0.121   4.570 -0.9431 -0.3209 -1.8403
 8034TIP3    H245594   2.325   0.121   4.639  0.2462  0.9190  0.5855
 8035TIP3   OH245595   0.643   6.758   0.185 -0.2449 -0.3471 -0.5868
 8035TIP3    H145596   0.738   6.742   0.179  0.1954  1.2619  1.5425
 8035TIP3    H245597   0.606   6.672   0.203  1.2898 -0.4064  2.7922
 8036TIP3   OH245598   4.180   3.438  10.789  0.0437 -0.0864 -0.5637
 8036TIP3    H145599   4.174   3.487  10.707 -0.4485  0.5142 -0.1745
 8036TIP3    H245600   4.241   3.488  10.842 -0.5043  0.1385 -0.1420
 8037TIP3   OH245601   3.895   3.400   4.247  0.0937 -0.3411 -0.0764
 8037TIP3    H145602   3.879   3.395   4.341 -2.3678 -0.6560 -0.4861
 8037TIP3    H245603   3.943   3.320   4.226 -3.5411 -2.7291  0.1671
 8038TIP3   OH245604   2.842   3.590   6.464 -0.2167 -0.2294 -0.0451
 8038TIP3    H145605   2.780   3.525   6.429 -1.0689 -0.7708  2.4055
 8038TIP3    H245606   2.805   3.615   6.548  1.6047  1.3438  0.3090
 8039TIP3   OH245607   4.332   1.140   0.038  0.0440  0.2832 -0.1894
 8039TIP3    H145608   4.360   1.065   0.090 -1.0503  0.2789  0.4120
 8039TIP3    H245609   4.413   1.185   0.015  0.6175 -0.3468  0.5659
 8040TIP3   OH245610   2.836   1.743  14.291  0.0561  0.2110  0.1514
 8040TIP3    H145611   2.811   1.656  14.260 -0.7219 -0.2462  1.9940
 8040TIP3    H245612   2.930   1.737  14.305  0.2492  0.1178 -1.1126
 8041TIP3   OH245613   2.234   6.355  16.567 -0.6616  0.8008 -0.1090
 8041TIP3    H145614   2.323   6.389  16.558 -1.3139  2.7447  0.6601
 8041TIP3    H245615   2.232   6.317  16.655 -0.4625  0.3016 -0.3146
 8042TIP3   OH245616   3.047   3.267  13.706 -0.1749  0.3694  0.2541
 8042TIP3    H145617   3.127   3.284  13.756  1.3369 -0.8870 -1.6683
 8042TIP3    H245618   2.994   3.212  13.764  1.1596 -0.3307  0.8471
 8043TIP3   OH245619   4.906   4.954  12.053  0.1159 -0.8764 -0.6797
 8043TIP3    H145620   4.897   4.966  11.958 -0.2075 -1.9026 -0.7807
 8043TIP3    H245621   4.907   5.043  12.088  0.0816 -0.4935 -1.6306
 8044TIP3   OH245622   0.455   1.834   1.469  0.1687  0.0802 -0.7210
 8044TIP3    H145623   0.471   1.819   1.562 -0.1213 -0.6571 -0.7817
 8044TIP3    H245624   0.455   1.929   1.459 -3.4905  0.3182  0.7015
 8045TIP3   OH245625   0.429   0.429   4.348  0.2566  0.4967  0.2393
 8045TIP3    H145626   0.354   0.398   4.298  1.1316  0.2776 -0.9456
 8045TIP3    H245627   0.390   0.477   4.421 -1.0799 -1.6851  1.0159
 8046TIP3   OH245628   0.611   1.709  13.601  0.1688 -0.1159 -0.0263
 8046TIP3    H145629   0.534   1.684  13.550  0.9554 -2.1061 -0.2955
 8046TIP3    H245630   0.605   1.655  13.680  1.8014 -1.0151 -0.5083
 8047TIP3   OH245631   5.650   3.947   5.538 -0.0839  0.5429 -0.2733
 8047TIP3    H145632   5.673   3.991   5.620 -1.5361  0.3791  0.2334
 8047TIP3    H245633   5.564   3.983   5.516 -0.9446 -1.4702 -0.2681
 8048TIP3   OH245634   4.526   5.396  15.370 -0.0032  0.2265 -0.4613
 8048TIP3    H145635   4.502   5.482  15.404  1.2289  0.4926 -0.2555
 8048TIP3    H245636   4.443   5.349  15.362 -0.3387  0.1034  3.0671
 8049TIP3   OH245637   5.614   0.432   3.167 -0.3785 -0.0048 -0.6911
 8049TIP3    H145638   5.679   0.371   3.131 -1.0441 -0.4252 -1.1987
 8049TIP3    H245639   5.535   0.379   3.176 -0.3875  0.2643  0.8211
 8050TIP3   OH245640   2.050   0.119   4.089 -0.0484  0.6535 -0.2879
 8050TIP3    H145641   2.031   0.166   4.007  0.9690  2.5905  0.5439
 8050TIP3    H245642   2.109   0.049   4.063 -0.2144  0.8769 -1.3120
 8051TIP3   OH245643   3.407   4.977   4.888 -0.1366  0.3367 -1.0080
 8051TIP3    H145644   3.451   4.909   4.837 -0.9744 -0.7624 -0.2953
 8051TIP3    H245645   3.424   4.952   4.979 -1.6140  0.2916 -0.7287
 8052TIP3   OH245646   2.346   3.201   1.947  0.3218  0.9277 -0.0758
 8052TIP3    H145647   2.343   3.276   2.007  1.8298 -0.9113  2.4022
 8052TIP3    H245648   2.439   3.185   1.933  0.0129 -0.2187 -0.8971
 8053TIP3   OH245649   1.149   3.480   5.213 -0.5921  0.5026 -0.3487
 8053TIP3    H145650   1.182   3.482   5.123  0.8034  3.0108  0.1730
 8053TIP3    H245651   1.206   3.418   5.258 -1.3122 -0.7827 -1.1689
 8054TIP3   OH245652   2.967   1.320   6.122 -0.1680  0.5130  0.2161
 8054TIP3    H145653   3.004   1.232   6.131 -0.9751  0.0905 -0.5599
 8054TIP3    H245654   2.980   1.360   6.208 -0.7659 -0.7472  0.9000
 8055TIP3   OH245655   0.250   3.797   3.410 -0.2378 -0.3442  0.4365
 8055TIP3    H145656   0.156   3.807   3.427 -0.3844  0.2208 -0.6962
 8055TIP3    H245657   0.281   3.743   3.483 -1.5433 -1.0055  0.5300
 8056TIP3   OH245658   5.253   2.859   0.401  0.0758 -0.1410  0.6111
 8056TIP3    H145659   5.286   2.917   0.333  1.5038  0.7809  2.0433
 8056TIP3    H245660   5.158   2.868   0.396  0.2096  0.7342 -0.5601
 8057TIP3   OH245661   5.055   0.065  10.561  0.3834  0.6553  0.3280
 8057TIP3    H145662   5.040  -0.000  10.629 -0.0419 -0.3777 -0.7461
 8057TIP3    H245663   5.147   0.092  10.573  0.6958 -0.4615  0.5016
 8058TIP3   OH245664   4.471   3.319  14.561  0.0793 -0.4494  0.4453
 8058TIP3    H145665   4.403   3.386  14.566  0.7219  0.4953 -2.6007
 8058TIP3    H245666   4.551   3.363  14.588  0.0636 -0.7098  0.9343
 8059TIP3   OH245667   4.741   2.393  13.626  0.0202  0.8486 -0.3221
 8059TIP3    H145668   4.804   2.367  13.559 -0.8385  0.4674 -0.9821
 8059TIP3    H245669   4.656   2.363  13.593 -0.9132  3.8020 -0.7452
 8060TIP3   OH245670   1.492   0.061   2.924 -0.3869 -1.0404  0.0609
 8060TIP3    H145671   1.532  -0.009   2.872  1.2386 -1.0420  1.2734
 8060TIP3    H245672   1.536   0.141   2.894 -0.2621 -0.8987  0.6209
 8061TIP3   OH245673   6.359   5.112  14.661 -0.5713 -0.3225 -0.1436
 8061TIP3    H145674   6.394   5.037  14.613  2.1875  0.5166  0.4955
 8061TIP3    H245675   6.407   5.113  14.743 -1.6953  1.2257  0.5183
 8062TIP3   OH245676   0.030   0.408   5.022 -0.5252  0.3767  0.8082
 8062TIP3    H145677  -0.023   0.454   5.087 -1.1956  0.1554  0.4226
 8062TIP3    H245678  -0.031   0.350   4.978  0.2769 -0.7551  1.1611
 8063TIP3   OH245679   5.176   0.572   4.968 -0.5272  0.5266 -0.0496
 8063TIP3    H145680   5.114   0.641   4.943 -0.2235  0.6929 -0.3476
 8063TIP3    H245681   5.159   0.558   5.061 -0.2143  1.3965  0.1399
 8064TIP3   OH245682   2.325   2.296   2.159  0.2668  0.2001 -0.3350
 8064TIP3    H145683   2.333   2.229   2.091  1.5492 -0.4650  0.4594
 8064TIP3    H245684   2.391   2.361   2.137  1.2785 -0.4494  0.7560
 8065TIP3   OH245685   4.827   5.613  12.791  0.1523  0.1160  0.8850
 8065TIP3    H145686   4.733   5.626  12.801  0.3057  1.6803  0.4291
 8065TIP3    H245687   4.867   5.679  12.847  0.9732  0.3080  0.0942
 8066TIP3   OH245688   3.717   3.747  13.554  0.0290  0.7347 -0.0598
 8066TIP3    H145689   3.627   3.729  13.583  0.1163  0.4653  0.0542
 8066TIP3    H245690   3.732   3.839  13.576 -0.1160  0.6975  0.1992
 8067TIP3   OH245691   2.119   4.972   5.050 -0.1003  0.3118  0.0114
 8067TIP3    H145692   2.029   4.986   5.079 -0.6126 -0.6902 -1.0468
 8067TIP3    H245693   2.129   5.027   4.973  0.5303  1.2103  0.7236
 8068TIP3   OH245694   3.204   1.598   6.181 -0.6633 -0.6425 -0.0193
 8068TIP3    H145695   3.215   1.512   6.222  0.8951  0.1265  1.2250
 8068TIP3    H245696   3.153   1.649   6.244  1.5216  0.4592  0.9292
 8069TIP3   OH245697   6.238   2.110  13.233  0.1185 -0.0777 -0.3411
 8069TIP3    H145698   6.172   2.058  13.187 -1.2791  1.5458 -0.2607
 8069TIP3    H245699   6.295   2.143  13.164 -1.2557  1.3560 -0.8417
 8070TIP3   OH245700   5.616   6.799  12.125 -0.2610  0.1243 -0.0150
 8070TIP3    H145701   5.596   6.826  12.036 -0.5380  1.7234  0.5257
 8070TIP3    H245702   5.682   6.730  12.115 -1.2004 -0.5905 -1.4975
 8071TIP3   OH245703   5.112   2.434   4.812  0.0137 -0.2739 -0.6554
 8071TIP3    H145704   5.109   2.498   4.883 -1.3433 -1.3142  0.2501
 8071TIP3    H245705   5.035   2.454   4.758  0.9385  0.3994 -1.7588
 8072TIP3   OH245706   5.625   6.674  12.890  0.1178  0.0154 -0.5686
 8072TIP3    H145707   5.580   6.595  12.858  0.6632 -0.5797  0.1079
 8072TIP3    H245708   5.647   6.723  12.810 -1.0030 -0.0842 -0.9469
 8073TIP3   OH245709   0.890   3.182  14.390 -0.1792  0.5795 -0.3705
 8073TIP3    H145710   0.832   3.111  14.418 -0.7568  1.2062  0.0413
 8073TIP3    H245711   0.837   3.261  14.399  0.1887  0.9736 -1.6120
 8074TIP3   OH245712   5.934   6.401  13.126  0.3297  0.3441 -0.0689
 8074TIP3    H145713   5.901   6.425  13.039  0.1405 -0.7688 -0.3090
 8074TIP3    H245714   5.931   6.305  13.128  2.1726  0.2686  0.4380
 8075TIP3   OH245715   3.426   2.972  10.938  0.2664  0.6668  0.4176
 8075TIP3    H145716   3.511   2.982  10.981  0.7460 -0.1732 -0.3241
 8075TIP3    H245717   3.385   2.899  10.984 -0.7159  2.0484  1.8031
 8076TIP3   OH245718   2.357   6.125  13.770 -0.2097  0.3851  0.0396
 8076TIP3    H145719   2.349   6.209  13.816  0.5903  0.9834 -0.8848
 8076TIP3    H245720   2.341   6.059  13.837 -0.5589  1.2751  0.8430
 8077TIP3   OH245721   2.337   6.333  13.955  0.0011  0.4843 -0.1566
 8077TIP3    H145722   2.310   6.413  13.999  0.5423  0.6249 -0.0702
 8077TIP3    H245723   2.312   6.263  14.016 -0.3199  0.5987 -0.1562
 8078TIP3   OH245724   2.772   3.790  13.036  0.1233 -0.3460 -0.6646
 8078TIP3    H145725   2.709   3.732  13.081  1.2794 -0.1530  1.2688
 8078TIP3    H245726   2.721   3.831  12.966 -1.3213 -1.9191 -0.5733
 8079TIP3   OH245727   3.093   2.023  15.964 -0.2270  0.1824  0.0938
 8079TIP3    H145728   3.163   2.030  15.899  0.5398 -1.5622  0.7217
 8079TIP3    H245729   3.074   1.930  15.970 -2.6009  0.6280 -0.0431
 8080TIP3   OH245730   4.815   2.683  16.917  0.4798  0.5035  0.2910
 8080TIP3    H145731   4.832   2.616  16.850 -0.0094  0.9845 -0.3220
 8080TIP3    H245732   4.859   2.650  16.995  1.6837  0.2800 -0.4623
 8081TIP3   OH245733   2.173   5.768  15.365  0.3719  0.4077  0.2882
 8081TIP3    H145734   2.135   5.680  15.354 -0.0347  0.7709 -1.2517
 8081TIP3    H245735   2.201   5.770  15.457 -0.6042 -0.9436  0.6301
 8082TIP3   OH245736   5.319   4.337   5.547 -0.3953 -0.1148 -0.0157
 8082TIP3    H145737   5.224   4.324   5.553 -0.7606  2.1954 -0.3287
 8082TIP3    H245738   5.335   4.351   5.453  0.4144 -1.5484 -0.1029
 8083TIP3   OH245739   0.156   2.914  12.588  0.0392 -0.4448  0.3923
 8083TIP3    H145740   0.085   2.912  12.525 -0.8787 -0.8813  1.4155
 8083TIP3    H245741   0.172   2.822  12.611  1.3467 -0.3986 -0.2755
 8084TIP3   OH245742   4.970   6.522  11.278 -0.1613 -0.2522 -0.0228
 8084TIP3    H145743   5.028   6.552  11.209  2.5193 -0.8058  1.8826
 8084TIP3    H245744   4.963   6.596  11.338 -0.7849 -0.4690  0.1774
 8085TIP3   OH245745   4.581   4.371   0.879 -0.0437 -0.8063  0.1384
 8085TIP3    H145746   4.603   4.455   0.839 -2.0573 -0.5535 -0.5244
 8085TIP3    H245747   4.634   4.307   0.832  1.5204  0.0881  0.6609
 8086TIP3   OH245748   4.001   0.460  15.862 -0.3122  0.5484  0.0479
 8086TIP3    H145749   3.971   0.545  15.894 -0.4799 -0.4395  2.7222
 8086TIP3    H245750   4.088   0.476  15.827 -0.5300  1.8986  0.1290
 8087TIP3   OH245751   1.982   3.986  16.758  0.3733  0.0241  0.3721
 8087TIP3    H145752   1.973   4.070  16.712  1.2023  1.1074  2.1649
 8087TIP3    H245753   2.071   3.958  16.739  0.2072 -0.2867  0.0492
 8088TIP3   OH245754   3.234   3.438   2.163 -0.6894 -0.2907 -0.0258
 8088TIP3    H145755   3.238   3.448   2.068  3.2926 -1.1952 -0.0670
 8088TIP3    H245756   3.165   3.373   2.177 -1.4051 -0.0647 -2.2981
 8089TIP3   OH245757   1.128   6.563  17.245  0.4196 -0.5034  0.0006
 8089TIP3    H145758   1.049   6.618  17.244 -0.1557 -1.1874  2.9154
 8089TIP3    H245759   1.197   6.622  17.276  0.7437 -0.3070 -1.0806
 8090TIP3   OH245760   3.627   5.742  16.377  0.5292 -0.0486 -0.6005
 8090TIP3    H145761   3.643   5.697  16.460  0.2441 -2.1950 -1.6798
 8090TIP3    H245762   3.706   5.794  16.362  0.7031  0.1258  0.8661
 8091TIP3   OH245763   5.127   4.043  11.981  0.4139 -0.2643  0.0655
 8091TIP3    H145764   5.103   3.955  11.953  0.2097 -0.9773  2.4066
 8091TIP3    H245765   5.222   4.042  11.986  0.4222 -0.2863 -0.0897
 8092TIP3   OH245766   2.915   3.807  15.824  0.0943  0.5959  0.3047
 8092TIP3    H145767   2.820   3.810  15.811  0.0651 -1.5788 -0.2043
 8092TIP3    H245768   2.937   3.891  15.864 -2.0818  1.0312  0.6187
 8093TIP3   OH245769   4.962   2.764  14.289  0.2448  0.3752 -0.0943
 8093TIP3    H145770   5.017   2.802  14.221 -1.9398 -1.8431 -3.2304
 8093TIP3    H245771   5.000   2.678  14.306 -0.1652  0.2725  0.3203
 8094TIP3   OH245772   3.168   6.421  16.960 -0.0546 -0.3119  0.4190
 8094TIP3    H145773   3.119   6.488  17.006  0.6101 -0.0547  0.7691
 8094TIP3    H245774   3.102   6.357  16.932 -0.5733 -0.0017  0.9206
 8095TIP3   OH245775   3.971   0.829   4.142 -0.1241  0.1783  0.4075
 8095TIP3    H145776   3.918   0.784   4.077  0.9668  0.0371 -0.4066
 8095TIP3    H245777   3.980   0.918   4.109 -1.8790  0.8874  1.7763
 8096TIP3   OH245778   4.412   5.246   0.684 -0.2185 -0.1301 -0.1687
 8096TIP3    H145779   4.384   5.263   0.774  0.0499  1.9816 -0.4507
 8096TIP3    H245780   4.400   5.330   0.639  0.9021 -0.8083 -1.7815
 8097TIP3   OH245781   3.819   4.960   5.929 -0.3423 -0.0114  0.6670
 8097TIP3    H145782   3.817   4.880   5.876 -2.5016  0.4528 -0.0141
 8097TIP3    H245783   3.817   4.929   6.019  0.7764 -0.7584  0.4403
 8098TIP3   OH245784   0.600   5.718  16.025 -0.2390 -0.1233 -0.1128
 8098TIP3    H145785   0.644   5.756  15.949 -2.2075  2.0939 -0.2064
 8098TIP3    H245786   0.671   5.700  16.087  0.9218  2.5451 -0.5878
 8099TIP3   OH245787   2.182   0.086  15.758 -0.1258  0.2422 -0.2818
 8099TIP3    H145788   2.228   0.093  15.675  0.4836  0.7547  0.0902
 8099TIP3    H245789   2.092   0.111  15.739  0.3230  1.7129 -0.5114
 8100TIP3   OH245790   2.133   1.322   1.041 -0.3518 -0.1897  1.0443
 8100TIP3    H145791   2.121   1.337   1.134  1.2691 -2.8698  1.7398
 8100TIP3    H245792   2.212   1.371   1.019 -0.9633  0.7710  0.9939
 8101TIP3   OH245793   3.421   4.773   0.949 -0.7302  0.0501  0.3116
 8101TIP3    H145794   3.334   4.742   0.922 -0.7273 -0.8353  1.3063
 8101TIP3    H245795   3.419   4.773   1.044  0.8544 -1.3869  0.3657
 8102TIP3   OH245796   2.780   6.209  16.506  0.1735  0.5219  0.0005
 8102TIP3    H145797   2.813   6.200  16.417  1.3573  0.4363  0.4491
 8102TIP3    H245798   2.721   6.135  16.518  2.0064 -0.9442  0.1700
 8103TIP3   OH245799   5.948   2.633  15.661 -0.4347 -0.3124  0.5030
 8103TIP3    H145800   5.915   2.711  15.705  2.3582 -0.1307  2.4159
 8103TIP3    H245801   5.877   2.570  15.666 -2.2592  1.6585  0.0871
 8104TIP3   OH245802   3.211   3.121  14.815 -0.1532 -0.7651 -0.1307
 8104TIP3    H145803   3.267   3.067  14.870  0.4266  0.5062  0.5686
 8104TIP3    H245804   3.258   3.130  14.732  0.3531 -0.2945  0.2027
 8105TIP3   OH245805   0.417   5.848   4.562 -0.1131 -0.2912 -0.2986
 8105TIP3    H145806   0.449   5.768   4.604 -0.9972 -0.3379  0.3040
 8105TIP3    H245807   0.472   5.917   4.598 -0.0148 -0.5045 -0.0385
 8106TIP3   OH245808   3.213   1.492   2.561 -0.6094  0.1555  0.0348
 8106TIP3    H145809   3.304   1.491   2.590 -1.1476  1.4961  1.9216
 8106TIP3    H245810   3.162   1.473   2.640 -2.0963  3.0661 -0.1399
 8107TIP3   OH245811   3.232   2.526   2.533 -0.5639 -0.3885  0.2292
 8107TIP3    H145812   3.266   2.462   2.471 -1.0450 -0.4834  0.0591
 8107TIP3    H245813   3.229   2.480   2.617  2.2212  0.4236  0.8123
 8108TIP3   OH245814   6.399   2.462   0.058 -0.4734  0.8154  0.2995
 8108TIP3    H145815   6.339   2.400   0.017 -0.0680  0.4728  0.2291
 8108TIP3    H245816   6.479   2.412   0.075 -0.6477  0.9363  1.5488
 8109TIP3   OH245817   0.365   3.007  13.949 -0.2804 -0.4336  0.6169
 8109TIP3    H145818   0.371   2.972  14.038 -1.7260  0.3097  1.0179
 8109TIP3    H245819   0.447   3.055  13.936  1.2579 -2.9505  0.4645
 8110TIP3   OH245820   4.688   5.859   2.657 -0.3496 -0.3581  0.0844
 8110TIP3    H145821   4.761   5.920   2.645  0.1273 -0.4994  1.9668
 8110TIP3    H245822   4.685   5.808   2.577  2.6951 -1.4367  0.5891
 8111TIP3   OH245823   0.440   5.062   1.777  0.1459 -0.4296 -0.5746
 8111TIP3    H145824   0.389   5.001   1.724  0.7729  0.2699 -2.0448
 8111TIP3    H245825   0.419   5.148   1.740 -0.0824  0.1538  0.9141
 8112TIP3   OH245826   2.293   2.762  15.145  0.1710  0.0438 -0.7461
 8112TIP3    H145827   2.249   2.803  15.071  1.1695  0.8002 -0.9234
 8112TIP3    H245828   2.305   2.832  15.209  1.8191  0.0388 -1.0248
 8113TIP3   OH245829   4.618   5.574   0.813  0.2087 -0.2741 -0.0099
 8113TIP3    H145830   4.598   5.486   0.846  0.3903 -0.7198 -1.0837
 8113TIP3    H245831   4.545   5.595   0.755 -1.2117  1.3957  2.3138
 8114TIP3   OH245832   4.653   6.295   5.066 -0.5414 -0.2355  0.1675
 8114TIP3    H145833   4.742   6.293   5.029 -1.0256  0.2566 -1.0551
 8114TIP3    H245834   4.662   6.253   5.151  0.8791 -0.1654  0.0726
 8115TIP3   OH245835   3.053   5.592   5.805  0.7852 -0.3478  0.2502
 8115TIP3    H145836   3.073   5.676   5.845 -1.5968  0.7694 -0.7891
 8115TIP3    H245837   2.968   5.605   5.762  1.5981 -2.5173 -2.1741
 8116TIP3   OH245838   3.964   2.801   1.297 -0.6975 -0.0412  0.2586
 8116TIP3    H145839   4.026   2.869   1.268  0.1851 -0.4509  1.1485
 8116TIP3    H245840   3.889   2.850   1.330 -0.2022  0.4981  0.6021
 8117TIP3   OH245841   4.506   4.261  16.674 -0.1608 -0.4367  0.0602
 8117TIP3    H145842   4.423   4.306  16.688 -0.2980 -0.4452 -0.6949
 8117TIP3    H245843   4.557   4.320  16.619  0.5906 -0.1400  1.0543
 8118TIP3   OH245844   1.292   3.225  15.401  0.3720  0.0621 -0.1447
 8118TIP3    H145845   1.372   3.195  15.445 -0.8577 -0.6823  1.6263
 8118TIP3    H245846   1.268   3.153  15.342 -0.3506 -0.7720  1.1478
 8119TIP3   OH245847   0.903   2.594   0.226 -0.3040  0.3996  0.0906
 8119TIP3    H145848   0.920   2.585   0.320 -1.0750 -1.6337  0.0470
 8119TIP3    H245849   0.909   2.505   0.191 -2.7336  0.7492 -1.3352
 8120TIP3   OH245850   3.606   1.111  13.255  0.4278 -0.2988 -0.2019
 8120TIP3    H145851   3.530   1.139  13.306 -0.2480 -1.1428 -0.7492
 8120TIP3    H245852   3.630   1.027  13.293 -1.4443 -2.0199 -2.7080
 8121TIP3   OH245853   0.943   2.280   0.384  0.5706 -0.4078  0.7195
 8121TIP3    H145854   0.873   2.341   0.404  1.5167  0.6911  0.7220
 8121TIP3    H245855   0.899   2.195   0.377 -1.1134  0.5759 -1.4688
 8122TIP3   OH245856   1.564   0.993  15.132 -0.3506  0.3576 -0.0890
 8122TIP3    H145857   1.564   0.901  15.105  2.7274  0.5279 -0.8827
 8122TIP3    H245858   1.634   1.033  15.080 -0.3127  2.6886  1.6847
 8123TIP3   OH245859   4.516   2.452   5.105  0.4929 -0.1624 -0.4115
 8123TIP3    H145860   4.441   2.508   5.125  1.3890  1.3059 -1.0600
 8123TIP3    H245861   4.482   2.363   5.112 -1.1488  0.4645 -0.0973
 8124TIP3   OH245862   3.287   6.191  14.472  0.3493 -0.1654  0.1835
 8124TIP3    H145863   3.270   6.136  14.396 -3.4279  0.2868  0.5706
 8124TIP3    H245864   3.268   6.280  14.441 -0.4701  0.1011  1.4198
 8125TIP3   OH245865   3.987   3.639   1.498 -1.3107 -0.3378  0.0235
 8125TIP3    H145866   4.046   3.715   1.506 -0.3489 -1.0290 -0.4494
 8125TIP3    H245867   3.962   3.638   1.406  0.3495 -1.8073 -0.4454
 8126TIP3   OH245868   3.792   4.232   1.598  1.1111  0.4271  0.2671
 8126TIP3    H145869   3.768   4.318   1.631  2.6551  1.1265 -0.4040
 8126TIP3    H245870   3.709   4.190   1.577  0.2823  1.2199  1.8953
 8127TIP3   OH245871   3.438   4.160   5.971  0.4899  0.4581 -0.0661
 8127TIP3    H145872   3.533   4.163   5.982  0.3735  0.8689  0.8245
 8127TIP3    H245873   3.403   4.168   6.059 -0.3499 -1.2429 -0.2221
 8128TIP3   OH245874   4.770   4.962   1.831  0.6003  0.2531 -0.0536
 8128TIP3    H145875   4.695   4.930   1.782  0.0969  0.1246  0.7927
 8128TIP3    H245876   4.751   5.055   1.847  2.0073  0.9775 -2.4158
 8129TIP3   OH245877   0.593   1.911  16.568  0.0780 -0.3570  0.1654
 8129TIP3    H145878   0.591   1.815  16.573  0.8897 -0.4010 -0.3083
 8129TIP3    H245879   0.605   1.930  16.476 -0.1999  0.2121  0.2429
 8130TIP3   OH245880   4.429   4.927   3.608 -0.5098  0.0326  0.2032
 8130TIP3    H145881   4.484   5.005   3.618  0.8314 -0.6145 -1.8615
 8130TIP3    H245882   4.477   4.857   3.651  0.3972 -0.5601 -1.7136
 8131TIP3   OH245883   5.871   6.452   0.687 -0.3808  0.2940 -0.7340
 8131TIP3    H145884   5.904   6.365   0.710 -2.5556  0.1315  2.0286
 8131TIP3    H245885   5.838   6.442   0.598 -0.5969 -1.7227 -0.4516
 8132TIP3   OH245886   1.759   1.447   3.784 -0.4548  0.1785 -0.0042
 8132TIP3    H145887   1.745   1.449   3.878  0.2988 -0.7287  0.1361
 8132TIP3    H245888   1.673   1.427   3.747 -0.9069  1.2823  0.4404
 8133TIP3   OH245889   6.516   0.332  14.325  0.0682  0.0303  0.1502
 8133TIP3    H145890   6.428   0.369  14.325  0.3586  0.7269 -0.0620
 8133TIP3    H245891   6.529   0.301  14.415 -0.7321 -0.9066 -0.0473
 8134TIP3   OH245892   5.255   4.064  15.489  0.9167  0.1649  0.2396
 8134TIP3    H145893   5.172   4.027  15.460  1.9678 -3.0410  1.1357
 8134TIP3    H245894   5.248   4.067  15.585  1.5995  0.4453  0.2858
 8135TIP3   OH245895   2.900   0.795   6.126  0.0647 -0.2141  0.3505
 8135TIP3    H145896   2.860   0.878   6.100 -2.0033 -1.2558  0.0999
 8135TIP3    H245897   2.975   0.784   6.067 -0.7651  0.5533 -0.8550
 8136TIP3   OH245898   2.743   5.089   4.624  0.3935 -0.5988  0.3959
 8136TIP3    H145899   2.801   5.111   4.697  0.8807 -1.1737  0.1878
 8136TIP3    H245900   2.780   5.009   4.587  1.1575  0.6427 -1.5730
 8137TIP3   OH245901   4.215   3.332   0.276  0.5165 -0.2531 -0.3143
 8137TIP3    H145902   4.190   3.240   0.267  0.4324 -0.3079  0.4410
 8137TIP3    H245903   4.135   3.381   0.253  0.1445 -0.3990  0.6453
 8138TIP3   OH245904   6.443   4.812   1.921  0.5961  0.3979  0.1139
 8138TIP3    H145905   6.454   4.864   2.000  3.7630  1.2217 -0.7796
 8138TIP3    H245906   6.361   4.764   1.934 -0.8925  3.4072  2.1929
 8139TIP3   OH245907   4.274   2.613   5.798  0.0745  0.3638 -0.0666
 8139TIP3    H145908   4.215   2.556   5.848  0.6344 -0.2590 -0.1103
 8139TIP3    H245909   4.334   2.649   5.864 -0.2180  0.8399 -0.0533
 8140TIP3   OH245910   1.273   4.623   4.156 -0.0850  0.0396  0.1401
 8140TIP3    H145911   1.312   4.540   4.183  1.6357  0.8006  0.1218
 8140TIP3    H245912   1.290   4.627   4.062 -0.3692  0.3082  0.1009
 8141TIP3   OH245913   1.134   3.817   3.141  0.1469  0.7137 -0.2171
 8141TIP3    H145914   1.168   3.871   3.071 -1.4048 -0.9637 -2.3415
 8141TIP3    H245915   1.179   3.847   3.220  2.9577  1.6806 -2.1503
 8142TIP3   OH245916   3.789   2.265   2.480  0.1552 -0.1230  0.3577
 8142TIP3    H145917   3.842   2.236   2.555 -1.3793  0.8696  1.8803
 8142TIP3    H245918   3.799   2.196   2.415  1.6683 -0.9330  1.4095
 8143TIP3   OH245919   6.794   0.374  13.956  0.1874  0.2239  0.1705
 8143TIP3    H145920   6.722   0.415  13.907 -0.0253  0.1549  0.4198
 8143TIP3    H245921   6.769   0.387  14.048 -0.9998 -2.4259  0.2560
 8144TIP3   OH245922   6.483   0.082  16.805  0.3592 -0.0998  0.0814
 8144TIP3    H145923   6.446   0.076  16.717 -0.0805 -0.1069  0.2644
 8144TIP3    H245924   6.506  -0.008  16.828  0.0182 -0.1654  0.1683
 8145TIP3   OH245925   6.557   4.802  13.068  0.1010 -0.7255  0.0341
 8145TIP3    H145926   6.631   4.831  13.121  0.0000  0.4259 -0.4518
 8145TIP3    H245927   6.594   4.789  12.980 -0.4554  0.7483 -0.4280
 8146TIP3   OH245928   5.226   1.822   2.986 -0.2855 -0.1604  0.0979
 8146TIP3    H145929   5.188   1.735   3.004  0.0932 -0.5912 -1.1557
 8146TIP3    H245930   5.230   1.827   2.891  0.9079  0.7249  0.1923
 8147TIP3   OH245931   4.231   1.715  11.493  0.2714  0.2620  0.9269
 8147TIP3    H145932   4.136   1.709  11.499 -0.0884  0.8013 -2.8803
 8147TIP3    H245933   4.263   1.632  11.529 -1.7685 -1.1418 -0.4066
 8148TIP3   OH245934   4.289   3.585   5.377 -0.2909  0.1450 -0.6126
 8148TIP3    H145935   4.239   3.618   5.451 -0.1550 -1.7244  0.3286
 8148TIP3    H245936   4.324   3.663   5.335 -0.1145  1.1944  1.4679
 8149TIP3   OH245937   0.586   3.692   3.881  0.4726 -0.2447  0.2928
 8149TIP3    H145938   0.556   3.635   3.810  1.0877 -1.4312  0.9732
 8149TIP3    H245939   0.591   3.635   3.957  1.3937  0.6653  0.9205
 8150TIP3   OH245940   1.119   4.020  11.705  0.0943 -0.9908 -0.1104
 8150TIP3    H145941   1.138   3.934  11.742  2.0149 -0.3889  0.3308
 8150TIP3    H245942   1.120   4.080  11.780 -0.1300 -0.4071 -0.5672
 8151TIP3   OH245943   1.942   5.234  11.439  0.4143  1.0426 -0.0457
 8151TIP3    H145944   1.991   5.164  11.395 -0.1484  0.3952  0.3403
 8151TIP3    H245945   1.850   5.204  11.436 -0.2745  3.2565 -2.7086
 8152TIP3   OH245946   2.152   6.536  13.406  0.0385  0.5935  0.4289
 8152TIP3    H145947   2.150   6.625  13.440 -0.0858 -0.1535  2.4093
 8152TIP3    H245948   2.228   6.496  13.447 -0.9487 -0.7700  0.9728
 8153TIP3   OH245949   1.642   0.977   3.703 -0.0983  0.1508 -0.3796
 8153TIP3    H145950   1.601   1.003   3.620  0.4851  1.5732 -0.2341
 8153TIP3    H245951   1.733   0.960   3.681  0.1852  1.0530  0.0494
 8154TIP3   OH245952   2.672   2.729   3.458  0.3923  0.4863 -0.0960
 8154TIP3    H145953   2.750   2.757   3.410  0.7569  0.4852  0.4917
 8154TIP3    H245954   2.705   2.704   3.545 -0.1613 -0.1972 -0.0820
 8155TIP3   OH245955   6.371   5.455  14.719  0.1110  0.0966 -0.3067
 8155TIP3    H145956   6.460   5.488  14.733 -0.2844  1.1293 -0.2060
 8155TIP3    H245957   6.331   5.456  14.805 -0.2867  0.4795 -0.4930
 8156TIP3   OH245958   3.245   4.131   1.323 -0.0956  0.2110 -0.3156
 8156TIP3    H145959   3.321   4.190   1.323 -0.2352  0.3979  1.4719
 8156TIP3    H245960   3.232   4.111   1.230  2.5636 -0.3798 -0.6170
 8157TIP3   OH245961   2.833   1.472  15.779  0.4957 -0.3620 -0.1338
 8157TIP3    H145962   2.852   1.378  15.778  0.5987 -0.3383 -0.6135
 8157TIP3    H245963   2.855   1.500  15.868  2.4752 -0.3812 -0.5897
 8158TIP3   OH245964   4.401   4.722   5.624  0.2616 -0.3205  0.2296
 8158TIP3    H145965   4.427   4.804   5.667 -1.5230  0.0260  0.6793
 8158TIP3    H245966   4.401   4.657   5.694 -0.5899 -0.1980  0.3540
 8159TIP3   OH245967   6.651   5.612   2.594 -0.3258 -0.5957 -0.3927
 8159TIP3    H145968   6.636   5.661   2.675 -0.6436  0.0770 -0.8532
 8159TIP3    H245969   6.639   5.520   2.620  2.2403 -0.5940  0.9049
 8160TIP3   OH245970   1.715   4.620  12.873  0.4023 -0.1727  0.4833
 8160TIP3    H145971   1.633   4.622  12.923 -0.0231  1.3006 -0.2356
 8160TIP3    H245972   1.780   4.660  12.931 -0.0885  1.5268 -0.1119
 8161TIP3   OH245973   0.682   2.944   2.682 -0.0817 -0.0761  0.1005
 8161TIP3    H145974   0.742   2.901   2.744  0.6234  0.1384 -0.4297
 8161TIP3    H245975   0.595   2.925   2.716  0.2524 -1.3242  0.2721
 8162TIP3   OH245976   0.109   3.099   3.577  0.1912  0.2879  0.1197
 8162TIP3    H145977   0.167   3.142   3.640  0.7038 -0.4162  0.1431
 8162TIP3    H245978   0.149   3.013   3.564 -1.0686 -0.3445  0.4229
 8163TIP3   OH245979   0.869   6.767  16.043  0.6116 -0.3606  0.2812
 8163TIP3    H145980   0.797   6.727  16.092 -1.2914  1.1573 -1.1985
 8163TIP3    H245981   0.847   6.860  16.038  1.9694 -0.0940 -1.3664
 8164TIP3   OH245982   5.455   3.645   5.366  0.0209 -0.9516 -0.2361
 8164TIP3    H145983   5.495   3.716   5.417 -0.3871 -1.8691  1.3862
 8164TIP3    H245984   5.527   3.584   5.349  0.0729 -0.8428 -0.4070
 8165TIP3   OH245985   1.328   1.820   6.241 -0.0287 -0.6240 -0.0703
 8165TIP3    H145986   1.393   1.801   6.309  0.7351 -0.0081 -0.6305
 8165TIP3    H245987   1.276   1.892   6.277  1.6105  1.0211 -0.9423
 8166TIP3   OH245988   6.666   3.777  11.217 -0.3353 -0.4112 -0.1418
 8166TIP3    H145989   6.718   3.811  11.290  0.9734 -1.0533 -0.7490
 8166TIP3    H245990   6.699   3.824  11.141 -0.5962 -0.8793 -0.5464
 8167TIP3   OH245991   4.394   4.264  16.372  0.1012 -0.1596 -0.3448
 8167TIP3    H145992   4.435   4.182  16.345  0.8074  0.1645 -0.2868
 8167TIP3    H245993   4.466   4.315  16.409 -0.5847 -0.0301  0.8246
 8168TIP3   OH245994   6.294   0.841   5.641  0.4754  0.5462  0.0796
 8168TIP3    H145995   6.335   0.807   5.561 -1.4942 -1.8598  0.0367
 8168TIP3    H245996   6.367   0.853   5.701  1.7791  0.6936 -1.4814
 8169TIP3   OH245997   0.248   1.086  16.500 -0.2964  0.0293  0.5987
 8169TIP3    H145998   0.175   1.056  16.445 -0.8356  0.6466  0.9776
 8169TIP3    H245999   0.310   1.013  16.498 -0.8126 -0.4065  0.0816
 8170TIP3   OH246000   0.486   1.140   2.965 -0.2399  0.7715 -0.3181
 8170TIP3    H146001   0.430   1.141   3.044 -0.0715 -0.9709 -0.1653
 8170TIP3    H246002   0.462   1.220   2.918 -0.9485  1.4047  1.0870
 8171TIP3   OH246003   3.663   6.546   0.584  0.0212 -0.5245 -0.4825
 8171TIP3    H146004   3.597   6.613   0.567  0.6511  0.4722  0.9417
 8171TIP3    H246005   3.657   6.487   0.509 -0.5928  1.0759 -1.7207
 8172TIP3   OH246006   6.242   6.392  15.798 -0.2029  0.3866 -0.0037
 8172TIP3    H146007   6.308   6.461  15.787  1.4267 -0.9760  0.8223
 8172TIP3    H246008   6.290   6.311  15.780 -1.9677 -0.5610 -0.5083
 8173TIP3   OH246009   2.562   5.676  12.228 -0.4962  0.0946  0.9294
 8173TIP3    H146010   2.533   5.594  12.187 -1.2598  0.1898  1.2891
 8173TIP3    H246011   2.620   5.648  12.299  1.6098 -0.0583 -0.7705
 8174TIP3   OH246012   6.625   6.109  13.958  0.1832 -0.2712 -0.0142
 8174TIP3    H146013   6.695   6.052  13.989  0.6537  0.4679  0.3127
 8174TIP3    H246014   6.663   6.154  13.882  0.4412  0.8881  0.7748
 8175TIP3   OH246015   4.708   3.278   0.359  0.1019 -0.0058 -0.1833
 8175TIP3    H146016   4.759   3.336   0.302 -0.8702  1.7413  0.7191
 8175TIP3    H246017   4.712   3.193   0.315  3.9337  0.0260 -0.0445
 8176TIP3   OH246018   5.566   0.720  15.495 -0.0525  0.2890  0.1957
 8176TIP3    H146019   5.472   0.739  15.500 -0.1501 -0.3420  0.9446
 8176TIP3    H246020   5.571   0.638  15.445  0.1183  0.4638 -0.0734
 8177TIP3   OH246021   0.588   0.678  12.880  0.2523  0.4325  0.1681
 8177TIP3    H146022   0.640   0.738  12.933  1.0824 -1.1769  1.2080
 8177TIP3    H246023   0.646   0.603  12.863 -0.0203  0.8230 -2.8985
 8178TIP3   OH246024   3.143   6.440  13.548  0.1330 -0.4830 -0.3345
 8178TIP3    H146025   3.158   6.531  13.522 -0.6214 -0.3520 -0.3450
 8178TIP3    H246026   3.219   6.417  13.601 -0.0582  0.4357  0.3706
 8179TIP3   OH246027   5.562   3.329   5.880 -0.0570  0.0775 -0.3869
 8179TIP3    H146028   5.476   3.293   5.903 -1.4015  2.9676 -0.5818
 8179TIP3    H246029   5.578   3.395   5.948  2.5710 -1.2101  0.2908
 8180TIP3   OH246030   2.289   0.195  17.287 -0.2707  0.5168 -0.1924
 8180TIP3    H146031   2.312   0.241  17.368  0.9788  0.9331 -0.7841
 8180TIP3    H246032   2.199   0.223  17.269 -0.2799  1.0356  0.6133
 8181TIP3   OH246033   4.560   1.946  14.297 -0.1955  0.3045  0.1173
 8181TIP3    H146034   4.550   2.029  14.251  1.0759  1.2448  1.4786
 8181TIP3    H246035   4.496   1.888  14.257 -0.8242  1.8300 -1.1201
 8182TIP3   OH246036   1.246   1.016   0.262 -0.4360 -0.0332  0.0570
 8182TIP3    H146037   1.175   1.051   0.208 -1.5015 -1.7505  0.3089
 8182TIP3    H246038   1.323   1.018   0.205 -1.3493 -0.9730 -1.2341
 8183TIP3   OH246039   5.336   5.549   3.273 -0.2398  0.2231  0.1760
 8183TIP3    H146040   5.385   5.614   3.221  1.6299 -1.4365 -0.1757
 8183TIP3    H246041   5.303   5.487   3.208 -0.1680 -0.3900  0.7243
 8184TIP3   OH246042   3.201   1.533  13.018  0.1165 -0.0804 -0.0966
 8184TIP3    H146043   3.145   1.610  13.008 -1.6258 -1.3661 -0.4438
 8184TIP3    H246044   3.213   1.500  12.929 -0.4170 -1.0917  0.1988
 8185TIP3   OH246045   5.365   4.409   1.906  0.3399 -0.0214  0.2632
 8185TIP3    H146046   5.301   4.337   1.913 -0.4386  0.4953 -1.3871
 8185TIP3    H246047   5.447   4.365   1.882  0.3067 -0.5484  1.0820
 8186TIP3   OH246048   4.966   1.001   1.454  0.0518  0.2252  0.5548
 8186TIP3    H146049   5.041   1.032   1.403 -2.6524 -0.3197 -3.9960
 8186TIP3    H246050   4.992   0.914   1.484  0.8599 -0.4754 -2.0312
 8187TIP3   OH246051   1.025   3.587  13.161 -0.2360 -0.3507  0.3007
 8187TIP3    H146052   1.072   3.512  13.196  0.0452 -0.6698 -0.7361
 8187TIP3    H246053   0.938   3.582  13.202 -0.5157 -1.7503 -0.4089
 8188TIP3   OH246054   2.963   0.303  15.230 -0.7071  0.4906 -0.0948
 8188TIP3    H146055   2.945   0.318  15.322  3.1463  3.9761  0.2095
 8188TIP3    H246056   3.058   0.290  15.225 -0.9943 -1.1307 -3.4152
 8189TIP3   OH246057   2.159   2.822  14.434 -0.2734 -0.2824 -0.2134
 8189TIP3    H146058   2.201   2.845  14.352 -2.0224  0.6752 -0.8634
 8189TIP3    H246059   2.136   2.729  14.425 -0.4299 -0.1854 -0.7900
 8190TIP3   OH246060   4.506   4.565  12.386  0.1591 -0.2194  0.0318
 8190TIP3    H146061   4.583   4.548  12.440  0.4951  1.2542  0.0340
 8190TIP3    H246062   4.534   4.633  12.325 -0.9464 -0.1495 -0.4178
 8191TIP3   OH246063   3.224   5.473   0.935  0.1849  0.1346  0.6516
 8191TIP3    H146064   3.299   5.417   0.955 -0.0039  0.3233  1.9428
 8191TIP3    H246065   3.176   5.426   0.867  0.6631 -0.7151  0.8937
 8192TIP3   OH246066   6.004   3.248  15.642 -0.3100  0.5621 -0.2267
 8192TIP3    H146067   5.998   3.328  15.589 -0.7597  1.1776  0.7426
 8192TIP3    H246068   5.938   3.260  15.710  0.5252 -0.0591  0.6975
 8193TIP3   OH246069   4.103   5.692   1.248  0.2989 -0.3410 -0.3791
 8193TIP3    H146070   4.191   5.720   1.221 -0.1477  2.4326  0.8313
 8193TIP3    H246071   4.044   5.748   1.198 -0.6755  0.0640  1.1744
 8194TIP3   OH246072   4.804   3.653  11.312 -0.2837 -0.0823  0.1067
 8194TIP3    H146073   4.859   3.576  11.304  1.0907  1.1017 -2.3081
 8194TIP3    H246074   4.793   3.665  11.406  0.5685 -2.4340  0.5361
 8195TIP3   OH246075   3.329   0.297  15.618 -0.2802  0.0999  0.6375
 8195TIP3    H146076   3.268   0.229  15.590  0.3283  0.1689 -0.9223
 8195TIP3    H246077   3.412   0.273  15.578 -0.2112  2.1042 -0.5107
 8196TIP3   OH246078   4.450   1.992   6.037 -0.3769 -1.1805 -0.0994
 8196TIP3    H146079   4.355   1.977   6.032 -0.2407 -2.2495  0.4720
 8196TIP3    H246080   4.484   1.958   5.955 -0.2324 -2.8058  0.6208
 8197TIP3   OH246081   0.264   4.800  11.804 -0.1009 -0.3333 -0.1046
 8197TIP3    H146082   0.262   4.719  11.753 -0.0429 -1.2594  1.3222
 8197TIP3    H246083   0.356   4.814  11.824 -0.1140  0.0701 -0.3282
 8198TIP3   OH246084   6.807   4.073   3.229  0.5153  0.4054 -0.9400
 8198TIP3    H146085   6.894   4.033   3.230 -0.0684 -0.8823  1.6975
 8198TIP3    H246086   6.760   4.027   3.160  0.7391 -1.5306  0.1809
 8199TIP3   OH246087   4.607   5.960  13.338  0.0801  0.0302  0.0193
 8199TIP3    H146088   4.680   6.022  13.341  1.6539 -1.6957 -1.3351
 8199TIP3    H246089   4.649   5.875  13.323 -2.1067 -1.2242  0.8528
 8200TIP3   OH246090   1.574   5.112  16.559  0.5122 -0.0909 -0.4587
 8200TIP3    H146091   1.567   5.045  16.491  1.2665 -0.7752  0.1180
 8200TIP3    H246092   1.484   5.127  16.587  0.2009  0.1861 -1.5955
 8201TIP3   OH246093   4.047   5.664  16.996 -0.4428 -0.0041  0.3675
 8201TIP3    H146094   4.077   5.740  16.946 -1.1899 -0.7604 -1.2696
 8201TIP3    H246095   4.112   5.595  16.976 -1.6277 -0.7842 -0.8855
 8202TIP3   OH246096   1.073   5.486   3.589  0.3707 -0.4816  0.0229
 8202TIP3    H146097   1.076   5.557   3.653  2.9371  0.6942 -1.3325
 8202TIP3    H246098   1.057   5.407   3.641 -0.2880  0.7867  1.7867
 8203TIP3   OH246099   3.364   4.943  13.472  0.2232  0.2036  0.3863
 8203TIP3    H146100   3.436   4.970  13.529  0.7514  0.0573 -0.2115
 8203TIP3    H246101   3.399   4.869  13.422 -0.0754  0.6585 -0.4946
 8204TIP3   OH246102   1.594   0.840   2.637  0.2407  0.2606 -0.2665
 8204TIP3    H146103   1.548   0.767   2.678  2.4995 -0.7948  0.4740
 8204TIP3    H246104   1.667   0.799   2.591 -0.4849  1.7335 -2.8136
 8205TIP3   OH246105   4.599   5.181  14.310 -0.0670  0.2585 -0.0470
 8205TIP3    H146106   4.642   5.134  14.239  1.2037  0.2627  0.6913
 8205TIP3    H246107   4.600   5.119  14.383 -1.7401  0.0996 -0.1552
 8206TIP3   OH246108   4.021   5.810  12.390  0.9337 -0.1250 -0.0993
 8206TIP3    H146109   4.080   5.842  12.460 -0.3934  0.8531  0.5978
 8206TIP3    H246110   3.938   5.796  12.434  0.2830 -0.2431 -1.3574
 8207TIP3   OH246111   5.896   2.985  13.919  0.0250 -0.1069 -0.5018
 8207TIP3    H146112   5.853   2.924  13.979  0.6160 -2.5032 -2.4035
 8207TIP3    H246113   5.980   3.005  13.961  1.0287 -2.8410 -1.0544
 8208TIP3   OH246114   1.258   6.566   1.008 -0.2588 -0.3745  0.0662
 8208TIP3    H146115   1.334   6.579   0.950  0.1053 -0.9874  0.3940
 8208TIP3    H246116   1.217   6.485   0.976 -0.9815  0.1511 -0.3313
 8209TIP3   OH246117   6.182   2.425  11.032 -0.1285 -0.4883 -0.6809
 8209TIP3    H146118   6.183   2.331  11.047  0.4308 -0.3910 -0.1116
 8209TIP3    H246119   6.220   2.436  10.945  0.7144 -0.7170 -0.3473
 8210TIP3   OH246120   6.375   2.526  13.344  0.2523  0.6639 -0.7059
 8210TIP3    H146121   6.308   2.586  13.379 -0.4289 -0.9538  0.8653
 8210TIP3    H246122   6.335   2.440  13.352  2.1785 -0.2376 -0.6495
 8211TIP3   OH246123   2.591   1.301   2.286 -0.1970 -0.0324  0.2539
 8211TIP3    H146124   2.634   1.287   2.370  1.0753 -2.5790 -0.7896
 8211TIP3    H246125   2.506   1.257   2.295 -0.8311  1.2506  0.7884
 8212TIP3   OH246126   1.853   0.320   0.614 -0.1208  0.2582 -0.5501
 8212TIP3    H146127   1.856   0.261   0.538  0.2734  0.2250 -0.5085
 8212TIP3    H246128   1.851   0.408   0.576 -1.0045  0.2143 -0.6187
 8213TIP3   OH246129   2.154   4.765   5.811  0.1104  0.7171 -0.1238
 8213TIP3    H146130   2.147   4.678   5.772 -1.5415  0.6334  0.3076
 8213TIP3    H246131   2.132   4.751   5.903  1.1584  1.3751  0.2308
 8214TIP3   OH246132   3.093   0.958   3.407 -0.8344 -0.5049 -0.6248
 8214TIP3    H146133   3.155   0.915   3.467  1.0663  3.1118  0.1159
 8214TIP3    H246134   3.017   0.900   3.406  0.6320 -2.6160  2.2617
 8215TIP3   OH246135   1.948   3.987   2.546 -0.1537  0.1436 -0.2798
 8215TIP3    H146136   1.920   4.000   2.456 -0.0093  2.5764  0.0115
 8215TIP3    H246137   1.871   4.006   2.599 -0.3410 -1.6289  0.1266
 8216TIP3   OH246138   3.981   4.489   1.211  0.2972 -0.9276  0.0196
 8216TIP3    H146139   4.025   4.405   1.206  2.2755  0.1211 -0.5613
 8216TIP3    H246140   3.916   4.487   1.141  1.3754 -1.3700 -0.9748
 8217TIP3   OH246141   4.147   1.956  10.374  0.7649  0.3162 -0.7485
 8217TIP3    H146142   4.155   1.892  10.304 -3.0979  0.3911 -1.3627
 8217TIP3    H246143   4.084   1.918  10.435 -0.7887  3.0198 -0.5712
 8218TIP3   OH246144   3.014   5.830  15.594 -0.0532  0.1255  0.4786
 8218TIP3    H146145   3.063   5.758  15.634 -0.1667 -1.2362 -1.7443
 8218TIP3    H246146   2.964   5.868  15.667  1.5389 -0.7356  2.0706
 8219TIP3   OH246147   2.809   1.374   4.517 -0.0542  0.3519 -0.1095
 8219TIP3    H146148   2.788   1.281   4.509 -0.2006  0.2800  1.0881
 8219TIP3    H246149   2.902   1.380   4.493  0.7083 -0.5147  2.5264
 8220TIP3   OH246150   1.123   1.300  15.940  0.3921  0.7729  0.7735
 8220TIP3    H146151   1.140   1.206  15.926 -0.8107  0.8949 -1.8646
 8220TIP3    H246152   1.091   1.305  16.029  1.3337 -1.2202  1.2614
 8221TIP3   OH246153   5.040   3.463  16.709  0.4450  0.3372 -0.1466
 8221TIP3    H146154   4.981   3.387  16.701  0.5885  0.2696 -0.6062
 8221TIP3    H246155   5.074   3.458  16.798  0.7393 -0.3530 -0.2929
 8222TIP3   OH246156   2.753   1.005  17.217  0.0106 -0.0558 -0.0855
 8222TIP3    H146157   2.741   1.006  17.312 -0.0675 -0.8262 -0.0844
 8222TIP3    H246158   2.715   1.087  17.187 -0.2478  0.0466  0.5215
 8223TIP3   OH246159   5.954   4.303   5.300  0.4198  0.0875  0.1476
 8223TIP3    H146160   5.881   4.344   5.344 -0.9277  1.3082 -3.0542
 8223TIP3    H246161   6.017   4.374   5.285  1.0525 -0.3972  0.4440
 8224TIP3   OH246162   4.362   4.586  17.127 -0.0269  0.1097 -0.0323
 8224TIP3    H146163   4.382   4.590  17.221  0.2725 -0.5826 -0.0640
 8224TIP3    H246164   4.303   4.512  17.118  1.6525 -1.1719 -0.6888
 8225TIP3   OH246165   6.772   4.827  13.738 -0.2575 -0.6448 -0.3467
 8225TIP3    H146166   6.703   4.770  13.772  0.2517 -0.5294  0.9349
 8225TIP3    H246167   6.736   4.915  13.744  1.3991 -0.1316  4.1773
 8226TIP3   OH246168   1.677   4.852   0.965 -0.4789  0.2847 -0.2098
 8226TIP3    H146169   1.615   4.901   0.912 -2.6625 -0.9290  1.1622
 8226TIP3    H246170   1.643   4.762   0.964  1.1369 -0.3511  0.7513
 8227TIP3   OH246171   4.317   1.411   3.994  0.1624 -0.2914 -0.1003
 8227TIP3    H146172   4.274   1.372   3.918 -1.0558  1.8411 -0.5272
 8227TIP3    H246173   4.290   1.503   3.993  0.6672 -0.0718  2.5179
 8228TIP3   OH246174   4.314   2.841  13.066 -0.1945 -0.2515  0.4450
 8228TIP3    H146175   4.384   2.886  13.019 -0.6699 -0.7724 -0.7560
 8228TIP3    H246176   4.239   2.900  13.061 -0.0593 -0.0089  1.1364
 8229TIP3   OH246177   4.348   3.032  15.990  0.0745  0.0825 -0.4160
 8229TIP3    H146178   4.337   2.984  16.072  1.1200 -0.3478 -0.5252
 8229TIP3    H246179   4.276   3.002  15.935 -2.0558  2.1095  1.1526
 8230TIP3   OH246180   4.272   5.462   0.540 -0.5729 -0.1274 -0.2782
 8230TIP3    H146181   4.281   5.413   0.458  1.8856  0.9128 -0.6846
 8230TIP3    H246182   4.188   5.507   0.532 -0.4684 -0.2212 -2.1483
 8231TIP3   OH246183   1.802   2.921   4.194  0.5885 -0.0968  0.0929
 8231TIP3    H146184   1.860   2.990   4.163 -1.7264  2.4657  1.3173
 8231TIP3    H246185   1.719   2.937   4.149  0.2844 -2.6767 -0.3402
 8232TIP3   OH246186   0.248   1.498   5.882  0.0466  0.0123 -0.0915
 8232TIP3    H146187   0.288   1.413   5.903  0.3517 -0.1698 -1.3612
 8232TIP3    H246188   0.199   1.522   5.961  1.4471 -0.4748  0.9410
 8233TIP3   OH246189   0.690   0.967  14.172  0.8857  0.4060 -0.3929
 8233TIP3    H146190   0.779   1.003  14.174  1.1524 -0.2828  1.4247
 8233TIP3    H246191   0.683   0.918  14.254 -0.9906  0.0055 -0.7810
 8234TIP3   OH246192   5.094   2.749   4.872  0.1188 -0.3640 -0.1511
 8234TIP3    H146193   5.142   2.732   4.953  0.0890 -0.9688 -0.2580
 8234TIP3    H246194   5.008   2.709   4.886  0.4207 -1.2713 -0.8281
 8235TIP3   OH246195   1.151   2.122  16.906 -0.2736 -0.6549 -0.0388
 8235TIP3    H146196   1.087   2.065  16.949 -1.7718  1.0514  0.0524
 8235TIP3    H246197   1.138   2.208  16.947  0.9553  0.1064 -1.1885
 8236TIP3   OH246198   4.724   3.400  14.967  0.5589 -0.0140  0.0671
 8236TIP3    H146199   4.730   3.306  14.948  1.6047  0.2439 -0.9186
 8236TIP3    H246200   4.787   3.415  15.037  1.3214  0.1763 -0.6540
 8237TIP3   OH246201   4.573   6.651   5.321 -0.7808 -0.0587 -0.0138
 8237TIP3    H146202   4.551   6.578   5.379  1.1686  0.3043  1.2385
 8237TIP3    H246203   4.501   6.654   5.258 -3.1661 -0.1813  2.6351
 8238TIP3   OH246204   4.934   5.824  10.934 -0.9678 -0.0922 -0.4434
 8238TIP3    H146205   4.977   5.905  10.906 -1.4908  0.5018  0.4486
 8238TIP3    H246206   4.910   5.780  10.852 -1.5909  1.1384 -0.9230
 8239TIP3   OH246207   2.294   5.264  13.648  0.0529  0.1202  0.7044
 8239TIP3    H146208   2.253   5.312  13.576  2.0295 -1.3334 -1.4837
 8239TIP3    H246209   2.221   5.226  13.696 -1.3020 -3.1536 -3.5933
 8240TIP3   OH246210   3.699   3.924   6.159  0.5223 -0.0372  0.8653
 8240TIP3    H146211   3.681   4.004   6.111 -0.8402 -1.1775 -0.5711
 8240TIP3    H246212   3.629   3.919   6.225 -0.3621 -0.8271 -0.0958
 8241TIP3   OH246213   2.441   1.450   2.545  0.4259  0.4791 -0.5920
 8241TIP3    H146214   2.511   1.389   2.522  0.6548  0.3690  0.3733
 8241TIP3    H246215   2.364   1.395   2.557  1.2335 -0.0136  2.9928
 8242TIP3   OH246216   2.537   3.916   4.513  0.2096 -0.4226  0.0191
 8242TIP3    H146217   2.500   3.950   4.595 -0.9288 -4.1912  1.1600
 8242TIP3    H246218   2.502   3.974   4.445 -1.8409  0.5215  1.8095
 8243TIP3   OH246219   5.292   5.395  14.265  0.0624  0.4775  0.4019
 8243TIP3    H146220   5.257   5.372  14.178 -0.1630 -2.2291  1.1497
 8243TIP3    H246221   5.382   5.362  14.263 -0.3818 -0.8556  1.6506
 8244TIP3   OH246222   4.193   5.764   3.800 -0.0088 -0.4969 -0.0344
 8244TIP3    H146223   4.272   5.793   3.754  0.2325 -1.0625  0.0230
 8244TIP3    H246224   4.183   5.672   3.775 -0.2066 -0.6418  0.5761
 8245TIP3   OH246225   6.252   5.247  14.887 -0.3739 -0.4445  0.1176
 8245TIP3    H146226   6.330   5.213  14.932  1.6403  2.2866 -1.2022
 8245TIP3    H246227   6.265   5.222  14.796  1.1263  3.6869 -0.8716
 8246TIP3   OH246228   1.402   2.747  10.640  0.0650  0.0073 -0.7234
 8246TIP3    H146229   1.351   2.825  10.663 -1.0127 -0.4148 -1.6505
 8246TIP3    H246230   1.353   2.674  10.677 -0.4342 -0.4682 -2.2540
 8247TIP3   OH246231   5.641   1.913  11.644 -0.1675 -0.1352  0.1569
 8247TIP3    H146232   5.634   1.868  11.728  4.2771 -1.9771 -0.3388
 8247TIP3    H246233   5.672   2.001  11.665 -0.0731 -0.2565  0.5232
 8248TIP3   OH246234   1.210   0.999  12.564 -0.3397  0.1167  0.0213
 8248TIP3    H146235   1.263   1.023  12.640  0.5911 -0.6229 -0.3729
 8248TIP3    H246236   1.223   0.905  12.555 -1.6211 -0.0499 -0.1720
 8249TIP3   OH246237   0.971   3.217  15.378 -0.5830  0.3135  0.3033
 8249TIP3    H146238   0.996   3.290  15.435 -0.9443  0.9776 -0.3719
 8249TIP3    H246239   1.053   3.170  15.361 -0.2392  0.9185  0.2591
 8250TIP3   OH246240   6.489   1.703   4.462 -0.2769 -0.0898  0.2368
 8250TIP3    H146241   6.409   1.755   4.451  0.0848  0.3965 -0.1725
 8250TIP3    H246242   6.522   1.728   4.549 -0.2562  0.1609  0.1601
 8251TIP3   OH246243   2.788   1.118  15.048  0.2755  0.0833  0.7329
 8251TIP3    H146244   2.725   1.188  15.068  0.3091  0.3902 -0.1911
 8251TIP3    H246245   2.841   1.154  14.976  0.2014 -0.9480  0.1487
 8252TIP3   OH246246   4.978   3.413  15.969  0.5628 -0.0762 -0.2307
 8252TIP3    H146247   4.922   3.343  15.936 -0.9166  1.5138 -1.2099
 8252TIP3    H246248   5.030   3.441  15.894 -1.0428  1.8797 -0.6898
 8253TIP3   OH246249   1.914   1.978  15.730  0.2340 -0.0344  0.4408
 8253TIP3    H146250   1.856   1.941  15.663  1.1537 -0.8385  0.0713
 8253TIP3    H246251   1.984   1.913  15.739  2.0036  1.7136 -0.3586
 8254TIP3   OH246252   3.400   4.100   5.270 -0.2594 -0.1053  0.0182
 8254TIP3    H146253   3.489   4.065   5.269  0.2719  1.2248 -1.6073
 8254TIP3    H246254   3.377   4.110   5.178 -1.2914  1.5266  0.4243
 8255TIP3   OH246255   0.208   0.731  14.199 -0.3832 -0.4751 -0.6026
 8255TIP3    H146256   0.293   0.690  14.214  1.1501  2.4459 -0.9907
 8255TIP3    H246257   0.183   0.767  14.284 -0.4170  0.1348 -0.8666
 8256TIP3   OH246258   3.875   5.455   3.533  0.1241 -0.1994  0.2593
 8256TIP3    H146259   3.781   5.465   3.550 -0.1769 -0.4133 -1.1967
 8256TIP3    H246260   3.904   5.387   3.594  0.0008  2.0205  2.8874
 8257TIP3   OH246261   0.575   2.029  14.715 -0.2542 -0.6192  0.0560
 8257TIP3    H146262   0.644   2.095  14.723  0.2607 -1.1133 -0.2707
 8257TIP3    H246263   0.621   1.948  14.693 -0.9262 -0.9826 -0.0444
 8258TIP3   OH246264   1.870   2.859   4.705 -0.1762  0.1835  0.1509
 8258TIP3    H146265   1.959   2.894   4.711 -0.1924  0.3778 -0.6653
 8258TIP3    H246266   1.821   2.909   4.770 -0.6695  3.2113 -2.4335
 8259TIP3   OH246267   0.527   0.420   2.689  0.0697  0.7650  0.1234
 8259TIP3    H146268   0.619   0.437   2.709 -0.0808  1.4133  0.2805
 8259TIP3    H246269   0.506   0.341   2.739  1.3350 -1.0776 -2.1945
 8260TIP3   OH246270   3.444   2.027  16.599  0.4890  0.2109 -0.5880
 8260TIP3    H146271   3.468   2.109  16.556  1.6476  0.6402  0.8518
 8260TIP3    H246272   3.501   1.961  16.559 -0.8124 -0.0235 -2.1330
 8261TIP3   OH246273   0.624   1.789  12.294  0.2636  0.5788  0.4359
 8261TIP3    H146274   0.552   1.845  12.265 -1.9130 -1.7566  1.1363
 8261TIP3    H246275   0.598   1.759  12.381  2.7897  0.8249  1.3153
 8262TIP3   OH246276   1.934   0.032   4.864  0.2768  0.2387  0.5130
 8262TIP3    H146277   1.902  -0.050   4.828  1.9304 -0.8464  1.4335
 8262TIP3    H246278   1.935   0.093   4.790 -1.1359 -0.5101 -0.1289
 8263TIP3   OH246279   4.984   6.097   3.809 -0.3336  0.4837 -0.3253
 8263TIP3    H146280   4.927   6.021   3.795  0.0671  0.0673  0.2841
 8263TIP3    H246281   5.040   6.072   3.883 -0.1896  1.3698 -0.1302
 8264TIP3   OH246282   2.849   0.733  16.711 -0.1508  0.4446 -0.8868
 8264TIP3    H146283   2.890   0.761  16.792 -0.4165 -2.0800  0.1777
 8264TIP3    H246284   2.769   0.687  16.738 -0.0242 -0.8196 -2.5268
 8265TIP3   OH246285   0.460   1.442  15.641 -0.5404 -0.0282 -0.6301
 8265TIP3    H146286   0.420   1.355  15.644 -0.8632  0.0824 -1.5925
 8265TIP3    H246287   0.535   1.432  15.583  0.3537 -0.0309  0.5082
 8266TIP3   OH246288   5.896   5.900   4.191  0.3338  0.1747 -0.3385
 8266TIP3    H146289   5.984   5.908   4.228  1.6834 -2.0540 -2.8404
 8266TIP3    H246290   5.854   5.832   4.244  0.1545  1.1814  0.8073
 8267TIP3   OH246291   4.232   5.091   5.140 -0.1025  0.1583  0.4144
 8267TIP3    H146292   4.258   5.145   5.215 -1.8496 -1.2915  2.1253
 8267TIP3    H246293   4.148   5.128   5.112 -0.4663 -0.5794  0.5131
 8268TIP3   OH246294   6.002   1.727  12.378  0.2088 -0.3783 -0.0320
 8268TIP3    H146295   6.082   1.697  12.421  1.0045  0.5460 -0.8306
 8268TIP3    H246296   5.981   1.810  12.422  0.7413  0.3137 -1.0626
 8269TIP3   OH246297   6.737   5.625  17.275  0.1882  0.1691  0.1597
 8269TIP3    H146298   6.652   5.586  17.296  0.3282 -1.9547 -2.9854
 8269TIP3    H246299   6.801   5.557  17.295  0.6394 -0.3918 -2.9764
 8270TIP3   OH246300   1.676   4.595  15.746  0.6758 -0.4040 -0.3187
 8270TIP3    H146301   1.721   4.673  15.779  0.6001 -0.1613 -0.7853
 8270TIP3    H246302   1.717   4.579  15.661  0.4161 -0.6436 -0.3969
 8271TIP3   OH246303   2.089   0.774  14.455  0.2743 -0.5018  0.2127
 8271TIP3    H146304   2.086   0.705  14.389 -1.0416 -0.1649 -0.0875
 8271TIP3    H246305   2.120   0.851  14.409 -0.6569 -0.2634 -0.0158
 8272TIP3   OH246306   6.557   4.776  12.257  0.2832 -0.1183  0.5758
 8272TIP3    H146307   6.563   4.780  12.353  1.7538 -0.3445  0.5005
 8272TIP3    H246308   6.634   4.824  12.226  0.4883 -1.1216 -0.4918
 8273TIP3   OH246309   3.401   2.593   6.129  0.4868 -0.0677  0.7710
 8273TIP3    H146310   3.361   2.667   6.174  0.4621  0.1400  0.4024
 8273TIP3    H246311   3.404   2.524   6.196 -0.0165  0.0754  0.9445
 8274TIP3   OH246312   6.806   0.574   3.020 -0.3457  0.1174 -0.2507
 8274TIP3    H146313   6.727   0.556   2.968 -0.4800  1.3159 -0.4724
 8274TIP3    H246314   6.852   0.642   2.971  0.1979  0.3060  0.5173
 8275TIP3   OH246315   6.285   5.584   1.207 -0.1598 -0.1740  0.0462
 8275TIP3    H146316   6.193   5.564   1.223  0.0688 -0.4052  1.0792
 8275TIP3    H246317   6.329   5.567   1.291  0.3825  2.7100  0.3807
 8276TIP3   OH246318   3.496   0.637   3.773 -1.0277  0.0810  0.3025
 8276TIP3    H146319   3.443   0.684   3.838 -0.7993  1.0268 -0.1736
 8276TIP3    H246320   3.537   0.707   3.721 -0.0887 -0.6514  0.0448
 8277TIP3   OH246321   3.821   3.825  14.200 -0.0253  0.2002  0.0561
 8277TIP3    H146322   3.726   3.838  14.198 -0.1376 -0.7721 -1.8941
 8277TIP3    H246323   3.852   3.890  14.263 -1.9210  0.9100  0.3074
 8278TIP3   OH246324   2.877   0.313  12.140 -0.0120  0.0634  0.5059
 8278TIP3    H146325   2.839   0.292  12.226 -1.3509  0.2755 -0.0256
 8278TIP3    H246326   2.968   0.332  12.159 -0.9988  3.3693  2.4191
 8279TIP3   OH246327   2.436   3.789  11.022  0.7259  0.2881 -0.3963
 8279TIP3    H146328   2.402   3.705  10.993 -0.8577  0.7586  0.0501
 8279TIP3    H246329   2.482   3.824  10.946  0.2311 -0.3735 -1.0074
 8280TIP3   OH246330   3.412   5.259  12.974  0.4987  0.2498  0.3091
 8280TIP3    H146331   3.332   5.215  12.948  0.0410  1.1003  0.2630
 8280TIP3    H246332   3.429   5.227  13.063 -0.5240  0.9438  0.7586
 8281TIP3   OH246333   1.684   6.268  13.376  0.6522 -0.2888  0.0889
 8281TIP3    H146334   1.636   6.297  13.454 -0.6570  0.1442 -0.8655
 8281TIP3    H246335   1.748   6.337  13.360  0.8489 -0.3249  0.7101
 8282TIP3   OH246336   4.602   5.380   2.631  0.2824 -0.3348  0.0855
 8282TIP3    H146337   4.689   5.339   2.632  1.3946  1.9305 -0.4787
 8282TIP3    H246338   4.562   5.353   2.714  0.2880 -3.8718 -0.9526
 8283TIP3   OH246339   5.255   2.857  12.507  0.6481 -0.0162  0.5959
 8283TIP3    H146340   5.218   2.847  12.419  1.6518  1.8053 -0.0527
 8283TIP3    H246341   5.179   2.849  12.565 -0.1873 -0.2097 -0.4970
 8284TIP3   OH246342   1.436   1.144  13.974 -0.0242  0.8897 -0.3637
 8284TIP3    H146343   1.376   1.186  14.036 -0.1811 -0.1141  0.1843
 8284TIP3    H246344   1.393   1.153  13.889 -0.6028  0.8202 -0.0821
 8285TIP3   OH246345   6.676   5.853   2.169  0.0530  1.0458 -0.0983
 8285TIP3    H146346   6.606   5.859   2.104 -0.2072 -2.7297 -0.2272
 8285TIP3    H246347   6.757   5.861   2.118 -0.2026  1.1515 -0.4837
 8286TIP3   OH246348   5.422   6.533  10.340  0.4275 -0.3480 -0.5178
 8286TIP3    H146349   5.406   6.615  10.387  1.3153 -0.5422  0.1322
 8286TIP3    H246350   5.344   6.520  10.287  0.5226  1.2380 -1.0880
 8287TIP3   OH246351   4.743   4.245   3.596  0.4478 -0.1914 -0.2146
 8287TIP3    H146352   4.793   4.198   3.529  0.1748 -1.2642  0.3182
 8287TIP3    H246353   4.742   4.185   3.671  0.4311  0.8435  0.6092
 8288TIP3   OH246354   2.093   6.411   0.040  0.0310  0.2499  0.1988
 8288TIP3    H146355   2.011   6.377   0.003  0.1399 -0.0199  0.2055
 8288TIP3    H246356   2.073   6.501   0.064 -0.0368  0.4347 -0.5491
 8289TIP3   OH246357   0.566   0.564   3.719 -0.0032 -0.0153  0.7329
 8289TIP3    H146358   0.475   0.543   3.741 -0.3084 -0.0177 -0.5129
 8289TIP3    H246359   0.616   0.490   3.754 -0.5479 -0.3563  0.8077
 8290TIP3   OH246360   0.436   1.573   0.158 -0.7075 -0.4155  0.4646
 8290TIP3    H146361   0.394   1.658   0.145  0.7241  0.2002 -0.2094
 8290TIP3    H246362   0.385   1.512   0.103  0.0136  0.5453 -1.3015
 8291TIP3   OH246363   6.329   2.146   4.882  0.1233  0.5008  0.5485
 8291TIP3    H146364   6.350   2.056   4.858  0.3489  0.1308  2.0463
 8291TIP3    H246365   6.237   2.143   4.909 -0.7841  1.3521 -2.3447
 8292TIP3   OH246366   2.878   5.894  15.824  0.0938  0.5205 -0.6531
 8292TIP3    H146367   2.831   5.947  15.889  1.6878 -0.5722  1.4412
 8292TIP3    H246368   2.819   5.821  15.805  0.0197  0.3407  0.2668
 8293TIP3   OH246369   0.030   3.861  13.827 -0.4222 -0.1571  0.6346
 8293TIP3    H146370  -0.059   3.837  13.850  0.1518 -1.3994  1.6422
 8293TIP3    H246371   0.082   3.784  13.849  1.0651  0.9715  1.1894
 8294TIP3   OH246372   3.353   5.122  12.571  0.1785  0.0220 -0.5632
 8294TIP3    H146373   3.420   5.172  12.618 -0.2819  0.3617 -0.2691
 8294TIP3    H246374   3.286   5.103  12.637 -1.3514  2.0733 -1.4814
 8295TIP3   OH246375   0.438   2.270  15.752  0.1932 -0.1403  0.4870
 8295TIP3    H146376   0.444   2.353  15.705 -0.8255  0.4634  1.3924
 8295TIP3    H246377   0.527   2.234  15.749  0.5746  0.8366 -0.1635
 8296TIP3   OH246378   1.096   4.726  14.612  0.0263  0.0497  0.3865
 8296TIP3    H146379   1.061   4.637  14.621 -1.9269  0.9188  1.8891
 8296TIP3    H246380   1.018   4.782  14.614  1.3625  1.9038  1.4112
 8297TIP3   OH246381   6.588   1.888   5.059  0.0990 -0.5584  0.7577
 8297TIP3    H146382   6.582   1.983   5.049 -0.5127 -0.4025  2.5174
 8297TIP3    H246383   6.506   1.862   5.101  0.6915 -1.7357  1.2273
 8298TIP3   OH246384   0.290   2.279   6.072  0.6096  0.3763 -0.9776
 8298TIP3    H146385   0.238   2.255   5.995 -0.2023  0.6286 -0.5234
 8298TIP3    H246386   0.228   2.274   6.144  1.5996 -0.7655 -0.1962
 8299TIP3   OH246387   3.865   0.518   6.633 -0.9684 -0.2892 -0.9526
 8299TIP3    H146388   3.884   0.599   6.585  0.3202  0.8857  1.4592
 8299TIP3    H246389   3.778   0.492   6.603 -1.2871  1.8456 -1.9471
 8300TIP3   OH246390   3.676   4.269  11.909 -0.1516  0.1032 -0.3237
 8300TIP3    H146391   3.625   4.247  11.987  0.2570  1.9455  0.4864
 8300TIP3    H246392   3.694   4.184  11.867 -0.5491 -0.8759  1.4584
 8301TIP3   OH246393   1.513   3.044   2.940 -0.0856  0.3590  0.0388
 8301TIP3    H146394   1.507   3.140   2.942 -1.2618  0.3117 -0.9191
 8301TIP3    H246395   1.422   3.014   2.947  0.0571 -0.6462 -2.0979
 8302TIP3   OH246396   1.741   1.873   4.894  0.4298 -0.1441 -0.2854
 8302TIP3    H146397   1.745   1.968   4.906 -1.4066 -0.1975  0.9602
 8302TIP3    H246398   1.726   1.839   4.982  0.5684 -1.5435 -0.8029
 8303TIP3   OH246399   5.076   0.138   0.915  0.4764 -0.2322  0.2609
 8303TIP3    H146400   5.147   0.159   0.977  0.5568 -0.6690  0.3172
 8303TIP3    H246401   5.008   0.100   0.970  0.0546  0.5033  0.2585
 8304TIP3   OH246402   1.114   1.387  15.534 -0.3090 -0.3809 -0.0305
 8304TIP3    H146403   1.105   1.341  15.617 -0.0729 -0.2318  0.0776
 8304TIP3    H246404   1.199   1.430  15.539 -1.3965  1.7592  0.7079
 8305TIP3   OH246405   5.206   4.881   2.102  0.2232  0.7807 -0.2546
 8305TIP3    H146406   5.113   4.877   2.078  0.3661  1.1400 -0.8630
 8305TIP3    H246407   5.248   4.813   2.050  0.4033  1.0264 -0.4288
 8306TIP3   OH246408   6.449   6.165   4.028  0.4138  0.2813  0.6069
 8306TIP3    H146409   6.441   6.259   4.013 -1.7468 -0.1653 -1.2543
 8306TIP3    H246410   6.437   6.156   4.123  1.3104  1.9136  0.9098
 8307TIP3   OH246411   1.574   1.065  11.272  0.2623 -0.4855 -0.0591
 8307TIP3    H146412   1.520   1.121  11.216  0.1381 -1.5539 -1.0363
 8307TIP3    H246413   1.644   1.123  11.304 -2.1391  1.2406  2.2669
 8308TIP3   OH246414   0.531   3.991  13.462 -0.2776 -0.3211 -0.2132
 8308TIP3    H146415   0.592   3.969  13.532 -1.1950 -1.2117  0.3257
 8308TIP3    H246416   0.552   4.082  13.440  0.7938 -0.4034  0.4119
 8309TIP3   OH246417   0.499   2.038   4.621 -0.2453  0.0327  0.1507
 8309TIP3    H146418   0.465   2.107   4.564 -0.1891  0.0169  0.0990
 8309TIP3    H246419   0.465   2.060   4.708 -0.0640  0.2364  0.1703
 8310TIP3   OH246420   1.585   0.197   0.709 -0.2514 -0.2124  0.2427
 8310TIP3    H146421   1.671   0.179   0.748 -0.6777  0.8186  1.6979
 8310TIP3    H246422   1.542   0.255   0.771 -1.8780 -0.4272 -0.6507
 8311TIP3   OH246423   2.667   0.010  15.661 -0.1600 -0.4902 -0.0872
 8311TIP3    H146424   2.628  -0.019  15.743 -1.6744 -0.1192 -0.6527
 8311TIP3    H246425   2.597   0.000  15.597  1.0871 -1.0472 -1.4043
 8312TIP3   OH246426   1.148   2.858  14.132 -0.4659 -0.4719  0.0259
 8312TIP3    H146427   1.086   2.873  14.060 -2.2016  1.8847  1.9158
 8312TIP3    H246428   1.202   2.937  14.134  0.9639 -1.4296 -0.0008
 8313TIP3   OH246429   0.403   3.445  11.672 -0.9834  0.5199  1.0293
 8313TIP3    H146430   0.380   3.537  11.683 -0.9637  0.8500 -1.5112
 8313TIP3    H246431   0.490   3.447  11.632 -1.7882 -0.5474 -0.8272
 8314TIP3   OH246432   4.399   2.267   2.929 -0.1671  0.1483  0.0333
 8314TIP3    H146433   4.480   2.234   2.967 -0.5552  0.0835  0.8139
 8314TIP3    H246434   4.349   2.300   3.004 -1.4188 -1.0224 -0.2741
 8315TIP3   OH246435   2.837   2.025  16.069 -0.1352  0.4954 -0.0810
 8315TIP3    H146436   2.807   2.110  16.038 -0.0649  0.5770  0.0740
 8315TIP3    H246437   2.921   2.011  16.026 -0.7577 -0.0765 -1.1135
 8316TIP3   OH246438   3.363   6.437  13.003 -0.1375  0.5179 -0.1230
 8316TIP3    H146439   3.342   6.353  13.043 -1.2395  0.6803 -0.3331
 8316TIP3    H246440   3.292   6.495  13.031  1.6222  1.9127  1.6307
 8317TIP3   OH246441   2.028   5.532  10.583  0.3425  0.0155  0.5090
 8317TIP3    H146442   2.056   5.441  10.583 -0.8329 -0.3740 -1.8627
 8317TIP3    H246443   2.099   5.580  10.541  0.2879 -0.0488  0.3424
 8318TIP3   OH246444   5.773   4.960   2.371  1.0787  0.2551 -0.1940
 8318TIP3    H146445   5.708   5.013   2.418 -1.0660 -2.4319 -0.0177
 8318TIP3    H246446   5.830   5.025   2.329 -0.7112  2.6992  1.0071
 8319TIP3   OH246447   6.739   5.426  12.518 -0.4234  0.2279  0.0197
 8319TIP3    H146448   6.751   5.349  12.573  0.7270  1.6943  1.9166
 8319TIP3    H246449   6.670   5.402  12.457  1.0016 -2.8379 -0.4650
 8320TIP3   OH246450   0.088   6.728  11.646 -0.1106 -0.3706  0.1644
 8320TIP3    H146451   0.182   6.736  11.628 -0.6068 -1.0649 -3.1723
 8320TIP3    H246452   0.064   6.644  11.607 -2.0971 -0.2868  1.1493
 8321TIP3   OH246453   4.522   1.417   1.784  0.4670  0.2998 -0.8363
 8321TIP3    H146454   4.551   1.378   1.867  1.8310  0.8810 -1.0227
 8321TIP3    H246455   4.427   1.417   1.790  0.4242 -2.6003 -0.6247
 8322TIP3   OH246456   2.789   4.837  12.568 -0.4812 -0.6622  0.8071
 8322TIP3    H146457   2.809   4.854  12.476 -2.1406 -2.0218  0.1633
 8322TIP3    H246458   2.722   4.902  12.590  0.0913 -0.1808  1.1187
 8323TIP3   OH246459   1.675   4.933  12.904 -0.3275  0.1939  0.3226
 8323TIP3    H146460   1.718   4.937  12.990 -0.4951  1.2976  0.3673
 8323TIP3    H246461   1.657   4.840  12.890  1.1804 -0.1690  0.7448
 8324TIP3   OH246462   2.619   5.658  13.164  0.1924 -0.1263  0.0740
 8324TIP3    H146463   2.679   5.646  13.090 -0.8014  0.2714 -0.8012
 8324TIP3    H246464   2.585   5.570  13.181 -2.1731  0.2811 -2.1785
 8325TIP3   OH246465   5.764   0.930  11.402  0.0092 -0.0673 -0.3611
 8325TIP3    H146466   5.843   0.876  11.394 -1.1150 -2.1036  1.6917
 8325TIP3    H246467   5.705   0.895  11.336  0.7162  1.3297 -1.7634
 8326TIP3   OH246468   5.599   6.747   0.021  0.2734  0.6273 -0.1759
 8326TIP3    H146469   5.565   6.830   0.056  0.0146  0.3769  0.1698
 8326TIP3    H246470   5.534   6.720  -0.044 -1.6145 -1.2017  2.3548
 8327TIP3   OH246471   4.825   3.459   0.869 -0.1238  0.2118 -0.1422
 8327TIP3    H146472   4.830   3.386   0.806  1.2811  1.2423 -1.2596
 8327TIP3    H246473   4.880   3.527   0.831  2.7460  0.0000  3.3729
 8328TIP3   OH246474   1.388   6.450  15.956 -0.0011 -0.0949 -0.0149
 8328TIP3    H146475   1.430   6.379  15.907 -0.7734  0.0662 -0.9194
 8328TIP3    H246476   1.306   6.411  15.988  0.1615  0.0177  0.5359
 8329TIP3   OH246477   5.892   6.074  14.136  0.1148  0.0294 -0.2132
 8329TIP3    H146478   5.814   6.028  14.169  0.3714  0.6054  1.2632
 8329TIP3    H246479   5.918   6.025  14.058 -0.7488 -1.1638  0.2257
 8330TIP3   OH246480   0.780   3.860   2.393  0.2470  0.2778  0.3747
 8330TIP3    H146481   0.803   3.868   2.301  0.2750 -0.0135  0.3554
 8330TIP3    H246482   0.816   3.776   2.420 -0.6076 -0.0851  0.3970
 8331TIP3   OH246483   2.805   5.828  16.204  0.5234  0.6198  0.0916
 8331TIP3    H146484   2.833   5.751  16.155  2.2527  1.7523 -0.7325
 8331TIP3    H246485   2.829   5.809  16.295  0.0007 -0.2412  0.0477
 8332TIP3   OH246486   2.421   4.152   4.010 -0.1003 -0.3507 -0.0601
 8332TIP3    H146487   2.421   4.244   4.036 -0.0766 -0.3154 -0.1836
 8332TIP3    H246488   2.512   4.133   3.989 -0.1131 -0.3894 -0.0815
 8333TIP3   OH246489   6.647   2.549  16.057 -0.1097  0.4141  0.0658
 8333TIP3    H146490   6.604   2.577  15.977 -1.7621  1.0750  1.1772
 8333TIP3    H246491   6.661   2.630  16.107 -1.4152 -0.2632  1.5673
 8334TIP3   OH246492   0.702   3.283   2.279  0.3361  0.0970 -0.2163
 8334TIP3    H146493   0.785   3.245   2.250 -0.4599 -0.7180 -1.4631
 8334TIP3    H246494   0.683   3.239   2.361 -0.9007 -2.7244 -1.9660
 8335TIP3   OH246495   1.450   3.022  11.006 -0.4433 -0.4801  1.0208
 8335TIP3    H146496   1.467   3.073  11.085 -0.6807 -0.5758  1.1334
 8335TIP3    H246497   1.444   2.931  11.037  0.6576 -0.6636  0.7340
 8336TIP3   OH246498   3.060   1.638  11.629  0.1172  0.1761  0.3504
 8336TIP3    H146499   3.120   1.622  11.557  1.3039 -0.4477  1.4624
 8336TIP3    H246500   3.001   1.563  11.629 -0.2717  0.4763 -0.3374
 8337TIP3   OH246501   6.145   4.986  11.576 -0.1963  0.0308 -0.5100
 8337TIP3    H146502   6.137   4.957  11.667  0.6359 -0.1774 -0.4961
 8337TIP3    H246503   6.115   4.911  11.525 -0.7772  0.1906 -0.4028
 8338TIP3   OH246504   5.593   5.063  12.767 -0.3367  0.1569 -0.4226
 8338TIP3    H146505   5.645   5.134  12.731 -0.3761  0.2957 -0.2105
 8338TIP3    H246506   5.656   5.010  12.817 -0.6452  1.1258  1.0242
 8339TIP3   OH246507   2.805   0.184  15.454  0.3242  0.3142 -0.4392
 8339TIP3    H146508   2.825   0.167  15.546 -2.5081  2.0812  0.5516
 8339TIP3    H246509   2.766   0.102  15.423 -0.2408  0.2727  0.3832
 8340TIP3   OH246510   6.762   0.902  15.958 -0.3031 -0.1340 -0.3664
 8340TIP3    H146511   6.830   0.926  15.895  0.7406  0.6941  1.0465
 8340TIP3    H246512   6.713   0.832  15.916  2.2181 -1.6164 -0.9045
 8341TIP3   OH246513   0.426   4.906  16.182  0.0907  0.2723  0.1958
 8341TIP3    H146514   0.464   4.920  16.095  1.0106 -0.5929  0.4493
 8341TIP3    H246515   0.487   4.949  16.242 -0.8746  1.4079  0.3598
 8342TIP3   OH246516   3.412   4.752   1.254  0.4275  0.1591  0.5560
 8342TIP3    H146517   3.434   4.686   1.320  0.0286  0.5345  1.0695
 8342TIP3    H246518   3.337   4.799   1.291 -2.3824 -2.2238 -1.8707
 8343TIP3   OH246519   4.414   1.360   3.422  0.7540 -0.1196  0.2243
 8343TIP3    H146520   4.401   1.397   3.335  1.6487  1.1882  0.6441
 8343TIP3    H246521   4.458   1.429   3.472  1.2275 -1.2449  1.3980
 8344TIP3   OH246522   4.429   6.174   2.433  0.0412  0.1570  0.2719
 8344TIP3    H146523   4.390   6.089   2.410 -0.2285 -0.4209  2.7117
 8344TIP3    H246524   4.505   6.182   2.376 -0.8640 -0.9668 -1.1316
 8345TIP3   OH246525   2.656   4.949  13.964 -0.0265 -0.2511 -0.0084
 8345TIP3    H146526   2.582   4.973  13.908  1.6732  0.9550 -1.8536
 8345TIP3    H246527   2.679   5.030  14.009 -0.1605 -0.7485  0.9489
 8346TIP3   OH246528   5.866   0.692   2.041  0.0879  0.1132  0.0214
 8346TIP3    H146529   5.891   0.684   1.949 -0.6933  0.8671 -0.2650
 8346TIP3    H246530   5.908   0.617   2.084 -1.7037 -1.7767 -1.4107
 8347TIP3   OH246531   6.283   1.230   5.300  0.4118 -0.1583 -0.3336
 8347TIP3    H146532   6.343   1.201   5.368 -0.5138 -0.5419  0.3307
 8347TIP3    H246533   6.287   1.162   5.233  0.6902 -0.1980 -0.2772
 8348TIP3   OH246534   1.383   0.296   0.902 -0.1633  0.3373 -0.1521
 8348TIP3    H146535   1.338   0.378   0.882  1.0905  1.4655  1.5084
 8348TIP3    H246536   1.344   0.266   0.984  0.6754  0.2628  0.2285
 8349TIP3   OH246537   3.384   2.776  13.857  0.1049 -0.1611 -0.7888
 8349TIP3    H146538   3.343   2.836  13.795 -0.2606  0.0847 -0.3029
 8349TIP3    H246539   3.458   2.739  13.808  0.1377  0.4334 -1.1881
 8350TIP3   OH246540   4.846   6.085  16.205  0.1579  0.1393 -0.7441
 8350TIP3    H146541   4.927   6.105  16.253  1.1096  2.0684 -3.0065
 8350TIP3    H246542   4.862   5.999  16.167  0.6146 -0.0895 -0.0388
 8351TIP3   OH246543   2.297   5.915  11.455  0.2640 -0.7178 -0.4337
 8351TIP3    H146544   2.201   5.920  11.457  0.3508  0.9817 -0.0762
 8351TIP3    H246545   2.326   5.986  11.511  1.7328 -2.1952  0.7182
 8352TIP3   OH246546   0.320   2.339  14.849 -0.1956 -0.3711  0.4657
 8352TIP3    H146547   0.396   2.337  14.907  0.1612 -4.3367  0.0373
 8352TIP3    H246548   0.355   2.373  14.766  0.1643  1.6104  1.4046
 8353TIP3   OH246549   4.219   5.244   2.292  0.3516 -0.2014  0.5525
 8353TIP3    H146550   4.267   5.303   2.350 -0.2907  0.3821  0.5046
 8353TIP3    H246551   4.187   5.301   2.222  1.2824 -0.9368 -0.4709
 8354TIP3   OH246552   3.851   3.914  10.706 -0.0729 -0.7142  0.0147
 8354TIP3    H146553   3.760   3.943  10.693  0.4846  0.5132 -1.1526
 8354TIP3    H246554   3.845   3.852  10.780 -1.8451 -0.6138 -0.0112
 8355TIP3   OH246555   0.238   0.635   0.344 -0.2958 -0.0675  0.0248
 8355TIP3    H146556   0.249   0.637   0.249  1.0239 -1.7142  0.1228
 8355TIP3    H246557   0.147   0.610   0.357 -0.7646  1.1470 -0.7985
 8356TIP3   OH246558   4.971   4.678  11.518  0.4390 -0.1859  0.1714
 8356TIP3    H146559   4.937   4.740  11.454 -0.5073 -0.6739  0.1913
 8356TIP3    H246560   4.935   4.593  11.490  1.7441 -0.7450  0.1102
 8357TIP3   OH246561   6.629   5.409   0.863 -0.1100 -1.1074  0.9359
 8357TIP3    H146562   6.592   5.438   0.946  0.2736 -1.5288  1.2578
 8357TIP3    H246563   6.723   5.428   0.870 -0.4245  1.1504 -0.3795
 8358TIP3   OH246564   6.631   1.794  14.187 -0.4735 -0.1346  0.1302
 8358TIP3    H146565   6.698   1.853  14.222 -0.6867  0.8757 -1.1282
 8358TIP3    H246566   6.548   1.834  14.213 -0.6107 -1.3541  1.6400
 8359TIP3   OH246567   2.485   0.249  14.632  0.3253 -0.3276 -0.1405
 8359TIP3    H146568   2.550   0.231  14.563 -0.8453  1.2712 -1.7092
 8359TIP3    H246569   2.402   0.220  14.593 -0.6020  2.2085 -0.1019
 8360TIP3   OH246570   1.120   5.085   0.068 -0.2187 -0.2066 -0.1399
 8360TIP3    H146571   1.171   5.071   0.147 -0.3465  0.3518  0.0493
 8360TIP3    H246572   1.061   5.010   0.063 -0.4859 -0.0407  0.5126
 8361TIP3   OH246573   6.731   0.845  14.283  0.6127 -0.2444 -0.8237
 8361TIP3    H146574   6.720   0.892  14.201  0.7957  2.5345  0.6585
 8361TIP3    H246575   6.649   0.797  14.295 -0.7816  2.0243 -0.9990
 8362TIP3   OH246576   0.622   2.787  13.587 -0.3198 -0.1412 -0.2498
 8362TIP3    H146577   0.572   2.782  13.669  0.3173  1.3700  0.2533
 8362TIP3    H246578   0.558   2.766  13.519 -1.0376 -0.6723  0.5736
 8363TIP3   OH246579   1.854   0.763  14.131  0.1594 -0.2944  0.0336
 8363TIP3    H146580   1.767   0.737  14.160 -1.0741  2.9186 -0.5512
 8363TIP3    H246581   1.867   0.716  14.048 -0.6760 -1.4196  0.5324
 8364TIP3   OH246582   5.818   6.525  14.474  0.4577  0.1022  0.0389
 8364TIP3    H146583   5.830   6.599  14.415  0.1226  0.3282  0.2542
 8364TIP3    H246584   5.891   6.532  14.536  1.9528 -1.2715 -1.5221
 8365TIP3   OH246585   5.794   1.181   5.972  0.3252  0.0496  0.0663
 8365TIP3    H146586   5.889   1.173   5.960  0.0657 -1.1927 -1.3715
 8365TIP3    H246587   5.757   1.117   5.911 -1.4134 -0.3835  1.5498
 8366TIP3   OH246588   5.035   2.881  14.985  0.0317 -0.1736 -0.1878
 8366TIP3    H146589   4.968   2.888  15.053 -0.8617 -0.2324 -1.0452
 8366TIP3    H246590   5.118   2.886  15.032 -0.5674  1.1355  0.7668
 8367TIP3   OH246591   1.839   5.957  10.682  0.7557  0.1728 -0.0211
 8367TIP3    H146592   1.842   5.869  10.720  0.5158  0.3257  0.3526
 8367TIP3    H246593   1.916   6.001  10.717  0.2524  0.4817  0.7018
 8368TIP3   OH246594   4.516   3.271  11.328 -0.2458 -0.0383  0.4142
 8368TIP3    H146595   4.610   3.266  11.311 -0.5272  0.3904 -1.3216
 8368TIP3    H246596   4.485   3.344  11.275 -1.5190  0.0165  1.1963
 8369TIP3   OH246597   2.557   4.930   5.303 -0.4809 -0.0827  0.1614
 8369TIP3    H146598   2.559   4.977   5.219 -1.4706  0.4296  0.4143
 8369TIP3    H246599   2.491   4.976   5.354 -0.7034 -1.1110  0.8092
 8370TIP3   OH246600   1.918   4.214  16.917  0.1228  0.1661 -0.1232
 8370TIP3    H146601   1.854   4.176  16.977  0.3717  0.6952  0.4797
 8370TIP3    H246602   1.969   4.140  16.886  0.4837 -0.0173  0.9027
 8371TIP3   OH246603   1.173   3.874  16.485 -0.5547 -0.6950  0.1579
 8371TIP3    H146604   1.140   3.791  16.449  0.1525 -1.0729  0.3833
 8371TIP3    H246605   1.105   3.938  16.462 -1.3986 -1.4452  0.5021
 8372TIP3   OH246606   4.355   2.409  16.601 -0.2150 -0.2288  0.6413
 8372TIP3    H146607   4.313   2.363  16.673 -0.6418 -0.9571 -0.0502
 8372TIP3    H246608   4.442   2.369  16.595 -0.1850 -0.1779  0.7565
 8373TIP3   OH246609   4.442   4.026  13.590  0.2931  0.6873 -0.3586
 8373TIP3    H146610   4.356   3.986  13.578  0.5720 -0.1942  0.4664
 8373TIP3    H246611   4.429   4.089  13.661  0.5446 -0.1917  0.4890
 8374TIP3   OH246612   0.084   5.395   0.061 -0.0844  0.4161 -0.2753
 8374TIP3    H146613   0.095   5.320   0.003  0.3834  0.8280 -0.7203
 8374TIP3    H246614   0.170   5.436   0.065 -0.1226  0.4214  0.6705
 8375TIP3   OH246615   3.756   4.060  13.466 -0.2422 -0.4193 -0.0255
 8375TIP3    H146616   3.828   4.024  13.414  1.4069  0.6363  1.4617
 8375TIP3    H246617   3.691   4.088  13.402  0.9166 -0.8739 -1.4123
 8376TIP3   OH246618   4.430   3.240  13.509 -0.7620  0.0282  0.3488
 8376TIP3    H146619   4.342   3.277  13.519 -1.0026 -0.5069  0.2807
 8376TIP3    H246620   4.424   3.188  13.428 -0.1933  0.5301 -0.0136
 8377TIP3   OH246621   3.135   5.435   6.447 -0.2133 -0.9380 -0.6720
 8377TIP3    H146622   3.069   5.450   6.516  1.6712 -1.0659  1.2118
 8377TIP3    H246623   3.214   5.413   6.495  1.3046 -0.4529 -2.9043
 8378TIP3   OH246624   3.690   1.999  12.447  0.2268  0.0872  0.7467
 8378TIP3    H146625   3.746   1.931  12.409 -0.0860  0.8362 -1.1379
 8378TIP3    H246626   3.602   1.963  12.443 -0.1576  1.1536 -1.7308
 8379TIP3   OH246627   3.640   1.055  16.558  0.1355 -0.0510  0.2967
 8379TIP3    H146628   3.557   1.097  16.535  0.9155  0.6227 -1.3621
 8379TIP3    H246629   3.615   0.977  16.608 -1.6229 -1.1752 -2.2480
 8380TIP3   OH246630   4.305   0.083  16.611 -0.5798 -0.2006 -0.1562
 8380TIP3    H146631   4.214   0.111  16.619 -0.0947  1.4050  0.0231
 8380TIP3    H246632   4.350   0.127  16.684  0.8762  1.4794 -2.0060
 8381TIP3   OH246633   2.123   3.562   0.031  0.0012  0.0095  0.3379
 8381TIP3    H146634   2.206   3.602   0.004  0.4402 -0.5222  0.8992
 8381TIP3    H246635   2.071   3.636   0.065  0.9256  0.0684  1.6459
 8382TIP3   OH246636   6.414   6.627   0.963 -0.0482  0.5426 -0.2297
 8382TIP3    H146637   6.445   6.710   0.926 -0.4067  0.7837  0.0111
 8382TIP3    H246638   6.389   6.575   0.886  1.0488  0.3047 -0.4289
 8383TIP3   OH246639   5.757   0.965   1.083  0.1555 -0.1725  0.4397
 8383TIP3    H146640   5.716   1.031   1.026  0.1780  0.4051  1.0823
 8383TIP3    H246641   5.739   0.882   1.040 -2.9784 -0.0862  1.4240
 8384TIP3   OH246642   4.710   0.961   3.676  0.2077  0.2103 -0.0494
 8384TIP3    H146643   4.745   0.927   3.594  2.7698 -0.2182  1.1970
 8384TIP3    H246644   4.635   0.904   3.695  1.7479 -1.9330 -0.2740
 8385TIP3   OH246645   6.632   6.160  13.279  0.4493 -0.2546 -0.0696
 8385TIP3    H146646   6.622   6.072  13.241  0.1703 -0.3816  0.2825
 8385TIP3    H246647   6.601   6.150  13.369 -2.6837  0.9235 -0.9448
 8386TIP3   OH246648   1.441   1.394  15.848  0.0623 -0.0237 -0.2518
 8386TIP3    H146649   1.465   1.462  15.911  1.2629 -0.1532 -0.5560
 8386TIP3    H246650   1.417   1.318  15.902 -0.9028  0.5093  0.0764
 8387TIP3   OH246651   6.618   2.852  13.137 -0.3576  0.2197  0.2125
 8387TIP3    H146652   6.608   2.937  13.095 -0.6745  0.1002  0.0530
 8387TIP3    H246653   6.536   2.806  13.120 -0.2254 -0.0813  0.3831
 8388TIP3   OH246654   5.086   0.951   6.368  0.4613  1.0952  0.8347
 8388TIP3    H146655   5.105   0.869   6.414  0.2533  1.0673  0.8732
 8388TIP3    H246656   4.999   0.937   6.330  2.3546 -0.5391 -3.2558
 8389TIP3   OH246657   4.241   0.613   5.892 -0.2657  0.6626  0.1849
 8389TIP3    H146658   4.257   0.670   5.967 -0.5404 -0.8593  1.4111
 8389TIP3    H246659   4.199   0.670   5.827 -0.1504  1.9471  1.2190
 8390TIP3   OH246660   2.959   0.964   4.832  0.7891 -0.2877  0.0816
 8390TIP3    H146661   3.036   0.979   4.887  0.7135 -0.6431  0.2858
 8390TIP3    H246662   2.936   0.873   4.848  0.2641 -0.1529  0.0979
 8391TIP3   OH246663   5.353   0.511   1.230 -0.4836  0.0705 -0.1680
 8391TIP3    H146664   5.276   0.514   1.174 -0.2159 -1.1193 -0.6174
 8391TIP3    H246665   5.329   0.453   1.302 -0.6749  1.2465  0.7279
 8392TIP3   OH246666   1.699   5.224   3.066 -0.2223  0.4041  0.2736
 8392TIP3    H146667   1.681   5.290   3.133  1.9612  2.7061 -1.2871
 8392TIP3    H246668   1.794   5.220   3.061 -0.3360 -1.4580 -1.0741
 8393TIP3   OH246669   3.867   1.843  17.120  0.0093 -0.2634 -0.0338
 8393TIP3    H146670   3.819   1.791  17.055  0.6705  0.5968 -1.2121
 8393TIP3    H246671   3.930   1.782  17.158 -0.2900 -0.7335 -0.2876
 8394TIP3   OH246672   5.509   1.284   2.706 -0.8664  0.2336 -0.3837
 8394TIP3    H146673   5.576   1.351   2.697 -1.8528  1.2337 -0.4888
 8394TIP3    H246674   5.492   1.254   2.616  0.0792 -0.6798 -0.2664
 8395TIP3   OH246675   6.659   4.216  15.249 -0.0854  0.3003 -0.0487
 8395TIP3    H146676   6.619   4.198  15.164 -0.0800 -0.6714  0.1498
 8395TIP3    H246677   6.620   4.152  15.309 -0.5934  1.4184  0.8398
 8396TIP3   OH246678   6.736   2.697  14.414  0.2268  0.1127 -0.2909
 8396TIP3    H146679   6.724   2.752  14.491  1.4125  1.8015 -1.2868
 8396TIP3    H246680   6.764   2.757  14.345  0.7636 -1.6075 -1.6218
 8397TIP3   OH246681   4.324   6.585  11.595 -0.0962 -0.0028  0.5323
 8397TIP3    H146682   4.288   6.568  11.508 -0.1791  0.7100  0.4282
 8397TIP3    H246683   4.248   6.598  11.651 -0.0220  0.6507  0.4857
 8398TIP3   OH246684   5.614   0.836   2.499 -0.7214 -0.3900 -0.0438
 8398TIP3    H146685   5.546   0.834   2.432 -0.9433 -0.6757  0.1860
 8398TIP3    H246686   5.573   0.795   2.576 -0.3263 -0.4698  0.1268
 8399TIP3   OH246687   1.010   3.909   1.384 -0.1762  0.1451 -0.7748
 8399TIP3    H146688   0.992   3.868   1.468 -0.0748  1.1194 -0.2790
 8399TIP3    H246689   0.937   3.882   1.328 -0.8369  0.4334 -0.0511
 8400TIP3   OH246690   6.060   3.351   0.422 -0.5555 -0.0840 -0.1956
 8400TIP3    H146691   6.128   3.348   0.355 -1.1030 -0.9118 -0.7299
 8400TIP3    H246692   5.981   3.380   0.375 -0.8347 -0.2301  0.1757
 8401TIP3   OH246693   3.136   1.205   3.758  0.4567 -0.1201 -0.3695
 8401TIP3    H146694   3.157   1.158   3.838  1.5446  0.5106 -0.2839
 8401TIP3    H246695   3.213   1.194   3.702 -1.2142 -2.6507 -2.3443
 8402TIP3   OH246696   2.581   2.020  15.378 -0.1042 -0.4259  0.5196
 8402TIP3    H146697   2.520   1.946  15.373 -1.0267  0.3453  0.1757
 8402TIP3    H246698   2.610   2.021  15.469  0.9261 -2.0076  0.2249
 8403TIP3   OH246699   0.169   2.035  15.899 -0.1967  0.2170  0.0574
 8403TIP3    H146700   0.180   2.046  15.805 -0.9612  2.7818  0.2178
 8403TIP3    H246701   0.234   2.094  15.938 -1.6217  1.1251  1.1084
 8404TIP3   OH246702   4.611   6.155  16.370 -0.3520 -0.3501  0.6087
 8404TIP3    H146703   4.542   6.093  16.346 -0.9531 -0.0282  1.4492
 8404TIP3    H246704   4.691   6.120  16.331 -1.0756 -0.4848 -0.7926
 8405TIP3   OH246705   6.784   4.100  11.823  0.3114  0.0698 -0.0764
 8405TIP3    H146706   6.802   4.170  11.761  2.1252 -1.4541 -1.3465
 8405TIP3    H246707   6.689   4.102  11.836  0.1123  1.4398 -1.6613
 8406TIP3   OH246708   0.455   3.156  14.412  0.0865 -0.3081 -0.2428
 8406TIP3    H146709   0.458   3.249  14.392 -0.7523 -0.0739  0.7217
 8406TIP3    H246710   0.426   3.151  14.503 -0.9870 -1.5299 -0.6267
 8407TIP3   OH246711   4.345   6.488   5.658 -0.4291  0.0899  0.5199
 8407TIP3    H146712   4.375   6.461   5.745 -0.2244 -1.8774 -0.1385
 8407TIP3    H246713   4.254   6.458   5.653 -0.8711  1.4113  0.5606
 8408TIP3   OH246714   0.038   1.953   3.222 -0.0394 -0.2024 -0.7891
 8408TIP3    H146715   0.059   2.046   3.211 -1.7659  0.2289 -0.6394
 8408TIP3    H246716   0.044   1.916   3.134  1.3277 -0.1026 -0.7430
 8409TIP3   OH246717   1.911   0.397   1.327  0.4416  0.0158 -0.3575
 8409TIP3    H146718   1.979   0.462   1.311  2.6241 -1.7894  1.2270
 8409TIP3    H246719   1.903   0.350   1.244 -1.6392  2.6544 -1.7299
 8410TIP3   OH246720   3.361   4.705   2.582 -0.1003 -0.4284  0.0202
 8410TIP3    H146721   3.290   4.745   2.634  0.7386  1.8310 -0.4900
 8410TIP3    H246722   3.404   4.780   2.541  2.1459 -1.8544 -0.2529
 8411TIP3   OH246723   2.552   4.847  11.527 -0.5656 -0.2442 -0.7248
 8411TIP3    H146724   2.563   4.897  11.446 -1.5207  0.1929 -0.5955
 8411TIP3    H246725   2.503   4.769  11.501 -1.1730  0.0629 -0.5141
 8412TIP3   OH246726   5.543   2.737   3.534 -0.1856 -0.8172  0.2332
 8412TIP3    H146727   5.573   2.803   3.597  1.0602 -1.3244  0.1906
 8412TIP3    H246728   5.493   2.786   3.469 -0.7176 -0.1574  1.1214
 8413TIP3   OH246729   3.742   5.409  12.038  0.2330 -0.0836 -0.3785
 8413TIP3    H146730   3.775   5.363  11.961  0.2569  0.3695 -0.6369
 8413TIP3    H246731   3.774   5.357  12.112  1.7316  0.4799 -0.6184
 8414TIP3   OH246732   2.409   0.277  15.848 -0.3954  0.2000 -0.3677
 8414TIP3    H146733   2.346   0.212  15.816  0.4211 -0.6009 -0.3662
 8414TIP3    H246734   2.445   0.316  15.769 -2.2388  2.0065 -0.3687
 8415TIP3   OH246735   3.208   0.061  11.427 -0.0451 -0.6731  0.2543
 8415TIP3    H146736   3.148   0.072  11.500  1.4735  2.3795  1.1209
 8415TIP3    H246737   3.287   0.024  11.466 -0.3509 -2.1011 -0.4314
 8416TIP3   OH246738   0.610   5.421  15.267 -0.5359 -0.2673  0.2843
 8416TIP3    H146739   0.675   5.351  15.266 -0.2438  0.0053  0.1206
 8416TIP3    H246740   0.526   5.375  15.261 -0.4897 -0.7601  2.9294
 8417TIP3   OH246741   6.463   2.903  14.810  0.2699 -0.2348 -0.5006
 8417TIP3    H146742   6.378   2.876  14.776 -0.7526  0.6166  1.3133
 8417TIP3    H246743   6.458   2.885  14.904  0.9590  2.5688  0.1389
 8418TIP3   OH246744   2.149   4.151  11.076 -0.4588  0.3519 -0.0775
 8418TIP3    H146745   2.177   4.207  11.003  0.2433  1.1113  0.7762
 8418TIP3    H246746   2.096   4.208  11.131 -1.4109 -0.3596 -0.2479
 8419TIP3   OH246747   6.401   6.332  13.420  0.3144 -0.0238 -0.1010
 8419TIP3    H146748   6.323   6.357  13.370 -0.6534  1.5446  2.1255
 8419TIP3    H246749   6.384   6.242  13.447  0.5560 -0.6692 -1.9812
 8420TIP3   OH246750   6.326   3.400  15.583 -0.3800  0.4004  0.5971
 8420TIP3    H146751   6.306   3.388  15.675 -2.1491  1.0915  0.3185
 8420TIP3    H246752   6.393   3.334  15.564  0.4414  0.6681  2.5058
 8421TIP3   OH246753   5.099   6.389  13.213  0.1547 -0.6959  0.4372
 8421TIP3    H146754   5.066   6.303  13.238 -0.2997 -1.1049 -1.4758
 8421TIP3    H246755   5.069   6.401  13.123  2.4211  0.3664 -0.2165
 8422TIP3   OH246756   2.588   3.283   4.507 -0.6595 -1.0457 -0.5528
 8422TIP3    H146757   2.510   3.323   4.544 -1.1920 -1.5623 -1.1166
 8422TIP3    H246758   2.587   3.193   4.540 -0.5099 -1.1643 -0.8674
 8423TIP3   OH246759   4.896   5.241  12.795  0.1766 -0.3236 -0.1157
 8423TIP3    H146760   4.801   5.246  12.799  0.1567 -0.3367 -0.5530
 8423TIP3    H246761   4.925   5.254  12.885 -0.3312 -2.3223  0.3486
 8424TIP3   OH246762   1.232   2.774  10.986  0.3188  0.3251 -1.1435
 8424TIP3    H146763   1.313   2.735  11.021  0.1705  0.4751 -0.6377
 8424TIP3    H246764   1.192   2.704  10.935 -0.9062 -0.8150  1.2888
 8425TIP3   OH246765   6.328   2.622   1.064 -0.0979 -0.0996  0.2659
 8425TIP3    H146766   6.406   2.677   1.060  0.7092 -1.2035  0.5810
 8425TIP3    H246767   6.303   2.608   0.973 -2.3716  3.6304  0.2133
 8426TIP3   OH246768   2.220   5.642  13.619 -0.0039 -0.4237 -0.0328
 8426TIP3    H146769   2.262   5.592  13.549  0.3323  0.1381 -0.2309
 8426TIP3    H246770   2.292   5.687  13.663 -0.2641 -0.4247  0.3973
 8427TIP3   OH246771   5.924   0.736   3.327 -0.5902 -0.0070 -0.0411
 8427TIP3    H146772   5.896   0.724   3.236  1.2976  1.3379 -0.8280
 8427TIP3    H246773   6.019   0.744   3.322 -0.4965  0.3621  2.0240
 8428TIP3   OH246774   4.873   1.194   3.241  0.0990 -0.4231  0.1395
 8428TIP3    H146775   4.807   1.155   3.184  0.0697  0.3466 -0.3558
 8428TIP3    H246776   4.839   1.281   3.261 -0.5140 -1.1404  2.3801
 8429TIP3   OH246777   4.291   0.089  12.066 -0.0658 -0.0996  0.5165
 8429TIP3    H146778   4.292   0.050  11.978 -4.3075 -0.6553  0.6163
 8429TIP3    H246779   4.276   0.182  12.051 -0.8821 -0.2088  0.6655
 8430TIP3   OH246780   1.841   3.995   0.978  0.4968  0.3023  0.1259
 8430TIP3    H146781   1.751   4.004   1.011  0.0324 -0.1737 -1.0016
 8430TIP3    H246782   1.891   3.966   1.054 -0.5445 -0.6619  0.4573
 8431TIP3   OH246783   5.262   4.214   0.609  0.5087 -0.4345  0.1365
 8431TIP3    H146784   5.341   4.181   0.651  1.6929  1.9198 -0.1881
 8431TIP3    H246785   5.223   4.272   0.674  0.5406  0.5799 -0.7354
 8432TIP3   OH246786   5.021   1.207   6.264  0.4160  0.5527 -0.4436
 8432TIP3    H146787   5.083   1.276   6.238  1.8245 -0.7032 -0.5185
 8432TIP3    H246788   5.073   1.148   6.319 -0.5942 -0.7956 -0.9185
 8433TIP3   OH246789   3.393   1.237  15.508 -0.1529 -0.0094 -0.0595
 8433TIP3    H146790   3.391   1.169  15.576  1.3651 -0.6608 -0.6483
 8433TIP3    H246791   3.302   1.250  15.484 -0.6254 -0.4656  1.4286
 8434TIP3   OH246792   0.380   5.432   4.845  0.1437 -0.1099 -0.1131
 8434TIP3    H146793   0.372   5.487   4.923 -0.0530 -0.2080 -0.0619
 8434TIP3    H246794   0.429   5.355   4.875  1.2868  0.4891 -0.4217
 8435TIP3   OH246795   4.393   5.718  15.122 -0.3509  0.4133  0.7023
 8435TIP3    H146796   4.328   5.782  15.092 -0.6482  0.1623  0.8084
 8435TIP3    H246797   4.453   5.769  15.176  0.2808  0.9020 -0.4403
 8436TIP3   OH246798   2.863   0.934   0.401 -0.2321  0.2316 -0.2876
 8436TIP3    H146799   2.956   0.947   0.381 -0.4915  1.9114 -0.5054
 8436TIP3    H246800   2.852   0.974   0.488 -0.8381  0.4779 -0.4771
 8437TIP3   OH246801   0.859   3.040   4.148 -0.5535  0.0416 -0.3688
 8437TIP3    H146802   0.813   3.029   4.065  1.3594 -1.6706 -1.2363
 8437TIP3    H246803   0.862   2.952   4.186 -0.8701  0.7088  1.2437
 8438TIP3   OH246804   3.781   3.749   3.342 -0.3090 -0.3834 -0.3299
 8438TIP3    H146805   3.829   3.667   3.326 -0.7517 -0.6763 -0.1395
 8438TIP3    H246806   3.695   3.734   3.302 -1.0889 -0.7555  1.4591
 8439TIP3   OH246807   5.231   0.355   0.416  0.3384  0.3584 -0.4472
 8439TIP3    H146808   5.161   0.296   0.445  0.2695  0.0110 -1.3108
 8439TIP3    H246809   5.216   0.435   0.465 -0.4933  0.1818 -0.3996
 8440TIP3   OH246810   6.725   5.105  11.814  0.2087  0.1057  0.0002
 8440TIP3    H146811   6.651   5.077  11.761 -0.2667 -2.6568  2.0166
 8440TIP3    H246812   6.797   5.048  11.786  0.0876 -1.0221  1.8584
 8441TIP3   OH246813   6.591   2.933  16.526 -0.0731 -0.2428  0.0056
 8441TIP3    H146814   6.533   2.870  16.569  0.0819 -0.4754 -0.1203
 8441TIP3    H246815   6.569   3.017  16.565  1.1660 -0.6857  1.6624
 8442TIP3   OH246816   4.756   0.455  12.715 -0.3795 -0.0025 -0.3583
 8442TIP3    H146817   4.809   0.386  12.753 -0.6380 -0.5939 -1.0512
 8442TIP3    H246818   4.670   0.415  12.700 -1.3967  1.2676  1.8217
 8443TIP3   OH246819   3.876   1.650  15.463 -0.7018 -0.3546  0.0086
 8443TIP3    H146820   3.971   1.641  15.474 -0.8274 -0.6430  0.8834
 8443TIP3    H246821   3.859   1.613  15.376  0.4221  2.7352 -1.6008
 8444TIP3   OH246822   0.972   4.104  14.603  0.5030  0.2280  0.1176
 8444TIP3    H146823   0.913   4.093  14.529 -0.3944  1.3351  0.6266
 8444TIP3    H246824   0.932   4.053  14.674  0.3688  0.6378  0.3436
 8445TIP3   OH246825   1.872   2.832   2.868 -0.3881  0.8048 -0.3424
 8445TIP3    H146826   1.863   2.763   2.802 -1.5026  1.2565 -0.6661
 8445TIP3    H246827   1.966   2.835   2.886 -0.4983 -1.7767  0.7608
 8446TIP3   OH246828   1.897   6.754  14.941  0.0374 -0.0455 -0.2141
 8446TIP3    H146829   1.988   6.745  14.968 -0.6512  0.4960  2.3625
 8446TIP3    H246830   1.899   6.821  14.873  1.6114 -0.3820 -0.5103
 8447TIP3   OH246831   6.272   1.892  15.095  0.6162  0.3127  0.2378
 8447TIP3    H146832   6.276   1.850  15.180  1.2395  0.8057  0.4559
 8447TIP3    H246833   6.336   1.845  15.042 -1.8929 -2.0129 -0.8907
 8448TIP3   OH246834   5.164   0.069  14.626 -0.0369 -0.3773 -0.1882
 8448TIP3    H146835   5.200  -0.004  14.676 -0.9976 -0.4353  0.4348
 8448TIP3    H246836   5.169   0.143  14.687 -2.3097 -0.7055  0.4360
 8449TIP3   OH246837   2.971   5.139  16.107  0.3325  0.0839 -0.0675
 8449TIP3    H146838   3.062   5.167  16.113 -0.2565  2.1320 -0.2036
 8449TIP3    H246839   2.926   5.191  16.174 -1.0571  0.5463 -1.3338
 8450TIP3   OH246840   4.601   1.261   0.925  0.2410  0.3433 -0.7743
 8450TIP3    H146841   4.613   1.354   0.939  0.5215  0.3344 -0.9443
 8450TIP3    H246842   4.597   1.223   1.013 -0.9412  0.6424 -0.6875
 8451TIP3   OH246843   3.527   1.791  14.389  0.2425 -0.3774  0.0322
 8451TIP3    H146844   3.467   1.834  14.329  0.0390  0.0781  0.5527
 8451TIP3    H246845   3.579   1.862  14.426  0.1587 -0.6108  0.6158
 8452TIP3   OH246846   2.553   6.372   6.631  0.1360  0.3455  0.0868
 8452TIP3    H146847   2.479   6.363   6.572  0.2054  0.4175 -0.0109
 8452TIP3    H246848   2.586   6.461   6.616  0.8521 -0.0272 -0.5785
 8453TIP3   OH246849   1.958   0.764  17.063 -0.2239 -0.5310  0.1505
 8453TIP3    H146850   1.884   0.779  17.122 -0.9742 -1.5804 -0.5041
 8453TIP3    H246851   2.026   0.725  17.118 -0.9558 -1.5919  0.3114
 8454TIP3   OH246852   6.613   3.062  11.997  0.1050 -0.7089  0.3007
 8454TIP3    H146853   6.557   3.004  12.050 -2.1574  0.2180 -1.0432
 8454TIP3    H246854   6.628   3.138  12.053 -0.6321 -0.6096  0.3646
 8455TIP3   OH246855   0.278   5.880  12.011 -0.0543 -0.0828 -0.3760
 8455TIP3    H146856   0.296   5.864  11.918 -0.3142 -1.0143 -0.2729
 8455TIP3    H246857   0.241   5.797  12.043  1.4312 -0.2835  0.9091
 8456TIP3   OH246858   6.361   2.544  11.763 -0.2646 -0.4058 -0.3793
 8456TIP3    H146859   6.308   2.615  11.799 -0.8802 -0.2877 -1.4922
 8456TIP3    H246860   6.421   2.520  11.833 -0.6441  0.6262  0.2978
 8457TIP3   OH246861   2.765   4.634  12.025 -0.0828  0.0823  0.2186
 8457TIP3    H146862   2.732   4.620  11.936 -0.6987  0.9293  0.2992
 8457TIP3    H246863   2.860   4.644  12.014  0.2411 -2.7508  0.0254
 8458TIP3   OH246864   5.201   5.768   2.971 -0.1504 -0.0487 -0.3815
 8458TIP3    H146865   5.261   5.705   2.930  0.4586  0.1993  0.1032
 8458TIP3    H246866   5.247   5.852   2.966 -0.0554 -0.0132  0.7832
 8459TIP3   OH246867   1.187   2.743   0.722 -0.3160 -0.5276 -0.3905
 8459TIP3    H146868   1.141   2.749   0.806 -0.0624 -2.3016 -0.1094
 8459TIP3    H246869   1.118   2.728   0.658 -0.2398 -2.2080 -0.0954
 8460TIP3   OH246870   4.796   0.787  11.784 -0.0469 -0.0582  0.1201
 8460TIP3    H146871   4.817   0.819  11.696  1.2052 -0.1881  0.3745
 8460TIP3    H246872   4.834   0.700  11.788 -1.5678 -0.7410  0.2110
 8461TIP3   OH246873   4.512   5.447  14.360 -0.3875  0.3635 -0.5169
 8461TIP3    H146874   4.519   5.352  14.351  1.4543  0.3560  0.7079
 8461TIP3    H246875   4.513   5.480  14.271  0.5764 -0.6812 -0.9006
 8462TIP3   OH246876   1.607   5.813   4.400  0.0560 -0.0675  0.2398
 8462TIP3    H146877   1.590   5.813   4.494 -1.8134  1.9492 -0.0714
 8462TIP3    H246878   1.690   5.861   4.391 -0.8497  1.6360  0.7106
 8463TIP3   OH246879   6.661   1.179  12.065 -0.0525 -0.2556  0.2818
 8463TIP3    H146880   6.621   1.260  12.094 -1.0145 -0.3866 -0.6294
 8463TIP3    H246881   6.737   1.167  12.123 -0.3289  0.8915  0.8978
 8464TIP3   OH246882   1.331   3.075  14.920 -0.4328  0.5098 -0.3928
 8464TIP3    H146883   1.346   3.163  14.955 -0.5703  0.4452 -0.1748
 8464TIP3    H246884   1.384   3.018  14.975  2.2229  0.8084 -2.5186
 8465TIP3   OH246885   6.709   4.639  14.230 -0.1803  0.2013  0.6065
 8465TIP3    H146886   6.683   4.555  14.191 -1.9778  0.9242  0.1914
 8465TIP3    H246887   6.680   4.632  14.321  1.8488 -0.5525  1.2119
 8466TIP3   OH246888   4.934   3.563  15.049  0.2408 -0.1454  0.3476
 8466TIP3    H146889   4.934   3.653  15.080  0.2761 -0.2575  0.6776
 8466TIP3    H246890   4.927   3.570  14.954  0.9811  0.2219  0.3206
 8467TIP3   OH246891   2.932   5.789  14.646  0.3912  0.2250  0.4054
 8467TIP3    H146892   2.836   5.787  14.649  0.3770  0.6330  0.2602
 8467TIP3    H246893   2.959   5.709  14.690 -0.1272 -2.2880 -3.5258
 8468TIP3   OH246894   1.687   2.468   2.604 -0.4497  0.4889 -1.0266
 8468TIP3    H146895   1.694   2.387   2.655  0.9695 -0.0868 -2.0893
 8468TIP3    H246896   1.623   2.521   2.651  3.1969  1.3751  3.2275
 8469TIP3   OH246897   2.990   6.146   1.263  0.6771 -0.2054 -0.3891
 8469TIP3    H146898   3.005   6.052   1.259 -1.4362 -0.5221 -1.4299
 8469TIP3    H246899   2.958   6.161   1.353  1.3109 -0.4350 -0.1265
 8470TIP3   OH246900   5.759   0.001   0.393  0.4280 -0.1499 -0.2361
 8470TIP3    H146901   5.757  -0.025   0.485  1.7701 -1.1838 -0.4676
 8470TIP3    H246902   5.809  -0.069   0.350  1.4616  1.2707 -1.4254
 8471TIP3   OH246903   0.065   6.123   1.652 -0.4409 -0.1730  0.6207
 8471TIP3    H146904   0.050   6.212   1.620 -1.9940 -0.4543  0.5390
 8471TIP3    H246905   0.114   6.080   1.582 -1.3001  0.0645 -0.1256
 8472TIP3   OH246906   1.601   4.712  14.468  0.0225 -0.3110  0.0453
 8472TIP3    H146907   1.570   4.765  14.542  1.0484 -1.4807  1.3515
 8472TIP3    H246908   1.530   4.650  14.452 -0.7662  0.8053 -0.8437
 8473TIP3   OH246909   5.319   1.882  16.353  0.1864 -0.0864 -0.2738
 8473TIP3    H146910   5.363   1.844  16.430  1.1311 -1.8369 -1.6400
 8473TIP3    H246911   5.295   1.970  16.381  0.9454 -0.5133  1.8763
 8474TIP3   OH246912   4.513   2.140  14.114 -0.0869 -0.0275 -0.2789
 8474TIP3    H146913   4.508   2.225  14.159  0.6045  0.7804 -1.7070
 8474TIP3    H246914   4.429   2.133  14.068 -0.9011 -0.9737  1.3175
 8475TIP3   OH246915   6.025   6.495  14.703  0.7115 -0.3081  0.2502
 8475TIP3    H146916   6.001   6.505  14.795  2.3961 -0.0930  0.6962
 8475TIP3    H246917   6.027   6.401  14.688  1.4548 -0.3753  0.7336
 8476TIP3   OH246918   3.505   1.840   0.461  0.3794 -0.0149  0.1035
 8476TIP3    H146919   3.471   1.914   0.411 -0.4676 -0.2490  0.3302
 8476TIP3    H246920   3.579   1.809   0.410  0.0169  0.2587 -0.5944
 8477TIP3   OH246921   5.864   0.353  12.861  0.1477  0.2654  0.0556
 8477TIP3    H146922   5.936   0.416  12.867 -0.1820  0.6772 -0.3213
 8477TIP3    H246923   5.900   0.281  12.810 -0.0310  0.9332 -1.0290
 8478TIP3   OH246924   4.323   1.270  11.673  0.0906 -0.4997  0.5921
 8478TIP3    H146925   4.408   1.262  11.714 -0.0955 -0.3260  1.0142
 8478TIP3    H246926   4.340   1.258  11.580  0.3966 -1.7259  0.7983
 8479TIP3   OH246927   2.946   2.874  16.493  0.0435  0.4611  0.0081
 8479TIP3    H146928   2.930   2.799  16.436 -0.6870 -0.6057  1.5795
 8479TIP3    H246929   3.040   2.891  16.485  0.0519 -0.0495 -1.0387
 8480TIP3   OH246930   0.357   5.530  17.076 -0.8934 -0.2345  0.1558
 8480TIP3    H146931   0.324   5.442  17.063 -2.9181  0.7360 -1.4501
 8480TIP3    H246932   0.324   5.580  17.002  0.8282  1.7208  0.6506
 8481TIP3   OH246933   1.924   2.313  11.004  0.6799 -0.3842 -0.4200
 8481TIP3    H146934   1.899   2.299  10.913  1.6997 -0.6199 -0.6686
 8481TIP3    H246935   1.972   2.396  11.004 -1.4232  0.8691  0.3150
 8482TIP3   OH246936   5.882   1.545   2.355 -0.0042 -0.2624  0.2104
 8482TIP3    H146937   5.844   1.508   2.275  0.0891  2.1394 -1.0167
 8482TIP3    H246938   5.806   1.568   2.409 -0.2456  1.4004 -0.7769
 8483TIP3   OH246939   2.112   5.029   5.675 -0.3435 -0.1344  0.5074
 8483TIP3    H146940   2.057   5.079   5.734 -1.3222 -1.1854  0.5088
 8483TIP3    H246941   2.131   4.948   5.723 -1.0946 -0.9710 -0.5688
 8484TIP3   OH246942   6.143   0.728   0.049  0.1991 -0.1339 -0.3218
 8484TIP3    H146943   6.076   0.661   0.057  0.9259 -0.7782  0.4054
 8484TIP3    H246944   6.115   0.797   0.109  1.4683 -1.4859  1.8855
 8485TIP3   OH246945   5.353   0.304  12.454 -0.3684 -0.1186  0.0475
 8485TIP3    H146946   5.359   0.316  12.359 -1.2290  0.4529  0.0615
 8485TIP3    H246947   5.264   0.272  12.468 -0.0506 -0.7753  0.6093
 8486TIP3   OH246948   5.419   1.971   6.515 -0.1976  0.5309 -0.1499
 8486TIP3    H146949   5.325   1.991   6.514 -0.2974  0.0569 -0.1508
 8486TIP3    H246950   5.434   1.923   6.434  0.1045  0.8617 -0.2908
 8487TIP3   OH246951   0.152   5.274   0.433  0.4329 -0.0827  0.0161
 8487TIP3    H146952   0.197   5.273   0.518  0.7975 -0.4639 -0.1810
 8487TIP3    H246953   0.218   5.302   0.370 -0.1107  1.2086  0.0053
 8488TIP3   OH246954   6.396   5.374   1.954  0.0313  0.1775 -0.2203
 8488TIP3    H146955   6.356   5.398   2.037  1.2014  0.4390  0.2819
 8488TIP3    H246956   6.355   5.291   1.930 -0.5623  0.2763  0.4407
 8489TIP3   OH246957   3.702   0.703  16.560  0.2283 -0.1373  0.3170
 8489TIP3    H146958   3.720   0.742  16.645  0.6212 -1.0813  0.6798
 8489TIP3    H246959   3.717   0.609  16.573 -1.4852 -0.5322 -0.3072
 8490TIP3   OH246960   0.426   0.761   5.626 -0.2619 -0.0635 -0.1986
 8490TIP3    H146961   0.422   0.747   5.531  1.8310 -0.8951 -0.1867
 8490TIP3    H246962   0.367   0.835   5.641  0.2314  0.8139 -2.3035
 8491TIP3   OH246963   4.838   4.435  17.216 -0.2836  0.0054 -0.2095
 8491TIP3    H146964   4.870   4.387  17.139  0.4140  2.4960 -1.5203
 8491TIP3    H246965   4.887   4.397  17.289  1.3962 -0.2301 -1.4289
 8492TIP3   OH246966   1.231   6.623   0.244  0.5747 -0.8006 -0.2907
 8492TIP3    H146967   1.313   6.667   0.222  0.4026 -0.2421  0.1417
 8492TIP3    H246968   1.170   6.695   0.260 -0.3059 -1.2046 -1.7152
 8493TIP3   OH246969   2.872   3.850  11.603  0.0576  0.3276  0.7205
 8493TIP3    H146970   2.928   3.807  11.538  0.0064  0.5095  0.5529
 8493TIP3    H246971   2.832   3.779  11.652 -1.9752  0.0766 -1.1781
 8494TIP3   OH246972   1.765   3.323   5.432  0.3715 -0.3684 -0.6241
 8494TIP3    H146973   1.677   3.285   5.438 -0.3398  1.2948 -0.1707
 8494TIP3    H246974   1.824   3.248   5.435 -0.9868 -1.4213  0.6145
 8495TIP3   OH246975   6.452   1.472  17.089 -0.1396 -0.4029  0.8383
 8495TIP3    H146976   6.482   1.526  17.016 -1.3438 -0.2749  0.4356
 8495TIP3    H246977   6.522   1.480  17.155 -0.7361  2.4219  1.1886
 8496TIP3   OH246978   0.327   3.680   6.359  0.5208  0.2598 -0.1518
 8496TIP3    H146979   0.255   3.624   6.389  0.0256  0.2654 -1.3261
 8496TIP3    H246980   0.334   3.747   6.427 -0.3760  0.0867  0.1182
 8497TIP3   OH246981   5.236   2.925   5.511 -0.1068 -0.2330 -0.4130
 8497TIP3    H146982   5.263   2.938   5.420  0.8491  1.2084  0.0713
 8497TIP3    H246983   5.318   2.913   5.559 -0.6968 -3.7365 -0.1189
 8498TIP3   OH246984   6.537   4.056  12.897  0.4294 -0.0731  0.4749
 8498TIP3    H146985   6.510   4.079  12.986  2.3352  2.3256  0.4745
 8498TIP3    H246986   6.495   4.122  12.841  1.5172  0.1150 -0.1239
 8499TIP3   OH246987   0.462   5.044   3.613  0.2345 -0.0639 -0.3261
 8499TIP3    H146988   0.406   5.114   3.580  1.5633  0.8181 -0.7342
 8499TIP3    H246989   0.528   5.032   3.545  0.4867 -1.1654  0.1047
 8500TIP3   OH246990   1.121   6.385   2.023 -0.4770  0.0079 -0.4170
 8500TIP3    H146991   1.163   6.355   2.103 -1.5787 -1.4531 -0.3600
 8500TIP3    H246992   1.035   6.342   2.024 -0.4414 -0.1489 -2.4295
 8501TIP3   OH246993   0.278   5.580   5.098 -0.2337 -0.1839  0.5123
 8501TIP3    H146994   0.308   5.670   5.088 -0.8879  0.1025  1.0929
 8501TIP3    H246995   0.263   5.570   5.192  1.0424 -1.2879  0.6092
 8502TIP3   OH246996   3.667   1.688  13.854  0.0883 -0.6721 -0.1973
 8502TIP3    H146997   3.582   1.730  13.841 -0.0417 -0.7579  0.3923
 8502TIP3    H246998   3.730   1.760  13.847 -0.1557 -0.3165  1.1110
 8503TIP3   OH246999   0.336   6.539  15.489  0.5604 -0.0536  0.0180
 8503TIP3    H147000   0.243   6.539  15.511  0.0367  3.7293 -1.7812
 8503TIP3    H247001   0.373   6.613  15.538  2.2592 -0.4316 -0.6540
 8504TIP3   OH247002   1.483   3.671  15.447  0.4185 -0.0033 -0.6770
 8504TIP3    H147003   1.407   3.664  15.389 -0.0351 -0.0892 -0.0771
 8504TIP3    H247004   1.447   3.666  15.535  0.8490  2.2894 -0.3300
 8505TIP3   OH247005   4.999   6.255   5.418  0.1333 -0.2011 -0.3301
 8505TIP3    H147006   4.936   6.320   5.387  1.0444  0.4916 -0.7440
 8505TIP3    H247007   4.948   6.200   5.477 -0.9892  0.0421 -1.0370
 8506TIP3   OH247008   4.122   2.477  11.361  0.1226 -0.2590 -0.0681
 8506TIP3    H147009   4.055   2.411  11.382  1.9160 -2.0885  0.0641
 8506TIP3    H247010   4.125   2.478  11.265 -0.9987  0.8092 -0.1153
 8507TIP3   OH247011   0.928   3.966  15.551  0.6132  0.0952 -0.2737
 8507TIP3    H147012   0.856   4.004  15.500  0.3556  0.6230  0.4593
 8507TIP3    H247013   0.993   3.940  15.486 -0.1408 -0.1725 -0.9300
 8508TIP3   OH247014   5.562   2.914  12.142 -0.3251 -0.2422 -0.7250
 8508TIP3    H147015   5.563   2.932  12.236 -2.0766 -0.7717 -0.5811
 8508TIP3    H247016   5.653   2.923  12.115  0.3835 -1.1455  1.2353
 8509TIP3   OH247017   4.679   2.728   5.787 -0.4446  0.1142 -0.2599
 8509TIP3    H147018   4.642   2.789   5.850 -0.9400  1.6426 -1.9876
 8509TIP3    H247019   4.757   2.693   5.830 -0.9575  0.8688  1.3204
 8510TIP3   OH247020   5.171   3.138  16.060 -0.4060 -0.3554  0.0985
 8510TIP3    H147021   5.263   3.112  16.070  0.5095  2.2570 -1.1948
 8510TIP3    H247022   5.157   3.142  15.965 -1.6675 -0.0406  0.2857
 8511TIP3   OH247023   6.615   3.945   1.725  0.6617 -0.2405  0.1074
 8511TIP3    H147024   6.552   3.890   1.680  0.3866  0.3346 -0.2128
 8511TIP3    H247025   6.572   3.968   1.808 -1.0937  3.1639 -1.6644
 8512TIP3   OH247026   5.374   1.398   1.553 -0.0135  0.0021  0.5583
 8512TIP3    H147027   5.317   1.473   1.570 -0.6458 -0.0005 -1.4002
 8512TIP3    H247028   5.329   1.324   1.593  0.2040  0.5163  1.7830
 8513TIP3   OH247029   2.328   3.531   1.896 -0.3564  0.1582 -0.0557
 8513TIP3    H147030   2.247   3.535   1.846  0.3129  0.6920 -1.1131
 8513TIP3    H247031   2.301   3.543   1.987 -1.5001 -0.0467 -0.3607
 8514TIP3   OH247032   4.481   3.086   0.265 -0.8719  0.2687 -0.2675
 8514TIP3    H147033   4.472   3.016   0.201  0.2844  0.7100 -0.9307
 8514TIP3    H247034   4.444   3.050   0.346 -2.7477 -0.1223 -1.2804
 8515TIP3   OH247035   2.832   1.954  15.718 -0.6605  0.0966 -0.0531
 8515TIP3    H147036   2.835   1.926  15.810  0.7718 -0.2455 -0.1829
 8515TIP3    H247037   2.788   1.882  15.672  1.2230 -1.0825 -0.0738
 8516TIP3   OH247038   1.967   5.369  15.896 -0.7938 -0.0650 -0.0729
 8516TIP3    H147039   1.952   5.274  15.892 -2.4170  0.1693  0.3888
 8516TIP3    H247040   1.880   5.407  15.887  0.0140  1.4413 -1.9089
 8517TIP3   OH247041   0.244   3.597  10.984  0.2456  0.5302 -0.4798
 8517TIP3    H147042   0.336   3.609  11.008 -0.0133 -0.7145  1.2091
 8517TIP3    H247043   0.220   3.512  11.021 -1.8923  1.3123  0.0016
 8518TIP3   OH247044   6.017   4.346   1.530 -0.0983 -0.0910 -0.2605
 8518TIP3    H147045   6.050   4.373   1.444  0.4757 -0.8077 -0.2706
 8518TIP3    H247046   5.981   4.258   1.515 -0.4599 -0.0105  0.1235
 8519TIP3   OH247047   5.105   3.793  11.902  0.6650 -0.2470 -0.3152
 8519TIP3    H147048   5.160   3.774  11.826  1.9218 -1.0564  0.7766
 8519TIP3    H247049   5.032   3.730  11.896  0.5283 -0.0140 -1.0808
 8520TIP3   OH247050   2.089   0.552  14.953 -0.0172 -0.4459  0.1286
 8520TIP3    H147051   2.046   0.628  14.916 -0.5269 -1.9552 -2.5022
 8520TIP3    H247052   2.183   0.569  14.942 -0.0836  0.5184  1.0505
 8521TIP3   OH247053   1.792   5.449   5.818  0.3260 -0.3386 -0.3707
 8521TIP3    H147054   1.767   5.540   5.832  3.2226  0.3726  0.7391
 8521TIP3    H247055   1.710   5.400   5.821 -1.5083  2.3969 -2.8168
 8522TIP3   OH247056   6.771   1.019  11.720 -0.3293 -0.5357  0.5099
 8522TIP3    H147057   6.769   1.053  11.809  1.7260 -0.8714  0.7119
 8522TIP3    H247058   6.715   0.941  11.722 -0.7296 -0.2265  1.3693
 8523TIP3   OH247059   5.956   2.532  15.206  0.0950  0.0070 -0.3168
 8523TIP3    H147060   6.013   2.559  15.135  0.3903  0.3938  0.0705
 8523TIP3    H247061   5.993   2.572  15.284 -0.1924 -0.4669  0.0676
 8524TIP3   OH247062   3.697   5.354  13.409 -0.3080  0.6315 -0.8817
 8524TIP3    H147063   3.793   5.363  13.402 -0.2146 -0.0340 -0.4556
 8524TIP3    H247064   3.672   5.419  13.474  0.1574 -0.8916  0.8567
 8525TIP3   OH247065   1.328   5.597  16.279 -0.1086  0.0686  0.0068
 8525TIP3    H147066   1.246   5.596  16.231 -0.9203 -2.2659  1.3961
 8525TIP3    H247067   1.306   5.565  16.367  1.9560  1.0423  0.9333
 8526TIP3   OH247068   6.424   0.468  13.542 -0.2446 -0.3325  0.2165
 8526TIP3    H147069   6.508   0.515  13.542  0.1426 -1.0113  1.3057
 8526TIP3    H247070   6.411   0.443  13.450 -0.6940  2.3128 -0.4918
 8527TIP3   OH247071   6.751   1.216  11.060  0.2441 -0.0749 -0.1835
 8527TIP3    H147072   6.666   1.260  11.057 -0.1529 -0.8180 -0.0785
 8527TIP3    H247073   6.772   1.210  11.154  0.8034  0.8377 -0.2448
 8528TIP3   OH247074   4.269   0.919   4.878  0.4378 -0.2477  0.0940
 8528TIP3    H147075   4.345   0.917   4.820 -0.2147  0.4246 -0.7968
 8528TIP3    H247076   4.202   0.869   4.832  0.9453 -2.6353  1.8061
 8529TIP3   OH247077   2.897   0.147  15.705 -0.1909  0.6692 -0.1375
 8529TIP3    H147078   2.805   0.120  15.709 -0.4092  1.3535 -0.4322
 8529TIP3    H247079   2.946   0.070  15.734 -0.8816  0.4340  0.4150
 8530TIP3   OH247080   3.942   6.105   0.795  0.5510 -0.4774  0.0505
 8530TIP3    H147081   3.905   6.183   0.754  0.0877 -1.0784 -0.6800
 8530TIP3    H247082   3.883   6.034   0.770  2.4957 -1.5449 -1.6140
 8531TIP3   OH247083   0.650   6.070  15.022  0.0210 -0.5393 -0.4085
 8531TIP3    H147084   0.602   6.128  14.961  0.2694 -1.6033 -1.6477
 8531TIP3    H247085   0.597   6.071  15.101 -2.5386 -2.3084 -2.0165
 8532TIP3   OH247086   5.855   4.473  15.513 -0.4382 -0.3915  0.3719
 8532TIP3    H147087   5.914   4.465  15.588 -0.5306 -2.5276  0.2322
 8532TIP3    H247088   5.906   4.520  15.447  0.7128 -1.1951  0.6754
 8533TIP3   OH247089   3.433   2.228   5.845  0.5420  0.4607  0.2814
 8533TIP3    H147090   3.478   2.311   5.861 -0.7737  0.9955  1.2735
 8533TIP3    H247091   3.398   2.202   5.930 -2.8286  1.1442 -0.8162
 8534TIP3   OH247092   5.555   6.133   4.024 -0.1951 -0.0289  0.3375
 8534TIP3    H147093   5.548   6.203   4.089  0.5058 -0.5027  0.9377
 8534TIP3    H247094   5.621   6.164   3.962 -1.5075  0.8135 -0.6604
 8535TIP3   OH247095   5.645   6.242  12.974  0.4583 -0.1456  0.0117
 8535TIP3    H147096   5.644   6.192  13.056 -1.4210 -1.7111 -0.9346
 8535TIP3    H247097   5.573   6.305  12.984  0.8946  0.3692 -0.0312
 8536TIP3   OH247098   0.789   2.305  12.808 -0.4751 -0.6948 -0.1658
 8536TIP3    H147099   0.766   2.392  12.842  1.8149  0.3411 -1.1466
 8536TIP3    H247100   0.727   2.291  12.736 -0.2705  0.5530 -0.6079
 8537TIP3   OH247101   0.493   3.123   3.295 -0.0897  0.2913 -0.3611
 8537TIP3    H147102   0.446   3.043   3.272  0.5061  0.1566 -1.1513
 8537TIP3    H247103   0.488   3.177   3.216 -2.0389  1.7979  0.7591
 8538TIP3   OH247104   5.471   2.081   6.130 -0.0984  0.0157  0.5453
 8538TIP3    H147105   5.473   2.176   6.136  0.0340  0.0492  0.0735
 8538TIP3    H247106   5.563   2.055   6.140  0.1417  0.0842 -1.2234
 8539TIP3   OH247107   4.780   1.625   3.040 -0.6772 -0.0044  0.1617
 8539TIP3    H147108   4.869   1.604   3.012 -0.3691  0.2713  0.8952
 8539TIP3    H247109   4.727   1.619   2.961  0.2797  1.4705 -0.6249
 8540TIP3   OH247110   5.950   0.068  13.598  0.4286 -0.0467  0.2055
 8540TIP3    H147111   5.892   0.119  13.541  0.7745 -0.0707 -0.1756
 8540TIP3    H247112   6.035   0.111  13.589  0.5514 -0.2336  0.4734
 8541TIP3   OH247113   5.330   1.415  14.613  0.4639  0.0535 -0.6111
 8541TIP3    H147114   5.301   1.406  14.522 -0.5940 -1.5492 -0.1468
 8541TIP3    H247115   5.251   1.399  14.665  1.2136  0.2367  0.5965
 8542TIP3   OH247116   5.581   4.938  13.303  0.3252 -0.2517  0.1664
 8542TIP3    H147117   5.608   5.005  13.365  0.2298  1.1423 -1.2813
 8542TIP3    H247118   5.663   4.910  13.260  0.3114 -0.7590  0.4680
 8543TIP3   OH247119   6.711   1.043   3.512  0.2232  0.1318 -1.0220
 8543TIP3    H147120   6.690   0.954   3.540 -0.3293 -0.0408 -1.9542
 8543TIP3    H247121   6.643   1.064   3.448  0.8073  0.9323 -1.3827
 8544TIP3   OH247122   3.292   0.007  14.138 -0.4990 -0.0080  0.5361
 8544TIP3    H147123   3.385  -0.000  14.160 -0.7198  0.7235  1.7713
 8544TIP3    H247124   3.265   0.091  14.176 -1.1750  0.7929 -1.6401
 8545TIP3   OH247125   3.252   4.163  14.235  0.7608 -0.5182 -0.0066
 8545TIP3    H147126   3.200   4.193  14.310 -0.1371 -1.7664 -0.1009
 8545TIP3    H247127   3.192   4.171  14.160  1.4643  0.1896 -0.4945
 8546TIP3   OH247128   2.771   4.884  16.440  0.1328  0.4457 -0.5155
 8546TIP3    H147129   2.795   4.973  16.463 -1.5813  0.5834  0.8178
 8546TIP3    H247130   2.675   4.884  16.436  0.0008 -1.6496  1.0646
 8547TIP3   OH247131   0.296   1.510   3.836  0.2759 -0.0240  0.5325
 8547TIP3    H147132   0.316   1.604   3.839 -0.3086  0.1150  0.0074
 8547TIP3    H247133   0.204   1.506   3.810 -0.0059 -0.7118  1.6138
 8548TIP3   OH247134   5.198   4.776  14.969 -0.3175 -0.0274  0.8172
 8548TIP3    H147135   5.234   4.864  14.975  0.5514 -0.2663 -0.5968
 8548TIP3    H247136   5.264   4.727  14.919 -0.8158 -1.4538  1.5267
 8549TIP3   OH247137   2.875   4.383  11.547  0.5561 -0.1282 -0.3922
 8549TIP3    H147138   2.868   4.289  11.535 -2.0531 -0.2240  1.6552
 8549TIP3    H247139   2.802   4.420  11.497  0.6480  0.7007  0.0673
 8550TIP3   OH247140   3.285   5.074  11.236 -0.1283 -0.0052 -0.2889
 8550TIP3    H147141   3.226   5.006  11.203 -1.2042  0.1583  1.2221
 8550TIP3    H247142   3.366   5.028  11.255  0.0845 -0.3379 -1.8947
 8551TIP3   OH247143   1.832   1.706   3.879  0.4452  0.2228  0.1162
 8551TIP3    H147144   1.754   1.734   3.927 -1.5929  0.2196 -3.0615
 8551TIP3    H247145   1.821   1.612   3.867  0.3724  0.3990 -1.2851
 8552TIP3   OH247146   4.259   3.458   1.417 -0.3991 -0.5860 -0.8016
 8552TIP3    H147147   4.286   3.385   1.360 -0.5896 -1.0252 -0.3340
 8552TIP3    H247148   4.288   3.536   1.371  0.2741 -0.9836 -1.0538
 8553TIP3   OH247149   3.125   2.062   3.646 -0.1154  0.0789  0.0963
 8553TIP3    H147150   3.208   2.017   3.659 -0.4518  0.1050  2.7951
 8553TIP3    H247151   3.059   1.993   3.656 -0.4780  0.3805 -0.2051
 8554TIP3   OH247152   2.305   5.450  11.139  0.2954 -0.0115 -0.1485
 8554TIP3    H147153   2.349   5.365  11.127  3.1331  1.3397  0.3463
 8554TIP3    H247154   2.267   5.444  11.227  0.5798 -0.7326 -0.0658
 8555TIP3   OH247155   5.491   1.242  12.872 -0.4745 -0.2994 -0.2180
 8555TIP3    H147156   5.490   1.249  12.777 -1.5471  0.6795 -0.1455
 8555TIP3    H247157   5.454   1.156  12.891 -0.7613 -0.2675 -0.6576
 8556TIP3   OH247158   0.539   4.193   4.448  0.8487  0.4004 -0.0146
 8556TIP3    H147159   0.549   4.098   4.435 -0.5656  0.0607  1.1900
 8556TIP3    H247160   0.628   4.225   4.461  1.2427 -0.9923  0.8883
 8557TIP3   OH247161   6.324   4.030  15.658  0.2904 -0.2178 -0.4268
 8557TIP3    H147162   6.412   3.998  15.679  0.2346  0.5312  1.0088
 8557TIP3    H247163   6.318   4.113  15.704 -0.2559  0.9772 -2.5761
 8558TIP3   OH247164   4.848   3.877  16.973 -0.6018 -0.5400  0.6344
 8558TIP3    H147165   4.752   3.872  16.980 -0.7160  0.1830 -0.4013
 8558TIP3    H247166   4.864   3.903  16.883  0.5557  0.0923  1.0150
 8559TIP3   OH247167   2.789   3.381  11.717  0.1200 -1.0530 -0.1388
 8559TIP3    H147168   2.735   3.459  11.724  0.2685 -0.7862 -1.6143
 8559TIP3    H247169   2.879   3.414  11.712  0.2583 -1.3704  0.2172
 8560TIP3   OH247170   0.846   3.307   4.138  0.1167 -0.5831 -0.1813
 8560TIP3    H147171   0.750   3.306   4.139  0.1148 -0.5105 -0.3733
 8560TIP3    H247172   0.870   3.214   4.144  0.0407 -0.5649  0.4868
 8561TIP3   OH247173   3.028   2.257  16.722 -0.4072  0.0582 -0.0885
 8561TIP3    H147174   2.948   2.288  16.765  0.3855  0.3605  1.2020
 8561TIP3    H247175   3.016   2.279  16.630 -3.3377 -3.0396 -0.5599
 8562TIP3   OH247176   6.081   5.678   0.076 -0.0791  0.1877 -0.3327
 8562TIP3    H147177   6.130   5.602   0.044 -1.0632 -0.8342  0.5284
 8562TIP3    H247178   6.120   5.752   0.030  1.5047 -0.7217 -0.5309
 8563TIP3   OH247179   5.389   6.380  13.913 -0.2941 -0.0310  0.3585
 8563TIP3    H147180   5.325   6.337  13.969 -2.7391  1.5791 -1.1143
 8563TIP3    H247181   5.394   6.325  13.835 -1.2845  0.7970 -0.3038
 8564TIP3   OH247182   3.524   3.377  15.977  0.3942 -0.3993  0.1122
 8564TIP3    H147183   3.501   3.324  16.053  0.6820  0.1156  0.5624
 8564TIP3    H247184   3.564   3.316  15.916 -1.3025 -1.1320 -0.2956
 8565TIP3   OH247185   6.436   1.263  15.534 -0.0964  0.1538 -0.8911
 8565TIP3    H147186   6.474   1.179  15.558 -0.1913  0.2008 -0.5763
 8565TIP3    H247187   6.512   1.321  15.522 -0.0747  0.3030 -0.0535
 8566TIP3   OH247188   5.099   5.624  12.262 -0.4504 -0.0712  0.0608
 8566TIP3    H147189   5.073   5.539  12.297  0.1019 -0.5200 -0.5956
 8566TIP3    H247190   5.084   5.685  12.333  1.4568 -1.0886  1.3805
 8567TIP3   OH247191   6.553   4.932   2.664  0.5023 -0.6319  0.0176
 8567TIP3    H147192   6.474   4.944   2.611  0.8032 -2.1539 -0.8019
 8567TIP3    H247193   6.524   4.946   2.754 -0.7320 -1.3192 -0.2670
 8568TIP3   OH247194   1.435   6.642   2.313 -0.8841  0.1836 -0.1481
 8568TIP3    H147195   1.449   6.655   2.407 -2.2314 -1.6912  0.3601
 8568TIP3    H247196   1.517   6.606   2.281 -0.1929  1.4585  0.1788
 8569TIP3   OH247197   6.482   5.384   3.919 -0.8183 -0.2563  0.1362
 8569TIP3    H147198   6.470   5.479   3.907 -0.3542 -0.3755 -1.3850
 8569TIP3    H247199   6.446   5.346   3.838 -1.3592 -1.4066  0.9147
 8570TIP3   OH247200   3.744   4.910   0.475 -0.1468 -0.1753 -0.2520
 8570TIP3    H147201   3.707   4.996   0.495  0.3700  0.2408 -1.0852
 8570TIP3    H247202   3.781   4.881   0.558 -1.9219 -0.3954  0.4860
 8571TIP3   OH247203   6.260   3.281   0.223  0.5485 -0.3411 -0.0098
 8571TIP3    H147204   6.213   3.267   0.141 -0.0461  0.5926  0.1667
 8571TIP3    H247205   6.340   3.230   0.214  1.1413  0.8443 -1.7508
 8572TIP3   OH247206   5.917   5.427  17.202  0.3203  0.0933 -0.1206
 8572TIP3    H147207   5.878   5.489  17.264  3.3908 -0.0267  2.0190
 8572TIP3    H247208   6.003   5.463  17.182  0.0011 -0.6998 -3.1353
 8573TIP3   OH247209   2.863   2.014  13.215 -0.2206  0.0219  0.3399
 8573TIP3    H147210   2.847   1.958  13.138  0.7622 -0.1437  0.2590
 8573TIP3    H247211   2.781   2.009  13.264 -0.3295 -1.0814  0.0696
 8574TIP3   OH247212   6.493   5.825   1.961  0.1121 -0.4624 -0.0355
 8574TIP3    H147213   6.441   5.822   1.881 -0.6505 -0.8236  0.4685
 8574TIP3    H247214   6.439   5.875   2.023  0.8437  0.1070  0.1472
 8575TIP3   OH247215   4.411   6.274   3.840  0.3278  0.0485 -0.1216
 8575TIP3    H147216   4.358   6.275   3.919  1.2686  0.3036  0.5189
 8575TIP3    H247217   4.348   6.268   3.768 -0.5853  0.7428  0.6077
 8576TIP3   OH247218   1.131   1.596  13.016  0.0228  0.5078 -0.6240
 8576TIP3    H147219   1.171   1.661  13.073 -0.8161  0.2021  0.3211
 8576TIP3    H247220   1.204   1.559  12.967  0.8906  0.0203  1.0112
 8577TIP3   OH247221   0.134   0.424   3.992  0.5264 -0.1954 -0.1628
 8577TIP3    H147222   0.198   0.380   4.048 -0.0060 -0.9934 -0.1669
 8577TIP3    H247223   0.084   0.352   3.953  0.3296  0.3861 -0.9902
 8578TIP3   OH247224   4.943   6.022   3.172  0.4040 -0.1727 -0.2111
 8578TIP3    H147225   4.873   5.961   3.193  0.7459 -0.1757  0.9512
 8578TIP3    H247226   4.963   6.005   3.080 -1.7359  0.4595 -0.8285
 8579TIP3   OH247227   4.773   4.123   6.545  0.1574 -0.5576 -0.1085
 8579TIP3    H147228   4.849   4.132   6.487  0.4332 -0.3804  0.2836
 8579TIP3    H247229   4.737   4.037   6.523  1.3404 -1.2925  0.7399
 8580TIP3   OH247230   2.753   1.968   1.254  0.3460 -0.6434 -0.5905
 8580TIP3    H147231   2.772   2.047   1.203  2.4662 -1.6783 -1.4960
 8580TIP3    H247232   2.793   1.984   1.339 -1.5370  0.3059  0.1505
 8581TIP3   OH247233   2.924   0.980   3.050 -0.7808  0.2265 -0.2736
 8581TIP3    H147234   2.990   1.000   2.984 -0.0696 -0.0477  0.3411
 8581TIP3    H247235   2.964   0.910   3.103 -2.7326 -2.0197 -1.6680
 8582TIP3   OH247236   5.661   1.569   5.630 -0.1535  0.5807  0.0837
 8582TIP3    H147237   5.590   1.521   5.588 -0.3444  1.0450 -0.1310
 8582TIP3    H247238   5.741   1.524   5.602 -0.4261 -0.7498  1.3906
 8583TIP3   OH247239   5.790   1.835  12.720  0.7637 -0.2208  0.2456
 8583TIP3    H147240   5.754   1.791  12.797  0.8006 -1.4338 -0.4232
 8583TIP3    H247241   5.722   1.824  12.653  0.4349  1.4299  0.2962
 8584TIP3   OH247242   6.399   2.803  15.700  0.2991 -0.1762 -0.3247
 8584TIP3    H147243   6.477   2.858  15.703  0.6344 -0.7163  1.2171
 8584TIP3    H247244   6.328   2.859  15.731  0.1754  0.1156 -1.1088
 8585TIP3   OH247245   4.096   3.690   2.626 -0.2325 -0.2346  0.3265
 8585TIP3    H147246   4.087   3.596   2.610  0.2773 -0.1917 -0.2387
 8585TIP3    H247247   4.191   3.704   2.628 -0.2838 -0.0035  2.0428
 8586TIP3   OH247248   1.227   0.229   2.474  0.2041 -0.0363  0.3157
 8586TIP3    H147249   1.314   0.233   2.514  0.1338  0.1712  0.4467
 8586TIP3    H247250   1.218   0.138   2.447  0.3858 -0.1033  0.4758
 8587TIP3   OH247251   3.571   1.045  11.552  0.4771 -0.2046 -0.3773
 8587TIP3    H147252   3.543   1.066  11.641 -1.4783 -1.0221 -0.7794
 8587TIP3    H247253   3.645   0.985  11.564 -0.5167 -1.2633  0.7157
 8588TIP3   OH247254   1.507   3.587   4.043 -0.1655  0.1178  0.4636
 8588TIP3    H147255   1.601   3.576   4.028 -0.4051 -2.0573  0.2835
 8588TIP3    H247256   1.484   3.667   3.996  1.6386  0.8095  0.7271
 8589TIP3   OH247257   4.140   5.325  13.614  0.1780 -0.1928 -0.1539
 8589TIP3    H147258   4.108   5.236  13.628  1.1079 -0.4846  0.1789
 8589TIP3    H247259   4.185   5.348  13.696  0.4935  0.3431 -0.4673
 8590TIP3   OH247260   2.193   4.268   5.508  0.5712  0.3306  0.4605
 8590TIP3    H147261   2.265   4.322   5.542  1.2633  0.1119 -0.6387
 8590TIP3    H247262   2.216   4.179   5.531  1.0701  0.1750 -0.6033
 8591TIP3   OH247263   4.476   3.313  11.867 -0.0130 -0.0666  0.6362
 8591TIP3    H147264   4.383   3.302  11.846 -0.4822 -0.7903  3.0009
 8591TIP3    H247265   4.477   3.374  11.940  1.4142  0.3011  0.3220
 8592TIP3   OH247266   0.001   3.807   5.103 -0.0429  0.0327 -0.9907
 8592TIP3    H147267  -0.044   3.807   5.187  0.0197 -0.7462 -0.9566
 8592TIP3    H247268  -0.054   3.863   5.047 -0.1706  0.4221 -0.4877
 8593TIP3   OH247269   2.203   6.139   1.666 -0.8837 -0.6079 -0.3852
 8593TIP3    H147270   2.130   6.079   1.651  0.3102 -1.5580 -2.5220
 8593TIP3    H247271   2.266   6.118   1.598  1.0516  0.7698  0.9363
 8594TIP3   OH247272   3.253   3.976  16.113 -0.3720 -0.1711  0.1393
 8594TIP3    H147273   3.272   4.063  16.146 -2.2402  0.0480  0.6918
 8594TIP3    H247274   3.241   3.987  16.019 -1.3426  0.2877  0.3202
 8595TIP3   OH247275   0.245   0.366  12.226 -0.3749  0.1849  0.1135
 8595TIP3    H147276   0.288   0.317  12.296  0.3861 -1.0004 -1.1610
 8595TIP3    H247277   0.265   0.317  12.147 -0.1060  2.2360 -1.1285
 8596TIP3   OH247278   5.997   5.664   2.902  0.0216  0.3934  0.2919
 8596TIP3    H147279   6.084   5.701   2.911  0.2163  0.2559 -0.9466
 8596TIP3    H247280   6.012   5.569   2.896 -0.0872  0.4784 -1.4266
 8597TIP3   OH247281   5.244   4.358   2.668 -0.7709 -0.1711 -0.1144
 8597TIP3    H147282   5.196   4.365   2.585  0.5026 -0.5438 -0.8908
 8597TIP3    H247283   5.287   4.442   2.678 -0.7227 -0.2152  0.0430
 8598TIP3   OH247284   5.444   0.419  14.534 -0.2418  0.5971  0.0468
 8598TIP3    H147285   5.353   0.441  14.514  0.0522 -0.1752 -2.2523
 8598TIP3    H247286   5.461   0.337  14.487  1.8536  1.1086 -0.1610
 8599TIP3   OH247287   0.966   6.276  14.531  0.5738 -0.4185 -0.2756
 8599TIP3    H147288   0.973   6.248  14.440  0.6222 -0.7690 -0.1650
 8599TIP3    H247289   0.965   6.371  14.527 -0.2309 -0.4382 -0.7036
 8600TIP3   OH247290   3.002   0.700   1.368 -0.8882 -0.1094 -0.2029
 8600TIP3    H147291   2.956   0.620   1.345  0.7983 -0.5992 -2.0247
 8600TIP3    H247292   2.940   0.750   1.420 -3.6290 -0.5282 -2.9541
 8601TIP3   OH247293   5.153   3.201   5.546  0.5570 -0.2570 -0.3656
 8601TIP3    H147294   5.177   3.109   5.554  2.7008  0.2754 -0.3418
 8601TIP3    H247295   5.227   3.241   5.499 -0.4788  1.3861 -0.6359
 8602TIP3   OH247296   0.232   0.055  15.637  0.2332 -0.4157  0.8305
 8602TIP3    H147297   0.173   0.111  15.687 -0.7575  1.8782 -2.6882
 8602TIP3    H247298   0.195  -0.033  15.646 -1.3638  0.3536  2.0090
 8603TIP3   OH247299   5.310   0.675   3.851  0.4666 -0.3082  0.1127
 8603TIP3    H147300   5.403   0.677   3.872  0.4123  0.7982  0.2495
 8603TIP3    H247301   5.302   0.725   3.770 -0.2922  1.3830  1.2140
 8604TIP3   OH247302   1.564   3.053  13.536 -0.2415 -0.7827  0.4734
 8604TIP3    H147303   1.627   2.986  13.564 -0.1100  0.0223  2.1699
 8604TIP3    H247304   1.478   3.014  13.556 -0.2227 -1.1139 -0.0828
 8605TIP3   OH247305   3.148   5.308  15.729  0.2161  0.2045  0.0087
 8605TIP3    H147306   3.126   5.309  15.636  0.0921  0.2198  0.0391
 8605TIP3    H247307   3.108   5.228  15.763  2.3373 -1.1033 -0.4707
 8606TIP3   OH247308   1.365   4.959   5.342 -0.2615  0.6241  0.0916
 8606TIP3    H147309   1.354   4.987   5.251  0.9809 -1.1737 -0.6324
 8606TIP3    H247310   1.291   4.900   5.357  0.0170  0.2437 -0.0293
 8607TIP3   OH247311   3.017   1.560   1.395 -0.4725  0.4896  0.1891
 8607TIP3    H147312   3.108   1.551   1.366 -0.5924  1.9235 -0.6408
 8607TIP3    H247313   2.972   1.605   1.324 -1.6935  0.3859  0.8716
 8608TIP3   OH247314   1.860   6.238   2.793  0.5043  0.5825 -0.6903
 8608TIP3    H147315   1.793   6.199   2.849  0.6088  2.0869  0.5302
 8608TIP3    H247316   1.826   6.231   2.704 -0.0035 -1.1788 -0.3589
 8609TIP3   OH247317   1.378   6.614   2.657 -0.6382  0.3846 -0.3071
 8609TIP3    H147318   1.409   6.524   2.668 -0.7122  0.3372 -0.4839
 8609TIP3    H247319   1.321   6.629   2.732  1.3344  1.1309  1.1024
 8610TIP3   OH247320   5.143   5.794   3.261  0.5486 -0.2662 -0.0429
 8610TIP3    H147321   5.051   5.766   3.255  0.4969  0.0574 -0.9086
 8610TIP3    H247322   5.181   5.769   3.176  1.8098 -2.2977  1.0886
 8611TIP3   OH247323   6.514   5.950  15.965  0.1367 -0.1582 -0.2439
 8611TIP3    H147324   6.599   5.913  15.988 -0.3123 -1.0788 -0.0316
 8611TIP3    H247325   6.452   5.878  15.980 -0.3973 -0.2430 -2.6708
 8612TIP3   OH247326   2.301   0.825  13.054 -0.5589  0.1188 -0.0480
 8612TIP3    H147327   2.355   0.866  13.121  1.2824 -1.4082 -0.5778
 8612TIP3    H247328   2.363   0.781  12.996 -2.2655 -0.3850 -1.5331
 8613TIP3   OH247329   3.258   5.356  13.217 -0.0689  0.3544  0.6028
 8613TIP3    H147330   3.306   5.279  13.248 -0.4188  0.0994  0.5081
 8613TIP3    H247331   3.327   5.419  13.192  0.2133  0.1586  0.8918
 8614TIP3   OH247332   6.054   1.213  12.090 -0.2614  0.0391  0.0649
 8614TIP3    H147333   6.111   1.136  12.089 -2.2364 -1.5031  2.3773
 8614TIP3    H247334   6.097   1.274  12.150 -0.2569 -0.4877  0.5950
 8615TIP3   OH247335   3.441   1.118   3.188 -0.0349 -0.0383 -0.2109
 8615TIP3    H147336   3.529   1.155   3.196 -0.0875  0.2804 -1.1137
 8615TIP3    H247337   3.437   1.083   3.099 -0.5901 -0.6697  0.0538
 8616TIP3   OH247338   4.343   1.401   0.130 -0.2046 -0.3575  0.2472
 8616TIP3    H147339   4.346   1.371   0.221 -0.1361 -0.8924  0.0765
 8616TIP3    H247340   4.327   1.321   0.080 -0.0525 -0.0951 -0.2235
 8617TIP3   OH247341   5.839   3.083  11.475 -0.2731 -0.0248  0.3113
 8617TIP3    H147342   5.820   3.035  11.395 -1.1745  1.0099 -0.1089
 8617TIP3    H247343   5.912   3.036  11.515 -0.0404 -0.7422 -0.9435
 8618TIP3   OH247344   4.897   4.361   0.541  0.2836  0.3089  0.0052
 8618TIP3    H147345   4.811   4.363   0.498  0.1728  2.0858  0.3144
 8618TIP3    H247346   4.949   4.426   0.494  1.9859 -1.8417 -1.2209
 8619TIP3   OH247347   6.728   3.761  11.572  0.0096  0.0380 -0.1182
 8619TIP3    H147348   6.688   3.676  11.593  0.8009 -0.4709 -0.6287
 8619TIP3    H247349   6.803   3.739  11.516  0.9840  0.9869  0.8012
 8620TIP3   OH247350   1.534   3.760  16.223  0.0610 -0.2725 -0.2581
 8620TIP3    H147351   1.467   3.826  16.209  0.0904 -0.0742  0.5030
 8620TIP3    H247352   1.573   3.783  16.307  1.5680  0.0282 -1.0268
 8621TIP3   OH247353   5.178   0.101  12.891  0.2518  0.2157  0.1730
 8621TIP3    H147354   5.210   0.030  12.948 -0.5243 -0.3221 -0.0558
 8621TIP3    H247355   5.161   0.058  12.807  2.3081  1.1836 -0.7752
 8622TIP3   OH247356   3.096   0.573   4.931  0.3114 -0.1718 -0.5177
 8622TIP3    H147357   3.144   0.508   4.983  1.4460  0.7147 -0.4459
 8622TIP3    H247358   3.151   0.587   4.854 -0.4365 -0.0476 -1.0426
 8623TIP3   OH247359   1.163   5.061   4.039 -0.2762  0.3430 -0.4843
 8623TIP3    H147360   1.216   5.014   4.104 -1.2258 -0.3839 -0.2193
 8623TIP3    H247361   1.177   5.013   3.957 -1.2804 -0.4387 -0.2040
 8624TIP3   OH247362   2.206   4.731   3.831 -0.0118  0.0106 -0.4088
 8624TIP3    H147363   2.264   4.665   3.868  0.4768  0.3078 -0.6407
 8624TIP3    H247364   2.232   4.738   3.740 -0.9079 -0.3811 -0.6990
 8625TIP3   OH247365   3.231   5.034   2.451  0.5182 -0.2329  0.4779
 8625TIP3    H147366   3.172   4.970   2.491  0.0165 -0.5908 -0.8138
 8625TIP3    H247367   3.311   5.029   2.503  0.2917 -1.5147  0.7093
 8626TIP3   OH247368   4.946   1.417   5.091 -0.2417  0.0068 -0.2508
 8626TIP3    H147369   4.878   1.352   5.074 -0.6762  0.6921 -1.1719
 8626TIP3    H247370   5.024   1.382   5.046 -0.3271 -0.1322 -0.2928
 8627TIP3   OH247371   2.768   4.248   1.022  0.0515 -0.8400  0.1978
 8627TIP3    H147372   2.853   4.291   1.031  0.0182 -0.6821 -0.2256
 8627TIP3    H247373   2.743   4.264   0.931  0.1599 -1.9837 -0.0438
 8628TIP3   OH247374   0.285   4.390   0.892  0.1288 -0.5198 -0.3084
 8628TIP3    H147375   0.324   4.364   0.975 -0.8873 -0.2199  0.2674
 8628TIP3    H247376   0.299   4.316   0.834  2.7497  0.0858 -0.5200
 8629TIP3   OH247377   1.891   6.287   5.970 -0.3008  0.1101  0.5565
 8629TIP3    H147378   1.978   6.302   5.931  0.1583  0.0285  1.5326
 8629TIP3    H247379   1.858   6.375   5.990 -0.6861  0.1692 -0.3331
 8630TIP3   OH247380   5.000   4.347  10.472 -0.0951  0.2968 -0.2624
 8630TIP3    H147381   4.954   4.423  10.436 -1.0617 -0.3896 -0.4951
 8630TIP3    H247382   4.970   4.342  10.563  0.5774  0.6598 -0.0176
 8631TIP3   OH247383   0.081   6.492   5.338 -0.1448 -0.0888 -0.2931
 8631TIP3    H147384   0.111   6.458   5.254  1.9973  0.6498  0.1392
 8631TIP3    H247385  -0.011   6.464   5.344 -0.5100  0.3126 -3.1030
 8632TIP3   OH247386   2.841   2.231   3.742 -0.3694 -0.1313 -0.2400
 8632TIP3    H147387   2.909   2.183   3.789  1.4939  1.7302 -0.9173
 8632TIP3    H247388   2.804   2.290   3.807  0.7420  0.9442 -0.5597
 8633TIP3   OH247389   4.779   6.585  14.662 -0.1017  0.4187 -0.2278
 8633TIP3    H147390   4.849   6.559  14.722 -1.2277 -1.5037  0.2995
 8633TIP3    H247391   4.824   6.633  14.593  1.6977 -0.4228  0.3136
 8634TIP3   OH247392   3.654   0.186   5.153 -0.1207 -0.0509  0.0017
 8634TIP3    H147393   3.639   0.250   5.223  1.8259  1.0363 -0.5520
 8634TIP3    H247394   3.709   0.232   5.089  1.4228 -2.3061 -0.3455
 8635TIP3   OH247395   4.673   4.583  16.163 -0.0991  0.1693  0.4914
 8635TIP3    H147396   4.742   4.558  16.223  2.2674  0.6546 -1.9254
 8635TIP3    H247397   4.650   4.672  16.187  0.1747  0.0378  1.2395
 8636TIP3   OH247398   2.138   2.692   3.785 -0.3078  0.3153 -0.1368
 8636TIP3    H147399   2.167   2.608   3.821  0.4085  0.0984 -1.1956
 8636TIP3    H247400   2.141   2.679   3.690  0.5550  1.7852 -0.3252
 8637TIP3   OH247401   3.140   2.863  12.491  0.2553  0.2989  0.2447
 8637TIP3    H147402   3.190   2.802  12.437  1.4604  0.6876  0.9021
 8637TIP3    H247403   3.204   2.898  12.553 -0.5127  1.9525  0.1229
 8638TIP3   OH247404   3.411   0.540   1.951 -0.1359 -0.1037 -0.1391
 8638TIP3    H147405   3.497   0.571   1.977  0.4780  0.2471 -2.4807
 8638TIP3    H247406   3.426   0.452   1.919 -0.8969 -0.5736  0.7645
 8639TIP3   OH247407   1.097   1.489   4.699  0.1896  0.1287  0.3190
 8639TIP3    H147408   1.141   1.573   4.694 -0.0384  0.2461  0.2790
 8639TIP3    H247409   1.123   1.452   4.783  1.5546 -0.4630 -0.3508
 8640TIP3   OH247410   2.648   1.580   0.993 -0.1873  0.3205  0.2780
 8640TIP3    H147411   2.702   1.658   0.981 -0.5716  0.3977 -1.0321
 8640TIP3    H247412   2.707   1.506   0.975 -0.3110  0.3772 -0.3663
 8641TIP3   OH247413   3.822   3.310  12.292 -0.2504 -0.2079 -0.1694
 8641TIP3    H147414   3.829   3.217  12.314  4.2596  0.0230 -0.2312
 8641TIP3    H247415   3.856   3.316  12.202 -1.6714  1.3583 -0.6361
 8642TIP3   OH247416   5.439   4.744   5.366 -0.2533 -0.0076 -0.7021
 8642TIP3    H147417   5.493   4.779   5.295 -0.9668  0.8263 -0.8336
 8642TIP3    H247418   5.497   4.682   5.411  0.0961 -0.8074 -2.2095
 8643TIP3   OH247419   6.689   0.698  15.463 -0.2352 -0.0986 -0.1222
 8643TIP3    H147420   6.768   0.674  15.512 -1.0981 -1.2765  0.7230
 8643TIP3    H247421   6.722   0.737  15.382  1.2074  0.9192  0.9351
 8644TIP3   OH247422   1.687   2.100   4.541  0.4849  0.0011 -0.1594
 8644TIP3    H147423   1.667   2.008   4.523  1.0254  0.1190 -1.4827
 8644TIP3    H247424   1.766   2.117   4.489  0.4383  1.1844  0.1477
 8645TIP3   OH247425   1.517   3.114  10.306  0.1853  0.1663  0.1725
 8645TIP3    H147426   1.524   3.044  10.241 -1.1868  0.9363 -0.8373
 8645TIP3    H247427   1.429   3.104  10.342  0.9830 -0.3361  2.0284
 8646TIP3   OH247428   2.713   5.618  17.075  0.2928 -0.2817 -0.1440
 8646TIP3    H147429   2.646   5.657  17.018  1.2583 -1.1530 -1.9271
 8646TIP3    H247430   2.769   5.691  17.100 -0.4880  0.2099  0.1768
 8647TIP3   OH247431   5.532   0.047  11.844 -0.4391 -0.1382 -0.4141
 8647TIP3    H147432   5.522  -0.045  11.866 -0.3792  0.0834  0.5664
 8647TIP3    H247433   5.518   0.051  11.749 -0.5573 -1.1305 -0.4415
 8648TIP3   OH247434   0.514   1.956  15.907  0.1418  0.2516  0.0880
 8648TIP3    H147435   0.456   1.907  15.964 -0.3857  0.4947 -0.2397
 8648TIP3    H247436   0.502   1.916  15.821 -0.4845  1.1196 -0.2337
 8649TIP3   OH247437   4.285   4.950   0.947  0.1181  0.5068 -0.5768
 8649TIP3    H147438   4.374   4.985   0.938  0.3395 -0.0484 -0.6114
 8649TIP3    H247439   4.299   4.858   0.968 -0.4555  0.2873 -1.1493
 8650TIP3   OH247440   2.254   3.596  15.835  0.5160  0.2442 -0.1014
 8650TIP3    H147441   2.188   3.566  15.772  2.1221  0.4029 -1.8751
 8650TIP3    H247442   2.280   3.682  15.804  2.0276 -0.0892  0.2071
 8651TIP3   OH247443   5.459   0.861  14.185 -0.2590  0.3113  0.2521
 8651TIP3    H147444   5.478   0.816  14.102  0.2797  1.2828 -0.1642
 8651TIP3    H247445   5.503   0.809  14.251 -1.3462 -0.9196  0.0294
 8652TIP3   OH247446   4.342   2.013   4.060 -0.3740 -0.2741 -0.2013
 8652TIP3    H147447   4.422   2.008   4.113 -1.2328  0.6817  1.2166
 8652TIP3    H247448   4.373   2.021   3.970  1.1149 -0.9355  0.2366
 8653TIP3   OH247449   5.839   3.998  12.210 -0.2100 -0.0347  0.0061
 8653TIP3    H147450   5.899   4.047  12.266 -0.4391 -1.8625  1.8732
 8653TIP3    H247451   5.753   4.037  12.227 -0.2278 -0.3643  0.6568
 8654TIP3   OH247452   6.310   3.944  13.386  0.4258  0.1431  1.4528
 8654TIP3    H147453   6.326   4.027  13.429 -0.7477 -0.0225  2.2427
 8654TIP3    H247454   6.268   3.890  13.453 -0.2325 -0.5536  0.4997
 8655TIP3   OH247455   2.347   5.630   0.050  0.0595 -0.0724  0.2974
 8655TIP3    H147456   2.328   5.715   0.090  1.8454  0.3307  0.2915
 8655TIP3    H247457   2.415   5.592   0.105  0.1244 -0.9877 -0.4092
 8656TIP3   OH247458   6.631   2.863  14.586 -0.5116  0.0082 -0.4327
 8656TIP3    H147459   6.669   2.946  14.558  2.6156 -0.6233  1.6748
 8656TIP3    H247460   6.579   2.885  14.664 -0.6003  0.1697 -0.5374
 8657TIP3   OH247461   5.385   1.553   2.367 -0.0800 -0.7157  0.3361
 8657TIP3    H147462   5.389   1.640   2.328  1.8546 -0.0675  1.9259
 8657TIP3    H247463   5.438   1.499   2.308  0.2833 -0.4130  0.3854
 8658TIP3   OH247464   6.333   0.006   2.732 -0.0863 -0.1182 -0.0535
 8658TIP3    H147465   6.260   0.035   2.787 -0.2816 -0.2125 -0.2626
 8658TIP3    H247466   6.410   0.046   2.772 -0.3572  0.7204 -0.3525
 8659TIP3   OH247467   3.419   2.014   4.600 -0.4704 -0.0620  0.2295
 8659TIP3    H147468   3.422   2.036   4.694  0.5675 -0.0234  0.1979
 8659TIP3    H247469   3.492   2.064   4.562 -1.8956  1.2107 -0.8865
 8660TIP3   OH247470   2.970   1.890   5.392 -0.4948 -0.9572  0.9120
 8660TIP3    H147471   2.901   1.829   5.366 -1.7398 -0.3944  2.8232
 8660TIP3    H247472   2.989   1.867   5.483  1.6875 -0.9312  0.5008
 8661TIP3   OH247473   4.058   0.395   4.588  0.3480 -0.2590 -0.1035
 8661TIP3    H147474   4.098   0.411   4.673  0.6433 -0.8897 -0.1215
 8661TIP3    H247475   3.981   0.342   4.607  0.1423  0.0052 -0.1843
 8662TIP3   OH247476   3.178   1.509   0.721 -0.7242 -0.4406 -0.0854
 8662TIP3    H147477   3.230   1.584   0.694 -1.2591 -0.4197 -1.0609
 8662TIP3    H247478   3.127   1.541   0.796 -1.3893  0.3408 -0.8629
 8663TIP3   OH247479   2.862   2.755   0.763  0.3117 -0.3411 -0.0477
 8663TIP3    H147480   2.937   2.708   0.724 -0.8675 -3.2798  1.0722
 8663TIP3    H247481   2.897   2.793   0.843  0.8601 -0.8664 -0.0279
 8664TIP3   OH247482   5.774   1.350  15.360 -0.3817 -0.3432 -0.2627
 8664TIP3    H147483   5.712   1.287  15.325 -1.1148 -0.7065  1.6323
 8664TIP3    H247484   5.728   1.392  15.432  1.0254  0.4940  0.1792
 8665TIP3   OH247485   4.625   0.607   1.206  0.6884  0.0665  0.7971
 8665TIP3    H147486   4.680   0.535   1.176 -0.7248 -0.4692 -0.6047
 8665TIP3    H247487   4.685   0.679   1.223  1.8497 -0.6399 -0.2871
 8666TIP3   OH247488   5.907   3.643   4.641  0.0757 -0.0129  0.3283
 8666TIP3    H147489   5.849   3.640   4.717  0.3854 -1.5929  0.5070
 8666TIP3    H247490   5.958   3.723   4.654 -0.7403  0.3935  1.1372
 8667TIP3   OH247491   1.165   1.509   3.338  0.5376  0.2823  0.3159
 8667TIP3    H147492   1.188   1.417   3.348  2.0099  0.6263  0.1664
 8667TIP3    H247493   1.187   1.530   3.247  1.5503  1.1521  0.7563
 8668TIP3   OH247494   2.133   4.137  15.606 -0.1392  0.1628 -0.6372
 8668TIP3    H147495   2.222   4.149  15.639 -0.2910  1.9097 -0.8369
 8668TIP3    H247496   2.137   4.163  15.514 -1.2222  1.9964 -0.2044
 8669TIP3   OH247497   5.276   2.086  14.353 -0.4310 -0.2544  0.3661
 8669TIP3    H147498   5.229   2.028  14.413  1.0665 -1.0238  0.8265
 8669TIP3    H247499   5.207   2.131  14.304 -1.6339 -1.3442  1.0229
 8670TIP3   OH247500   6.171   6.381   5.465  0.0445 -0.0342 -0.0175
 8670TIP3    H147501   6.175   6.340   5.379 -0.3325 -2.0121  0.8702
 8670TIP3    H247502   6.083   6.362   5.497 -0.2251  1.6953  0.3368
 8671TIP3   OH247503   5.612   1.658  15.299  0.4549  0.0088  0.4770
 8671TIP3    H147504   5.521   1.638  15.278  0.5460 -0.7120  0.7544
 8671TIP3    H247505   5.617   1.754  15.296 -0.2630  0.0437  0.2823
 8672TIP3   OH247506   0.444   2.892   0.355  0.1519 -0.4050 -0.2458
 8672TIP3    H147507   0.474   2.902   0.446  0.3270 -1.9011 -0.1240
 8672TIP3    H247508   0.500   2.824   0.319 -0.2247 -0.1342 -1.3494
 8673TIP3   OH247509   2.889   5.790   0.414  0.3731  0.3313  0.4491
 8673TIP3    H147510   2.980   5.761   0.424  1.3262  3.3241  0.9471
 8673TIP3    H247511   2.860   5.750   0.332  1.3133 -2.6071  1.4828
 8674TIP3   OH247512   4.595   3.345   2.347 -0.1279 -0.6199  0.6635
 8674TIP3    H147513   4.586   3.305   2.261 -1.2648  1.1931 -0.1110
 8674TIP3    H247514   4.689   3.355   2.359  0.0145  0.0112 -0.8297
 8675TIP3   OH247515   6.106   2.090   0.483 -0.1872 -0.2607 -0.4032
 8675TIP3    H147516   6.168   2.052   0.421  0.9824 -0.3978  0.8252
 8675TIP3    H247517   6.121   2.184   0.477 -1.6584 -0.0886 -1.9484
 8676TIP3   OH247518   5.547   3.400  16.836 -0.0797  0.1234 -0.1767
 8676TIP3    H147519   5.570   3.493  16.834 -1.5681  0.5232  0.1969
 8676TIP3    H247520   5.475   3.392  16.773 -1.1524 -0.4214  1.0971
 8677TIP3   OH247521   2.070   2.143   2.775  0.0455 -0.4447  0.4352
 8677TIP3    H147522   1.982   2.142   2.810 -0.5863  1.2389 -1.0238
 8677TIP3    H247523   2.112   2.219   2.816 -1.1981  2.4878 -3.4811
 8678TIP3   OH247524   4.791   2.617   4.477 -0.0424  0.3576 -0.1962
 8678TIP3    H147525   4.849   2.688   4.505 -2.5741  2.2699  0.2557
 8678TIP3    H247526   4.799   2.552   4.547  0.7909  1.0221  0.3391
 8679TIP3   OH247527   4.229   3.994   2.532 -0.3995 -0.1589 -0.3445
 8679TIP3    H147528   4.246   4.088   2.543 -0.2371 -0.2320  0.0091
 8679TIP3    H247529   4.296   3.951   2.583 -0.0692 -0.4819 -1.0427
 8680TIP3   OH247530   4.926   1.686   0.837 -0.1210 -0.1602 -0.3077
 8680TIP3    H147531   4.934   1.594   0.865 -1.7559 -0.3912 -0.5729
 8680TIP3    H247532   5.017   1.716   0.829  0.4806 -2.3313 -2.1289
 8681TIP3   OH247533   0.948   5.885  14.572  0.2742  0.0300  0.3123
 8681TIP3    H147534   0.942   5.791  14.553  2.5333  0.2733 -1.7436
 8681TIP3    H247535   0.914   5.928  14.494  0.4882  0.9364  0.7153
 8682TIP3   OH247536   1.076   6.659  13.265 -0.7660  0.4606 -0.2384
 8682TIP3    H147537   0.994   6.645  13.313 -0.4567  1.4831  0.6013
 8682TIP3    H247538   1.050   6.658  13.173 -1.5604 -0.2613 -0.0109
 8683TIP3   OH247539   5.175   2.317  12.294 -0.6497  0.0519 -0.7133
 8683TIP3    H147540   5.134   2.230  12.286  1.0093 -0.8785  0.6300
 8683TIP3    H247541   5.193   2.342  12.203 -1.7610 -0.6974 -1.1607
 8684TIP3   OH247542   2.587   1.827   4.778 -0.2944 -0.4043 -0.2719
 8684TIP3    H147543   2.584   1.918   4.808  0.1421  0.0071 -1.4593
 8684TIP3    H247544   2.674   1.817   4.739 -1.3721 -0.4909 -2.7386
 8685TIP3   OH247545   3.684   0.797   5.084 -0.1388  0.4713  0.1326
 8685TIP3    H147546   3.675   0.892   5.076  0.0403  0.4356 -0.5226
 8685TIP3    H247547   3.639   0.775   5.166 -0.3697  1.0916  0.1725
 8686TIP3   OH247548   2.519   1.805   1.886 -0.5688 -0.7875 -0.6709
 8686TIP3    H147549   2.528   1.715   1.916 -2.4127 -1.0636 -0.8773
 8686TIP3    H247550   2.434   1.834   1.920  1.0541  1.7087  1.4363
 8687TIP3   OH247551   3.387   2.816  12.035  0.0645  1.0156  0.1498
 8687TIP3    H147552   3.399   2.909  12.018  0.1043  0.6767 -1.8242
 8687TIP3    H247553   3.299   2.797  12.003 -0.5213  0.6491  1.8958
 8688TIP3   OH247554   0.701   3.926  16.623 -0.4231  0.1953  0.3401
 8688TIP3    H147555   0.744   3.916  16.537 -0.1025 -1.9151  0.7364
 8688TIP3    H247556   0.644   4.003  16.612 -0.5836 -0.2022 -1.8378
 8689TIP3   OH247557   5.744   2.831   5.459 -0.0482 -0.0711 -0.0267
 8689TIP3    H147558   5.804   2.762   5.486 -1.0605 -1.1771 -0.5430
 8689TIP3    H247559   5.715   2.805   5.372 -0.2978  1.0989 -0.2985
 8690TIP3   OH247560   3.050   0.301  17.044 -0.3107  0.0219 -0.1887
 8690TIP3    H147561   3.085   0.251  16.970 -0.0788 -0.4140  0.2075
 8690TIP3    H247562   3.016   0.381  17.006 -0.9809 -0.5865 -0.8819
 8691TIP3   OH247563   2.409   2.047  16.122  0.5792  0.2388 -0.0120
 8691TIP3    H147564   2.410   1.952  16.112 -0.8699  0.2183  0.0397
 8691TIP3    H247565   2.472   2.064  16.192  2.1368 -0.5368 -1.1981
 8692TIP3   OH247566   2.247   5.111  15.050 -0.0790 -0.0764  0.2901
 8692TIP3    H147567   2.259   5.051  15.124 -0.9418 -0.9490 -0.2610
 8692TIP3    H247568   2.312   5.179  15.063 -1.2758  0.6635  2.7677
 8693TIP3   OH247569   6.803   5.340   2.628 -0.0020  0.1239 -0.8280
 8693TIP3    H147570   6.838   5.251   2.624 -0.0788 -0.2937  4.1212
 8693TIP3    H247571   6.880   5.395   2.645 -0.4470  0.4738  0.0836
 8694TIP3   OH247572   0.298   1.042  12.369  0.3677  0.4201 -0.4412
 8694TIP3    H147573   0.358   1.026  12.442  1.3440  0.1747 -1.2697
 8694TIP3    H247574   0.356   1.061  12.295 -0.5315 -1.4358 -1.6563
 8695TIP3   OH247575   4.299   4.021   1.832  0.0851  0.4870  0.0067
 8695TIP3    H147576   4.271   3.930   1.826  1.0921  0.2701 -1.4988
 8695TIP3    H247577   4.388   4.016   1.866  0.0862  0.9281  0.0712
 8696TIP3   OH247578   0.986   1.157  16.817 -0.6488 -0.4360  0.3030
 8696TIP3    H147579   0.955   1.090  16.879  0.1315 -1.5178 -0.4534
 8696TIP3    H247580   1.001   1.234  16.871  1.1495 -1.7194  1.6763
 8697TIP3   OH247581   1.444   4.702  13.928  0.4223  0.1725 -0.4268
 8697TIP3    H147582   1.378   4.771  13.934  0.1230 -0.2704  1.8015
 8697TIP3    H247583   1.519   4.735  13.977  0.7016 -0.5954 -0.3212
 8698TIP3   OH247584   4.910   0.332  10.761 -0.2147  0.3156 -0.3096
 8698TIP3    H147585   4.829   0.311  10.716 -1.1542 -0.9006  1.8723
 8698TIP3    H247586   4.976   0.274  10.721 -0.2224  1.7947 -2.5564
 8699TIP3   OH247587   3.081   1.873  11.339 -0.5984  0.4758  0.6399
 8699TIP3    H147588   3.063   1.813  11.267 -0.4953  1.5455 -0.2894
 8699TIP3    H247589   3.127   1.820  11.403 -0.5449 -0.4512 -0.1513
 8700TIP3   OH247590   6.276   0.528  11.312 -0.2742  0.3076 -0.8017
 8700TIP3    H147591   6.184   0.513  11.336  0.4562  0.3038  2.2659
 8700TIP3    H247592   6.288   0.623  11.323 -0.2665  0.5346 -2.6462
 8701TIP3   OH247593   0.490   1.110   1.377 -0.1335  0.1670 -0.1855
 8701TIP3    H147594   0.579   1.080   1.392 -0.5694 -0.3757  1.3115
 8701TIP3    H247595   0.457   1.053   1.308  0.3332 -0.2808 -0.0422
 8702TIP3   OH247596   4.490   3.862  11.758 -0.1832 -0.4989 -0.5617
 8702TIP3    H147597   4.515   3.771  11.749  1.8682  0.1068 -1.3157
 8702TIP3    H247598   4.432   3.864  11.834  1.6249 -2.0826  0.9051
 8703TIP3   OH247599   4.918   2.275   5.404 -0.6076  0.1214  0.6591
 8703TIP3    H147600   5.006   2.237   5.393 -1.0668 -0.4146 -1.4862
 8703TIP3    H247601   4.867   2.206   5.446 -0.9714 -1.0284 -1.5985
 8704TIP3   OH247602   6.161   0.914   3.230 -0.0551 -0.1970 -0.5101
 8704TIP3    H147603   6.158   1.007   3.209  1.1901 -0.4101 -1.6804
 8704TIP3    H247604   6.211   0.910   3.312  1.2545  0.0405 -1.2824
 8705TIP3   OH247605   4.519   4.302   4.663  0.5038  0.0033  0.4734
 8705TIP3    H147606   4.512   4.210   4.689 -3.8920 -0.1087 -0.7833
 8705TIP3    H247607   4.586   4.303   4.594  0.7872 -2.1650  0.6930
 8706TIP3   OH247608   3.910   0.403  13.983  0.1502  0.0445  0.3245
 8706TIP3    H147609   3.822   0.438  14.000 -0.2116 -0.3100 -0.7964
 8706TIP3    H247610   3.961   0.479  13.958  0.2954  0.3302  1.4494
 8707TIP3   OH247611   5.682   2.222   1.300  0.0823 -0.2164  0.2108
 8707TIP3    H147612   5.676   2.134   1.336  2.9719 -0.6988 -0.3222
 8707TIP3    H247613   5.636   2.218   1.216  0.8549 -1.4412 -0.1592
 8708TIP3   OH247614   4.661   6.242  13.062 -0.6976 -0.3999  0.0287
 8708TIP3    H147615   4.671   6.316  13.122 -2.4517 -0.7542  0.7747
 8708TIP3    H247616   4.721   6.262  12.989  0.4653  0.6717  1.2542
 8709TIP3   OH247617   2.661   6.512  16.421 -0.5589 -0.1285 -0.1764
 8709TIP3    H147618   2.661   6.441  16.357 -0.2809  0.7132 -1.1219
 8709TIP3    H247619   2.571   6.515  16.453 -0.1739 -2.0748  1.2149
 8710TIP3   OH247620   1.485   1.704   5.648  0.1599  0.2981 -0.1523
 8710TIP3    H147621   1.474   1.612   5.626  0.6096  0.2951 -0.3654
 8710TIP3    H247622   1.465   1.709   5.742 -1.2294  0.2266 -0.4302
 8711TIP3   OH247623   4.230   0.128   1.488  0.7016  0.3415 -0.4714
 8711TIP3    H147624   4.309   0.183   1.487  1.2493 -0.3591  1.1787
 8711TIP3    H247625   4.165   0.181   1.535  1.0053 -0.1001  0.4693
 8712TIP3   OH247626   4.035   2.328  14.737  0.5506 -0.1335  0.8690
 8712TIP3    H147627   4.039   2.423  14.745 -0.7841  0.1213 -1.0229
 8712TIP3    H247628   4.106   2.305  14.676  0.0700 -0.1903  0.3210
 8713TIP3   OH247629   3.075   1.001   1.236  0.1740 -0.2665  0.5742
 8713TIP3    H147630   3.094   0.949   1.158 -1.1432 -0.1707  0.1861
 8713TIP3    H247631   3.004   0.954   1.279  0.2117  0.2351  1.1787
 8714TIP3   OH247632   5.045   5.272  14.123 -0.2086  0.2096 -0.1646
 8714TIP3    H147633   5.087   5.202  14.074 -3.3004 -0.8160 -1.4662
 8714TIP3    H247634   5.031   5.235  14.210  0.0368 -0.0445 -0.2324
 8715TIP3   OH247635   5.200   1.472   3.189 -0.0556 -0.3759 -0.2923
 8715TIP3    H147636   5.158   1.528   3.124  2.4879  0.1400 -1.5484
 8715TIP3    H247637   5.270   1.527   3.226  0.0397 -1.4694  1.1792
 8716TIP3   OH247638   5.101   1.924   3.517 -0.1127 -0.5254 -0.6527
 8716TIP3    H147639   5.072   2.014   3.502  1.0057 -0.0725 -0.1165
 8716TIP3    H247640   5.141   1.897   3.434  0.7100 -0.0775 -0.4085
 8717TIP3   OH247641   0.243   3.211  11.672  0.2606  0.0540 -0.1074
 8717TIP3    H147642   0.272   3.299  11.652  0.5992 -0.0669 -0.1476
 8717TIP3    H247643   0.305   3.154  11.627  1.1873 -0.2270  1.4900
 8718TIP3   OH247644   0.846   5.448  11.876 -0.4513  0.3465  0.0524
 8718TIP3    H147645   0.871   5.494  11.957  1.4351 -0.9732  0.2399
 8718TIP3    H247646   0.902   5.487  11.809  0.6236 -1.1193  0.0769
 8719TIP3   OH247647   2.547   0.956  14.366  0.5169 -0.3687 -0.5514
 8719TIP3    H147648   2.597   0.957  14.284  0.8447  1.5199 -0.3575
 8719TIP3    H247649   2.499   1.039  14.366  2.1059  0.6219  2.1005
 8720TIP3   OH247650   6.739   5.693  12.582 -0.0358  0.2692  0.3067
 8720TIP3    H147651   6.730   5.753  12.508  0.8218  2.5390  1.9784
 8720TIP3    H247652   6.732   5.606  12.544 -1.7430  1.4365 -2.1334
 8721TIP3   OH247653   4.287   6.613  13.514 -0.1250  0.3028 -0.3925
 8721TIP3    H147654   4.238   6.638  13.593  2.1026  0.5773  0.9324
 8721TIP3    H247655   4.273   6.686  13.453 -2.7423 -0.4063 -0.6802
 8722TIP3   OH247656   0.516   4.125  16.546  0.2512  1.0045 -0.0005
 8722TIP3    H147657   0.514   4.122  16.451  0.3697  0.1469  0.0171
 8722TIP3    H247658   0.595   4.175  16.568 -0.6694  2.6572 -0.3602
 8723TIP3   OH247659   0.519   6.414  15.316  0.9550  0.3584  0.0810
 8723TIP3    H147660   0.439   6.454  15.349  0.7231  0.5853 -0.7345
 8723TIP3    H247661   0.588   6.443  15.376  0.3490 -0.2276  1.0685
 8724TIP3   OH247662   6.166   0.754  11.096 -0.2103 -0.0097  0.1562
 8724TIP3    H147663   6.173   0.847  11.074 -1.1913 -0.2347 -1.1641
 8724TIP3    H247664   6.239   0.713  11.049 -2.1898 -0.4618 -2.6829
 8725TIP3   OH247665   5.908   4.199   3.265 -0.2733  0.1140 -0.0159
 8725TIP3    H147666   5.822   4.166   3.241  0.3727 -2.0588  0.5635
 8725TIP3    H247667   5.969   4.131   3.237  1.3944  2.2011 -1.5972
 8726TIP3   OH247668   6.580   4.042  12.570  0.1758  0.7691 -0.1470
 8726TIP3    H147669   6.666   4.082  12.587  0.0170  0.9213  0.3172
 8726TIP3    H247670   6.518   4.098  12.616 -0.1710  0.6423 -0.4599
 8727TIP3   OH247671   3.470   3.119  10.692 -0.4597 -0.1299 -0.2688
 8727TIP3    H147672   3.407   3.130  10.763 -0.4494 -0.2016 -0.2504
 8727TIP3    H247673   3.443   3.039  10.647 -0.0609 -0.4507  0.0629
 8728TIP3   OH247674   3.002   2.078   3.960  0.2694  0.6775  0.5743
 8728TIP3    H147675   3.063   2.005   3.974 -1.6496 -1.4445 -1.6833
 8728TIP3    H247676   2.926   2.057   4.015 -1.3970 -0.4869 -2.0484
 8729TIP3   OH247677   6.621   2.932  13.619  0.1898 -0.2482  0.1175
 8729TIP3    H147678   6.629   2.875  13.543 -0.5831 -0.7295  0.3908
 8729TIP3    H247679   6.658   2.881  13.692 -0.6530 -0.4753  0.3941
 8730TIP3   OH247680   1.667   5.172  14.790 -0.1860 -0.2239 -0.6139
 8730TIP3    H147681   1.585   5.220  14.777 -0.5174  0.2510  2.6767
 8730TIP3    H247682   1.639   5.081  14.803 -0.0936 -0.2506 -0.6005
 8731TIP3   OH247683   4.120   6.692   3.405 -0.6101  0.0468  0.0797
 8731TIP3    H147684   4.113   6.599   3.381 -0.1907 -0.4716  1.9096
 8731TIP3    H247685   4.207   6.718   3.374 -0.9191 -0.0258 -0.8788
 8732TIP3   OH247686   6.372   3.931  14.462  0.1661  0.3510  0.6169
 8732TIP3    H147687   6.300   3.960  14.519  0.3327  0.5483  0.7269
 8732TIP3    H247688   6.360   3.983  14.382 -0.0490  0.0969  0.4836
 8733TIP3   OH247689   1.435   4.346  16.134  0.1399 -0.1851  0.3737
 8733TIP3    H147690   1.403   4.426  16.177  1.9120  0.3465  0.7313
 8733TIP3    H247691   1.502   4.376  16.074 -0.1295 -1.2799 -0.4906
 8734TIP3   OH247692   3.556   3.090   5.025  0.1253  0.0739 -0.1542
 8734TIP3    H147693   3.490   3.064   5.089  0.3977  1.2533  0.6076
 8734TIP3    H247694   3.506   3.133   4.955 -0.2816 -2.0628 -1.2216
 8735TIP3   OH247695   4.279   3.463   0.982  0.4887 -0.8379  0.7092
 8735TIP3    H147696   4.352   3.479   0.923 -0.5221 -0.5436 -0.5006
 8735TIP3    H247697   4.234   3.387   0.945 -1.3730  0.6295 -0.1466
 8736TIP3   OH247698   0.025   6.645   1.445 -0.8461 -0.1856 -1.0951
 8736TIP3    H147699   0.105   6.668   1.396  0.9952 -2.2346  0.8114
 8736TIP3    H247700  -0.046   6.683   1.393  1.4793  3.9709 -1.5170
 8737TIP3   OH247701   3.232   4.504  14.210 -0.0014  0.2034 -0.3551
 8737TIP3    H147702   3.313   4.490  14.259 -0.1098  0.5061 -0.0883
 8737TIP3    H247703   3.243   4.591  14.171 -1.3569  1.4798  1.9698
 8738TIP3   OH247704   5.590   2.011   4.540 -0.1575  0.3611 -0.2073
 8738TIP3    H147705   5.572   1.974   4.626 -1.2515 -0.1798 -0.6619
 8738TIP3    H247706   5.681   2.041   4.545 -0.3783  0.8199  1.3041
 8739TIP3   OH247707   0.066   5.716   6.605  0.1121 -0.0330  0.3834
 8739TIP3    H147708   0.055   5.641   6.663  1.8778 -0.9979 -0.4927
 8739TIP3    H247709   0.067   5.679   6.517  1.4859  0.9465 -0.0315
 8740TIP3   OH247710   6.183   3.155  14.111 -0.0575  0.8102  0.3313
 8740TIP3    H147711   6.129   3.218  14.160  1.1183  0.5136  2.0570
 8740TIP3    H247712   6.229   3.106  14.179  0.8668 -0.2943 -1.0779
 8741TIP3   OH247713   6.742   1.148   0.782  0.3102 -0.0926  0.3112
 8741TIP3    H147714   6.771   1.143   0.691  0.0412  0.8452  0.1781
 8741TIP3    H247715   6.811   1.197   0.826 -0.6186  1.3423  0.1783
 8742TIP3   OH247716   1.777   1.066  13.318  0.2137  0.0826  0.0799
 8742TIP3    H147717   1.840   1.098  13.383  1.2771 -2.5457  0.3912
 8742TIP3    H247718   1.731   0.995  13.362 -1.5251  0.5834 -0.8815
 8743TIP3   OH247719   3.156   0.581  13.017 -0.4333  0.2535  0.4048
 8743TIP3    H147720   3.164   0.501  12.964 -1.6175 -0.6711  1.5869
 8743TIP3    H247721   3.171   0.652  12.955  0.3406 -0.8662 -0.7361
 8744TIP3   OH247722   3.127   6.741   1.068 -0.6069  0.0108 -0.2316
 8744TIP3    H147723   3.092   6.654   1.086  0.6168  0.0331  2.5716
 8744TIP3    H247724   3.217   6.725   1.039 -0.3193  0.3509  0.4661
 8745TIP3   OH247725   3.999   6.402  17.072  0.5940 -0.1220  0.0861
 8745TIP3    H147726   4.013   6.388  17.166  1.4381 -1.7247 -0.2665
 8745TIP3    H247727   3.904   6.402  17.062  0.3990  2.5838  1.2833
 8746TIP3   OH247728   0.795   2.246  16.863  0.0027 -0.4698 -0.8681
 8746TIP3    H147729   0.812   2.159  16.828 -1.1758 -0.9139 -0.3393
 8746TIP3    H247730   0.881   2.289  16.862  0.7888 -1.9894 -0.0942
 8747TIP3   OH247731   3.378   1.431  16.737  0.0262 -0.0164 -0.2097
 8747TIP3    H147732   3.323   1.402  16.810  0.5043  0.1032  0.2057
 8747TIP3    H247733   3.467   1.425  16.771  0.2574 -0.0292 -0.8125
 8748TIP3   OH247734   6.458   1.617   2.908 -0.1412  0.0024  0.5304
 8748TIP3    H147735   6.526   1.563   2.867  0.2131  0.1316  0.9330
 8748TIP3    H247736   6.496   1.642   2.993 -1.0645 -0.7163  1.1738
 8749TIP3   OH247737   6.758   1.170   0.517  0.1945 -0.4130  0.1809
 8749TIP3    H147738   6.811   1.246   0.494 -1.4729  0.6678 -0.1386
 8749TIP3    H247739   6.747   1.123   0.435  0.7792 -0.7209  0.2765
 8750TIP3   OH247740   4.073   3.769  10.857 -0.1643  0.3809  0.1564
 8750TIP3    H147741   4.038   3.834  10.917  1.0774  2.0357 -0.8621
 8750TIP3    H247742   4.167   3.785  10.855  0.0081 -0.6285 -1.0542
 8751TIP3   OH247743   0.303   6.219   2.959  0.6449 -0.0845  0.0195
 8751TIP3    H147744   0.357   6.147   2.926  1.1480  0.6027 -0.6744
 8751TIP3    H247745   0.236   6.231   2.892  0.0661 -0.4456  0.5285
 8752TIP3   OH247746   5.673   0.277   3.440 -0.6455 -0.3670 -0.4873
 8752TIP3    H147747   5.640   0.354   3.487 -0.9232 -0.7484 -0.0559
 8752TIP3    H247748   5.756   0.306   3.403 -0.5806  0.0398 -0.0290
 8753TIP3   OH247749   0.191   5.958   6.531  0.2070  0.3823 -0.1969
 8753TIP3    H147750   0.226   5.925   6.449  1.2804  0.1904  0.3250
 8753TIP3    H247751   0.147   5.882   6.571  0.4534  0.2460 -0.1852
 8754TIP3   OH247752   3.475   5.098  16.147  0.4706  0.0866 -0.0066
 8754TIP3    H147753   3.555   5.067  16.188  0.4116  0.3700  0.3296
 8754TIP3    H247754   3.405   5.046  16.188  0.5437 -0.6239 -0.7727
 8755TIP3   OH247755   2.667   4.193  15.827  0.2124 -0.0735 -0.0611
 8755TIP3    H147756   2.724   4.117  15.821 -0.0877 -0.3364  0.4290
 8755TIP3    H247757   2.692   4.248  15.752  0.3220 -0.7179 -0.4936
 8756TIP3   OH247758   6.531   1.689   6.274 -0.2755  0.7698  0.3002
 8756TIP3    H147759   6.618   1.676   6.236 -0.3924  0.1650  0.2349
 8756TIP3    H247760   6.535   1.646   6.359 -0.6087  0.4691  0.1653
 8757TIP3   OH247761   5.056   0.607  15.315 -0.8044 -0.1058  0.5116
 8757TIP3    H147762   5.095   0.542  15.257  2.7474  3.3570 -1.1843
 8757TIP3    H247763   4.996   0.656  15.259 -0.9597  0.2364  0.9719
 8758TIP3   OH247764   2.864   2.512  11.846 -0.1048  0.2240  0.0624
 8758TIP3    H147765   2.818   2.514  11.929 -2.4244  0.7891 -1.1799
 8758TIP3    H247766   2.928   2.583  11.852  0.5041 -0.4656  1.7712
 8759TIP3   OH247767   1.315   0.552  11.338  0.6887 -0.2468  0.3404
 8759TIP3    H147768   1.272   0.631  11.305 -0.0619 -0.4203  0.8816
 8759TIP3    H247769   1.404   0.556  11.302  0.5665  0.6902  0.1217
 8760TIP3   OH247770   4.228   4.336   5.703 -0.4794  0.6327  0.5231
 8760TIP3    H147771   4.144   4.362   5.742 -1.0999 -1.1839  0.4414
 8760TIP3    H247772   4.282   4.310   5.778 -1.1541 -1.4129  0.3163
 8761TIP3   OH247773   0.794   4.444  14.830 -0.4848 -0.3343 -0.0439
 8761TIP3    H147774   0.712   4.445  14.880 -0.5140 -2.1381 -0.0169
 8761TIP3    H247775   0.827   4.533  14.837 -3.2279  0.8592 -1.3526
 8762TIP3   OH247776   3.362   3.891  17.076  0.0085 -0.4359 -0.1522
 8762TIP3    H147777   3.396   3.834  17.145  0.1536  1.5168  1.4175
 8762TIP3    H247778   3.276   3.854  17.055 -0.8920  0.0889  2.4725
 8763TIP3   OH247779   2.996   3.078   5.551  0.4220 -0.0498 -0.0686
 8763TIP3    H147780   2.956   3.000   5.511  2.2409  1.4898 -5.2711
 8763TIP3    H247781   3.083   3.048   5.579 -0.1078 -0.6694  0.9273
 8764TIP3   OH247782   1.921   6.334  10.771 -0.7552  0.4909 -0.0485
 8764TIP3    H147783   1.949   6.259  10.823 -0.3807  1.7022  1.5280
 8764TIP3    H247784   1.873   6.295  10.697  1.5560 -1.4155 -0.6098
 8765TIP3   OH247785   1.149   3.209  13.924 -0.0567 -0.0467  0.4444
 8765TIP3    H147786   1.133   3.257  14.005  2.0388 -0.5651  1.1897
 8765TIP3    H247787   1.213   3.141  13.948  0.4868 -0.2949 -1.5963
 8766TIP3   OH247788   3.673   2.292  14.407  0.6461 -0.0230  0.4007
 8766TIP3    H147789   3.757   2.329  14.378  1.0609  0.0610  1.7067
 8766TIP3    H247790   3.622   2.368  14.434  0.6539 -0.1946  0.9000
 8767TIP3   OH247791   2.573   1.053  14.814  0.2198  0.0492  0.6996
 8767TIP3    H147792   2.539   0.989  14.751  0.1317  0.2497  0.5439
 8767TIP3    H247793   2.665   1.030  14.824  0.0865 -0.3750  0.9759
 8768TIP3   OH247794   4.631   6.399  14.266  0.2532 -0.0300 -0.1823
 8768TIP3    H147795   4.653   6.393  14.359 -1.7875  1.9231  0.4951
 8768TIP3    H247796   4.678   6.476  14.235 -0.3576  0.2773 -0.3562
 8769TIP3   OH247797   3.168   0.069  13.913 -0.8984  0.6991 -0.0986
 8769TIP3    H147798   3.227   0.048  13.986 -0.2081  1.2557 -0.4861
 8769TIP3    H247799   3.172   0.165  13.907  0.1946  0.5538 -1.8050
 8770TIP3   OH247800   4.226   5.451   3.883 -0.2923 -0.1117 -0.1866
 8770TIP3    H147801   4.147   5.484   3.926  0.8668 -0.5914  2.3996
 8770TIP3    H247802   4.245   5.517   3.816 -0.8774  1.8992  1.5427
 8771TIP3   OH247803   2.913   6.740   1.656  0.1362  0.5494  0.2494
 8771TIP3    H147804   2.874   6.775   1.736 -1.3929  1.1835 -0.7614
 8771TIP3    H247805   2.997   6.785   1.650  0.1884  0.6356  1.3965
 8772TIP3   OH247806   2.084   4.060   3.907 -0.0870  0.1027  0.2164
 8772TIP3    H147807   2.018   4.038   3.841  0.3962 -0.3794 -0.1100
 8772TIP3    H247808   2.044   4.131   3.958 -1.6726 -1.5467  1.3081
 8773TIP3   OH247809   0.785   1.293  10.614  0.1199 -0.5062 -0.1135
 8773TIP3    H147810   0.860   1.342  10.580  0.1039 -1.0546 -0.9537
 8773TIP3    H247811   0.709   1.342  10.582  0.0969 -1.3978 -1.4530
 8774TIP3   OH247812   0.437   0.136  12.091 -0.2123 -0.0203 -0.7434
 8774TIP3    H147813   0.379   0.148  12.016 -0.3057 -0.3872 -0.7320
 8774TIP3    H247814   0.524   0.124  12.052 -0.4001 -1.1216 -0.8400
 8775TIP3   OH247815   6.563   4.752   5.940  0.1926  0.2034  0.4530
 8775TIP3    H147816   6.538   4.844   5.948  0.6672  0.4535 -0.8860
 8775TIP3    H247817   6.541   4.728   5.850  0.4924 -0.8665  0.6541
 8776TIP3   OH247818   4.629   0.909   1.735 -0.3127  0.0628  0.0296
 8776TIP3    H147819   4.642   0.951   1.650  0.2237  0.3969  0.2792
 8776TIP3    H247820   4.553   0.954   1.772  0.6105  1.2190  0.5473
 8777TIP3   OH247821   1.505   6.234  13.806 -0.1844  0.0399 -0.9428
 8777TIP3    H147822   1.478   6.171  13.874  1.0129  0.5979  0.0796
 8777TIP3    H247823   1.491   6.320  13.846 -0.7279  0.4080 -1.9104
 8778TIP3   OH247824   0.669   4.509   0.167  0.0941  0.0662  0.1374
 8778TIP3    H147825   0.749   4.476   0.206  0.1489  0.0723  0.0300
 8778TIP3    H247826   0.620   4.546   0.241  0.3823  0.4544  0.1350
 8779TIP3   OH247827   2.182   1.760  12.123 -0.1019 -0.0720  0.3797
 8779TIP3    H147828   2.237   1.834  12.096 -3.7543  1.5441 -3.1776
 8779TIP3    H247829   2.196   1.694  12.055 -1.1343 -0.3793  0.4598
 8780TIP3   OH247830   2.655   0.881  13.591 -0.1359  0.3032  0.2516
 8780TIP3    H147831   2.671   0.856  13.682  0.6556 -0.2918 -0.0462
 8780TIP3    H247832   2.654   0.798  13.543 -2.2928  0.4717 -0.0340
 8781TIP3   OH247833   1.159   2.640  15.912  0.0176  0.0706  0.0141
 8781TIP3    H147834   1.254   2.651  15.907  0.2562 -1.2373  1.3463
 8781TIP3    H247835   1.132   2.700  15.982  0.0987 -0.7988  0.8037
 8782TIP3   OH247836   2.039   6.197  13.540  0.3288 -0.5528 -0.3289
 8782TIP3    H147837   2.119   6.246  13.559 -0.4612  0.1524  1.2948
 8782TIP3    H247838   2.011   6.229  13.455  0.7022  0.6366 -0.0108
 8783TIP3   OH247839   3.745   0.336   4.835 -1.0170  0.6007  0.1912
 8783TIP3    H147840   3.736   0.431   4.842 -1.9672  0.4178  1.7198
 8783TIP3    H247841   3.660   0.307   4.801 -0.6152  0.3153 -0.5867
 8784TIP3   OH247842   0.856   0.059  15.161 -0.5541 -0.6496 -0.4119
 8784TIP3    H147843   0.809   0.060  15.077  0.0147  0.3734 -0.7291
 8784TIP3    H247844   0.945   0.034  15.139  0.0610  1.4183 -0.3818
 8785TIP3   OH247845   3.686   3.232  14.828  0.0412  0.3479 -0.2289
 8785TIP3    H147846   3.699   3.212  14.735 -1.0657  3.1696 -1.0425
 8785TIP3    H247847   3.757   3.291  14.850 -0.6602  1.0196  0.2616
 8786TIP3   OH247848   3.519   1.771  13.127 -0.5222 -0.8956  0.3374
 8786TIP3    H147849   3.435   1.802  13.092 -0.1477 -0.3076 -0.0312
 8786TIP3    H247850   3.555   1.715  13.058 -1.4199 -2.5819  1.1837
 8787TIP3   OH247851   4.265   0.483   1.700  0.1692  0.0550 -0.0934
 8787TIP3    H147852   4.211   0.555   1.669 -0.5235 -0.6798 -0.6366
 8787TIP3    H247853   4.203   0.421   1.739  0.6649 -0.5948 -0.3244
 8788TIP3   OH247854   3.847   1.785   3.978  0.4137  0.0866  0.1908
 8788TIP3    H147855   3.769   1.730   3.979  1.5309 -1.5218  0.7956
 8788TIP3    H247856   3.895   1.758   4.057  1.0131  1.8831  0.4547
 8789TIP3   OH247857   6.810   1.703  16.204  0.4978  0.3534  0.2912
 8789TIP3    H147858   6.761   1.768  16.155  0.5870 -0.2069 -0.5545
 8789TIP3    H247859   6.869   1.754  16.260 -0.7742  1.0240  1.0521
 8790TIP3   OH247860   3.459   3.178   3.459  0.1454  0.1790  0.4289
 8790TIP3    H147861   3.495   3.125   3.530 -0.2485 -0.2467  0.3159
 8790TIP3    H247862   3.405   3.244   3.502  1.2792  0.9877  0.6122
 8791TIP3   OH247863   3.183   2.397   3.077  0.1873 -0.0847 -0.0336
 8791TIP3    H147864   3.152   2.307   3.071  0.6590 -0.3999  1.7507
 8791TIP3    H247865   3.273   2.390   3.109  0.6034  0.9807 -0.9280
 8792TIP3   OH247866   4.895   6.304   3.360 -0.3168  0.2678 -0.0155
 8792TIP3    H147867   4.974   6.358   3.365 -0.7700  0.8056  1.2889
 8792TIP3    H247868   4.866   6.313   3.269  0.5865  0.8290 -0.2506
 8793TIP3   OH247869   6.241   4.234  12.285  0.1879 -0.5007  0.3415
 8793TIP3    H147870   6.264   4.324  12.308 -1.3792  0.0329 -0.1210
 8793TIP3    H247871   6.237   4.188  12.369 -1.9918  0.5904  0.8630
 8794TIP3   OH247872   4.367   3.850   0.811 -0.1784  0.2115 -0.3714
 8794TIP3    H147873   4.298   3.879   0.751  0.4938  0.4932 -1.0054
 8794TIP3    H247874   4.408   3.776   0.766  0.6763  0.7603 -0.5008
 8795TIP3   OH247875   2.679   2.163  11.208  0.0103 -0.4071 -0.3670
 8795TIP3    H147876   2.673   2.196  11.119  0.1427 -2.0460 -1.0054
 8795TIP3    H247877   2.753   2.210  11.247 -0.8789  1.2636 -0.6889
 8796TIP3   OH247878   4.194   5.116   0.005  0.4000  0.7669 -0.4357
 8796TIP3    H147879   4.246   5.035   0.005  0.8565  1.0534 -0.0525
 8796TIP3    H247880   4.239   5.173  -0.057  1.0062  1.3010  0.4752
 8797TIP3   OH247881   0.527   4.557  13.651 -0.5489 -0.5130  0.3702
 8797TIP3    H147882   0.501   4.477  13.696 -0.9804 -0.4773  0.1864
 8797TIP3    H247883   0.619   4.543  13.630 -1.2946 -2.0796 -2.0260
 8798TIP3   OH247884   4.197   2.528   3.955 -0.8002  0.1882  0.1772
 8798TIP3    H147885   4.289   2.534   3.979 -0.4135  0.0147 -1.1940
 8798TIP3    H247886   4.175   2.436   3.969 -0.1659 -0.2374 -1.5316
 8799TIP3   OH247887   3.142   5.690   5.499  0.3096 -0.3390  0.3128
 8799TIP3    H147888   3.068   5.733   5.542  0.3891  0.8455 -0.6925
 8799TIP3    H247889   3.117   5.598   5.494 -0.2065 -0.2960  1.8117
 8800TIP3   OH247890   1.861   3.515  10.421 -0.1187  0.2897  0.5091
 8800TIP3    H147891   1.802   3.459  10.371 -0.5479  1.7042 -0.6166
 8800TIP3    H247892   1.817   3.600  10.424  2.2771  1.6581 -1.1756
 8801TIP3   OH247893   3.681   6.655  14.101  0.1176  0.4823  0.4687
 8801TIP3    H147894   3.641   6.740  14.084 -2.0338 -0.1595  1.9437
 8801TIP3    H247895   3.620   6.592  14.062 -0.3160 -0.5346  2.7004
 8802TIP3   OH247896   2.456   0.172  11.235  0.0641  0.2418 -0.0091
 8802TIP3    H147897   2.381   0.122  11.267  2.1876 -1.8602  1.8021
 8802TIP3    H247898   2.432   0.196  11.145 -1.7464 -2.4958 -0.3013
 8803TIP3   OH247899   3.759   3.520  10.202 -0.2652  0.0555 -0.2474
 8803TIP3    H147900   3.720   3.603  10.229  0.0303  0.6378 -1.5908
 8803TIP3    H247901   3.847   3.521  10.241 -1.5609 -1.3409  2.9365
 8804TIP3   OH247902   4.948   6.439   0.781  0.3099  0.5559 -0.2764
 8804TIP3    H147903   4.972   6.352   0.814 -0.8842  1.2812  2.5860
 8804TIP3    H247904   5.017   6.497   0.813  0.7491  0.8009 -1.6221
 8805TIP3   OH247905   3.274   2.584   4.292  0.0264  0.1155 -0.3175
 8805TIP3    H147906   3.277   2.500   4.338 -0.9888  0.8669  1.1702
 8805TIP3    H247907   3.366   2.611   4.283  0.2429 -0.1277  1.1370
 8806TIP3   OH247908   5.119   3.718   5.330  0.3976  0.3320 -0.0849
 8806TIP3    H147909   5.171   3.677   5.261 -2.2678 -0.3727 -1.7437
 8806TIP3    H247910   5.091   3.645   5.385  0.9344  0.6919  0.6856
 8807TIP3   OH247911   4.452   1.664   1.388  0.1506 -0.1921 -0.3892
 8807TIP3    H147912   4.429   1.571   1.379  1.4474 -0.4372 -1.3264
 8807TIP3    H247913   4.378   1.711   1.348  0.3695 -0.8945 -1.6439
 8808TIP3   OH247914   5.258   2.586  13.012  0.1200  0.5436  0.1043
 8808TIP3    H147915   5.276   2.680  13.014  0.3505  0.4678  2.4317
 8808TIP3    H247916   5.213   2.572  12.929  1.2165  2.5003 -0.8600
 8809TIP3   OH247917   1.574   5.287  16.014  0.0963 -0.0764 -0.4279
 8809TIP3    H147918   1.638   5.346  15.976  1.4320 -1.6540 -0.6580
 8809TIP3    H247919   1.574   5.308  16.108  1.8803 -0.9316 -0.2244
 8810TIP3   OH247920   1.125   6.322   4.918 -0.2398 -0.4690  0.1537
 8810TIP3    H147921   1.188   6.291   4.983 -2.2694 -1.7283  1.6077
 8810TIP3    H247922   1.095   6.406   4.952 -0.4697 -0.5990  0.2788
 8811TIP3   OH247923   2.593   2.238   1.520  0.6232  0.0907 -0.3056
 8811TIP3    H147924   2.608   2.293   1.443  0.2870  1.8733  0.8553
 8811TIP3    H247925   2.499   2.220   1.519  0.4070  1.1070  0.2973
 8812TIP3   OH247926   4.344   6.344   0.578 -0.1608 -0.1360 -0.0989
 8812TIP3    H147927   4.300   6.378   0.656 -1.0404 -3.1289  0.7696
 8812TIP3    H247928   4.431   6.384   0.580 -0.7180  1.0472  1.5309
 8813TIP3   OH247929   2.779   6.220   5.239  0.0258  0.1983 -0.2004
 8813TIP3    H147930   2.720   6.190   5.169 -0.6084  0.7694  0.0815
 8813TIP3    H247931   2.723   6.271   5.297 -0.1371 -2.8423  2.4258
 8814TIP3   OH247932   0.160   2.250   5.014  0.1136  0.2160 -0.0870
 8814TIP3    H147933   0.159   2.192   5.090  1.8730 -0.4416 -0.5167
 8814TIP3    H247934   0.174   2.338   5.050  2.4323 -0.2716  0.2940
 8815TIP3   OH247935   3.058   5.533   3.835  0.1917 -0.3401  0.0750
 8815TIP3    H147936   3.125   5.549   3.769  0.4853 -3.4732 -0.4395
 8815TIP3    H247937   2.987   5.489   3.789 -2.6288  3.5011  0.4714
 8816TIP3   OH247938   6.758   0.450  12.269 -0.0476  0.2739 -0.6834
 8816TIP3    H147939   6.759   0.436  12.364 -0.5762  0.2554 -0.6777
 8816TIP3    H247940   6.838   0.500  12.252  0.8416 -1.0421 -0.4384
 8817TIP3   OH247941   5.039   1.388   4.736 -0.1448 -0.4202  0.2694
 8817TIP3    H147942   4.999   1.470   4.707  1.3941  0.2219 -0.0976
 8817TIP3    H247943   4.968   1.324   4.733 -0.6675  0.2244 -2.3249
 8818TIP3   OH247944   1.718   5.789   5.165  0.1903 -0.4014 -0.1175
 8818TIP3    H147945   1.813   5.777   5.166  0.3224  0.6139 -0.7019
 8818TIP3    H247946   1.683   5.700   5.177  1.2066 -0.4962  2.3581
 8819TIP3   OH247947   3.126   0.163  16.038  0.0420 -0.4964  0.4157
 8819TIP3    H147948   3.107   0.072  16.063 -0.0798 -1.0476 -1.5935
 8819TIP3    H247949   3.065   0.215  16.091 -2.0687 -1.8016 -0.6309
 8820TIP3   OH247950   5.110   6.580  17.043 -0.0864  0.2664  0.2532
 8820TIP3    H147951   5.127   6.669  17.073 -1.5986  1.2339 -1.6820
 8820TIP3    H247952   5.015   6.570  17.046  0.1669 -2.0600  2.5384
 8821TIP3   OH247953   3.621   4.941   3.966 -0.0611  0.0116  0.6013
 8821TIP3    H147954   3.621   4.845   3.970  0.3886 -0.0173  0.0116
 8821TIP3    H247955   3.705   4.967   4.002 -0.6910  0.2498  1.9270
 8822TIP3   OH247956   2.015   2.155  12.410 -0.0796  0.5262  0.1760
 8822TIP3    H147957   2.044   2.172  12.320 -0.1568  0.1192  0.0771
 8822TIP3    H247958   1.994   2.242  12.444 -0.5755  0.6269 -0.3778
 8823TIP3   OH247959   1.153   3.716  16.732  0.6832 -0.1017  0.0222
 8823TIP3    H147960   1.082   3.761  16.777  1.3968  0.4472  0.6130
 8823TIP3    H247961   1.172   3.772  16.656  0.9778  0.1484  0.2761
 8824TIP3   OH247962   6.475   4.872  16.986 -0.7079  0.1671 -0.3154
 8824TIP3    H147963   6.462   4.790  17.033  0.5241  1.4493  2.3759
 8824TIP3    H247964   6.461   4.850  16.894  0.4619 -3.2350  0.2671
 8825TIP3   OH247965   2.014   3.110   4.900 -0.4859 -0.3230 -0.5248
 8825TIP3    H147966   1.920   3.100   4.887 -0.4755  1.2385 -1.9581
 8825TIP3    H247967   2.039   3.183   4.844  1.1094  1.1222  1.9389
 8826TIP3   OH247968   4.304   6.080   3.145  0.0586  0.1874  0.0342
 8826TIP3    H147969   4.355   6.089   3.065 -2.5264  0.0332 -1.6858
 8826TIP3    H247970   4.323   5.991   3.177  2.6406  0.9618  0.7378
 8827TIP3   OH247971   5.320   3.028   1.859  0.0826  0.3602 -0.0031
 8827TIP3    H147972   5.234   3.027   1.901 -0.2453  0.7581 -0.6538
 8827TIP3    H247973   5.350   3.119   1.867  0.4802  0.2071  0.2873
 8828TIP3   OH247974   5.434   5.369  11.589  0.4607  0.1144 -0.0434
 8828TIP3    H147975   5.519   5.377  11.546 -0.0139 -0.4386 -1.1201
 8828TIP3    H247976   5.433   5.280  11.625  0.7844  0.5152  0.9612
 8829TIP3   OH247977   5.150   6.326   0.019  0.3081 -0.1440  0.1031
 8829TIP3    H147978   5.054   6.328   0.023  0.2531 -1.6843  0.1681
 8829TIP3    H247979   5.178   6.347   0.108  0.0343  0.6344  0.0040
 8830TIP3   OH247980   4.741   3.267   5.331 -0.2029  0.0250  0.2756
 8830TIP3    H147981   4.803   3.269   5.404 -0.7000  3.1705  0.6484
 8830TIP3    H247982   4.655   3.266   5.373 -0.4672 -0.3605 -0.2715
 8831TIP3   OH247983   4.158   5.892  16.470  0.6064  0.1834  0.6473
 8831TIP3    H147984   4.207   5.974  16.474  3.4090 -1.4991  2.5699
 8831TIP3    H247985   4.098   5.896  16.545  0.3593  0.7160  0.4200
 8832TIP3   OH247986   0.106   0.016  14.535  0.0364  0.0127  0.1920
 8832TIP3    H147987   0.063  -0.039  14.469 -0.4247  0.7884 -0.1501
 8832TIP3    H247988   0.132  -0.046  14.603  0.7767 -0.8336 -0.8423
 8833TIP3   OH247989   6.449   6.540  11.404 -0.0033  0.0054  1.2398
 8833TIP3    H147990   6.466   6.626  11.442 -1.9839  1.1791 -0.4115
 8833TIP3    H247991   6.377   6.505  11.455  1.4147 -1.1099  2.5135
 8834TIP3   OH247992   0.927   5.335  16.938 -0.1752  0.3082  0.3232
 8834TIP3    H147993   0.835   5.325  16.916 -0.2782  0.6599  0.5892
 8834TIP3    H247994   0.941   5.430  16.941  0.0442  0.2608  0.8817
 8835TIP3   OH247995   3.968   5.360   5.648 -0.4794 -0.4046  0.8478
 8835TIP3    H147996   4.041   5.421   5.655 -0.2359 -0.8395  2.0929
 8835TIP3    H247997   3.937   5.370   5.558  0.3085  0.6945  0.6989
 8836TIP3   OH247998   2.144   6.137   5.509  0.2376  0.2336  0.3586
 8836TIP3    H147999   2.178   6.116   5.596  1.8384  0.5888 -0.1614
 8836TIP3    H248000   2.202   6.090   5.449 -0.1150  0.9599 -0.5614
 8837TIP3   OH248001   5.634   6.701  13.167 -0.3476 -0.0026 -0.1810
 8837TIP3    H148002   5.723   6.682  13.198  0.0739  0.4134 -1.1198
 8837TIP3    H248003   5.632   6.668  13.078 -1.5451 -1.1508  0.2476
 8838TIP3   OH248004   1.745   1.512  17.114 -0.0313 -0.0022  0.3069
 8838TIP3    H148005   1.768   1.426  17.078 -1.0773  0.2637 -1.0429
 8838TIP3    H248006   1.655   1.502  17.144  0.3025  0.2397  1.3780
 8839TIP3   OH248007   1.186   4.635  17.086 -0.1594  0.5949 -0.3492
 8839TIP3    H148008   1.235   4.640  17.168  0.9586 -0.9158 -0.8948
 8839TIP3    H248009   1.253   4.646  17.018 -0.9056  0.7066 -1.0690
 8840TIP3   OH248010   1.086   5.397   3.009 -0.0620 -0.5587  0.1358
 8840TIP3    H148011   1.181   5.403   2.999  0.1329 -0.7130  1.7196
 8840TIP3    H248012   1.058   5.339   2.939  1.2766 -2.2152  0.9382
 8841TIP3   OH248013   5.365   1.462   4.396  0.4620 -0.0412  0.0379
 8841TIP3    H148014   5.351   1.497   4.308 -0.3537  1.0361  0.5940
 8841TIP3    H248015   5.301   1.391   4.404 -1.0945  1.4033  0.6196
 8842TIP3   OH248016   1.479   5.430   4.333  1.1605  0.0133 -0.1020
 8842TIP3    H148017   1.506   5.460   4.246  0.8699 -2.4881 -1.1079
 8842TIP3    H248018   1.408   5.368   4.316  0.0081  0.7093  2.0397
 8843TIP3   OH248019   5.824   5.727   4.759  0.4080 -0.1032  0.2798
 8843TIP3    H148020   5.802   5.820   4.753  0.7405 -0.0256  0.2323
 8843TIP3    H248021   5.884   5.712   4.686  0.5716 -0.2929  0.4517
 8844TIP3   OH248022   4.399   6.616  15.077  0.1044  0.1041  0.1991
 8844TIP3    H148023   4.483   6.638  15.036  0.4104 -4.3964 -1.8985
 8844TIP3    H248024   4.423   6.583  15.163  0.2052  1.4215  0.6901
 8845TIP3   OH248025   2.333   3.609  13.566  0.2665  0.0405 -0.6577
 8845TIP3    H148026   2.240   3.600  13.545 -0.6361  3.7192  1.2634
 8845TIP3    H248027   2.364   3.677  13.506  0.9673  0.9537  0.7357
 8846TIP3   OH248028   1.050   2.296   4.227  0.0244  0.3560 -0.7616
 8846TIP3    H148029   1.052   2.387   4.255  0.2535 -0.1078  0.7735
 8846TIP3    H248030   0.957   2.272   4.229  0.0382  0.3338 -0.4565
 8847TIP3   OH248031   5.939   6.471   4.579  0.3179  0.4736 -0.0984
 8847TIP3    H148032   5.915   6.415   4.652 -0.2394  0.8161 -0.0127
 8847TIP3    H248033   6.010   6.526   4.612  0.0100  0.6846  0.2113
 8848TIP3   OH248034   4.442   4.935   2.623  0.1358 -0.3088  0.3262
 8848TIP3    H148035   4.352   4.968   2.629 -0.0127 -0.5829 -0.3337
 8848TIP3    H248036   4.448   4.869   2.692 -0.2604 -0.4922  0.1889
 8849TIP3   OH248037   6.002   6.452   5.814  0.3732 -0.2787  0.1089
 8849TIP3    H148038   5.953   6.372   5.798 -0.4095 -0.0982  1.6233
 8849TIP3    H248039   5.958   6.518   5.760 -1.3340 -0.0123  1.8227
 8850TIP3   OH248040   6.331   0.105   3.909 -0.2151 -0.3905 -0.1159
 8850TIP3    H148041   6.395   0.038   3.883  0.6453 -0.0047  0.9698
 8850TIP3    H248042   6.358   0.132   3.997 -2.5552 -1.0280  0.8425
 8851TIP3   OH248043   0.628   2.713  11.231 -0.0012 -0.6031 -0.0532
 8851TIP3    H148044   0.694   2.728  11.299 -1.2818  0.5817  0.9805
 8851TIP3    H248045   0.645   2.624  11.200  1.1718 -0.8384  1.2103
 8852TIP3   OH248046   4.370   2.982   1.247 -0.3922 -0.0157 -0.3737
 8852TIP3    H148047   4.297   3.003   1.306  0.9004 -1.5921  1.8971
 8852TIP3    H248048   4.334   2.992   1.159 -2.5252  1.9997  0.6588
 8853TIP3   OH248049   2.603   5.964   2.953 -0.3490 -0.1848  0.3917
 8853TIP3    H148050   2.629   6.055   2.966 -1.7497  0.3030 -0.1262
 8853TIP3    H248051   2.509   5.968   2.936 -0.6641 -1.8326  1.5540
 8854TIP3   OH248052   6.515   4.317  16.602 -0.4530  0.0761 -0.0223
 8854TIP3    H148053   6.459   4.323  16.679 -0.5120 -2.1197  0.1401
 8854TIP3    H248054   6.507   4.402  16.559 -2.6630  0.3409  0.8542
 8855TIP3   OH248055   0.285   0.963   5.712  0.4385 -0.6600 -0.5571
 8855TIP3    H148056   0.239   1.003   5.786 -2.1403 -1.3724 -1.7263
 8855TIP3    H248057   0.275   1.025   5.640  0.6478 -1.1852 -1.0484
 8856TIP3   OH248058   6.113   3.097   2.883  0.2014  0.2998 -0.2483
 8856TIP3    H148059   6.160   3.015   2.873 -1.3264 -0.8008  1.4666
 8856TIP3    H248060   6.127   3.123   2.974 -0.2940  1.3365 -0.4570
 8857TIP3   OH248061   1.223   1.167   1.420  0.2427 -0.3198  0.6522
 8857TIP3    H148062   1.135   1.201   1.434  0.4288 -0.5042  2.3711
 8857TIP3    H248063   1.271   1.191   1.499  3.2569  4.3511 -2.3274
 8858TIP3   OH248064   6.737   3.623  15.740 -0.1209  0.5545 -0.2600
 8858TIP3    H148065   6.809   3.606  15.679 -0.7746 -0.7138 -0.6885
 8858TIP3    H248066   6.739   3.549  15.801 -0.7977  0.7316 -0.0215
 8859TIP3   OH248067   4.981   5.897   1.947 -0.1616 -0.3412  0.4837
 8859TIP3    H148068   4.995   5.916   1.855  1.0943 -1.5874  0.3810
 8859TIP3    H248069   4.893   5.929   1.966  0.0397  1.0443 -0.8226
 8860TIP3   OH248070   3.855   1.749  16.031  0.3363  0.1126  0.0068
 8860TIP3    H148071   3.901   1.795  16.101  1.3298  1.6136 -1.5808
 8860TIP3    H248072   3.783   1.808  16.007 -0.1303 -0.4923 -0.0793
 8861TIP3   OH248073   3.757   2.313   1.718 -0.6154  0.2177 -0.5752
 8861TIP3    H148074   3.799   2.248   1.774  0.4657  1.5450  0.1799
 8861TIP3    H248075   3.828   2.354   1.669 -1.3021  0.6773 -1.2158
 8862TIP3   OH248076   4.393   6.672  14.796  0.2282 -0.3826  0.1248
 8862TIP3    H148077   4.428   6.757  14.824  0.1370 -0.7107  1.2623
 8862TIP3    H248078   4.410   6.669  14.702  2.6497 -0.2234  0.5199
 8863TIP3   OH248079   0.163   2.710   0.381  0.2182 -0.2867 -0.4830
 8863TIP3    H148080   0.188   2.777   0.317  1.3682  0.1583  0.4185
 8863TIP3    H248081   0.074   2.734   0.407  0.9686  1.4649  0.5485
 8864TIP3   OH248082   5.972   3.137   3.263  0.3349  0.5857  0.4920
 8864TIP3    H148083   5.952   3.177   3.178  0.0182  3.6278  1.9634
 8864TIP3    H248084   5.889   3.099   3.292 -0.0794  1.4243  0.4208
 8865TIP3   OH248085   2.801   3.118  11.772 -0.4306  0.0881  0.5993
 8865TIP3    H148086   2.781   3.209  11.750 -0.2021 -0.1058 -0.4343
 8865TIP3    H248087   2.755   3.066  11.706  2.1549 -0.4094 -0.8879
 8866TIP3   OH248088   0.625   4.811   2.498 -0.3797  0.4530 -0.0101
 8866TIP3    H148089   0.685   4.740   2.523 -0.2815  0.1645 -1.0198
 8866TIP3    H248090   0.675   4.864   2.436 -0.3281  1.6246  1.0167
 8867TIP3   OH248091   6.491   3.641   3.151  0.0209 -0.1825 -0.4265
 8867TIP3    H148092   6.464   3.733   3.149  0.1699 -0.1373 -0.3877
 8867TIP3    H248093   6.553   3.636   3.224  0.3121 -0.2291 -0.6791
 8868TIP3   OH248094   5.998   5.049   4.078  0.9861  0.1394 -0.3499
 8868TIP3    H148095   6.072   5.037   4.019  1.5359 -1.3721  0.6248
 8868TIP3    H248096   5.980   4.962   4.113 -0.5498  0.6825  0.2740
 8869TIP3   OH248097   6.432   3.678  15.392  0.3534  0.0150 -0.2956
 8869TIP3    H148098   6.459   3.611  15.329  0.4080 -1.2256  1.0220
 8869TIP3    H248099   6.512   3.700  15.440 -0.4764 -2.1887  2.2300
 8870TIP3   OH248100   1.236   6.699   3.303  0.2079 -0.2445 -0.8730
 8870TIP3    H148101   1.150   6.658   3.316  0.4104 -0.0994  1.0918
 8870TIP3    H248102   1.284   6.680   3.384  1.7503  0.3723 -1.6220
 8871TIP3   OH248103   1.698   3.947   5.639  0.0525  0.2245  0.4121
 8871TIP3    H148104   1.704   3.954   5.735  1.2802  1.6990  0.2229
 8871TIP3    H248105   1.771   3.998   5.606  0.6876 -1.7136 -1.3042
 8872TIP3   OH248106   1.865   5.942   6.035 -0.0782  0.2681  0.2729
 8872TIP3    H148107   1.849   5.849   6.054 -0.1339  0.2987  0.3834
 8872TIP3    H248108   1.811   5.988   6.100 -0.5341  0.3772 -0.1846
 8873TIP3   OH248109   0.575   0.992  12.818  0.2881  0.1180  0.1420
 8873TIP3    H148110   0.586   0.915  12.872  2.8284  0.7669  0.6098
 8873TIP3    H248111   0.615   1.063  12.869  0.1058  1.2833 -1.3051
 8874TIP3   OH248112   1.131   3.156  15.906  0.1643 -0.6081  0.0898
 8874TIP3    H148113   1.223   3.137  15.920  0.3282  0.6752  0.8040
 8874TIP3    H248114   1.117   3.141  15.813  1.3724  0.3734 -0.2527
 8875TIP3   OH248115   2.726   5.603  11.913  0.4254  0.0638 -0.3251
 8875TIP3    H148116   2.741   5.634  11.824 -1.3897  0.3034 -0.5635
 8875TIP3    H248117   2.660   5.534  11.905 -1.1366  1.3492  0.9857
 8876TIP3   OH248118   2.535   4.856  14.244  0.0655  0.1815  0.6985
 8876TIP3    H148119   2.582   4.821  14.168  0.3080 -1.9902  1.8182
 8876TIP3    H248120   2.585   4.933  14.270  0.0771  0.8504 -1.2287
 8877TIP3   OH248121   1.398   4.273  13.296  0.5383 -0.2054 -0.5632
 8877TIP3    H148122   1.308   4.277  13.264  0.3302 -0.8523 -0.0765
 8877TIP3    H248123   1.442   4.347  13.254 -0.3028  0.3069 -0.5526
 8878TIP3   OH248124   1.554   0.327   3.042 -0.2426 -0.2471  0.1814
 8878TIP3    H148125   1.542   0.269   3.117  1.7722  0.6746  1.2493
 8878TIP3    H248126   1.639   0.302   3.005 -0.1236  0.8818 -0.3528
 8879TIP3   OH248127   5.572   4.407  12.149 -0.2471 -0.0225 -0.0642
 8879TIP3    H148128   5.556   4.496  12.178  0.5811 -0.4507  1.8068
 8879TIP3    H248129   5.518   4.396  12.071 -2.8522  1.0698  1.5287
 8880TIP3   OH248130   1.420   0.086  13.935 -0.2769 -0.2411  0.6823
 8880TIP3    H148131   1.421   0.182  13.938  0.8689 -0.1546 -1.6703
 8880TIP3    H248132   1.437   0.059  14.025  0.6365  1.7735  1.1354
 8881TIP3   OH248133   2.859   4.003  17.278 -0.2822  0.1959 -0.2532
 8881TIP3    H148134   2.824   4.050  17.202  0.0479 -1.4955 -1.4664
 8881TIP3    H248135   2.954   4.001  17.264 -0.0219  1.3598  1.0910
 8882TIP3   OH248136   2.032   5.331   4.216  0.4051  0.0447  0.0457
 8882TIP3    H148137   1.963   5.398   4.220 -0.0566 -0.3616 -0.9172
 8882TIP3    H248138   2.112   5.379   4.235  0.0964  0.9109 -0.7948
 8883TIP3   OH248139   3.591   0.391   3.092  0.3117 -1.0873 -0.0884
 8883TIP3    H148140   3.520   0.336   3.126 -0.9881  0.6221  0.0444
 8883TIP3    H248141   3.624   0.437   3.169  0.0626 -0.2039 -0.5113
 8884TIP3   OH248142   6.025   1.780  12.954  0.1065  0.4675  0.2700
 8884TIP3    H148143   6.076   1.699  12.958  0.1092  0.5049  1.3518
 8884TIP3    H248144   6.033   1.810  12.864  0.4150 -0.5459 -0.0419
 8885TIP3   OH248145   5.221   4.325   1.400 -0.2625  0.2946  0.3103
 8885TIP3    H148146   5.167   4.384   1.453  0.2080  1.1086 -0.1044
 8885TIP3    H248147   5.254   4.261   1.462 -1.2460  0.1264  0.6672
 8886TIP3   OH248148   3.324   6.085  17.198 -0.8433 -0.1286  0.0868
 8886TIP3    H148149   3.303   6.038  17.278 -0.4582  1.4039  1.1036
 8886TIP3    H248150   3.412   6.054  17.175 -0.0200  1.0887  1.5154
 8887TIP3   OH248151   2.753   3.511   4.566 -0.2425  0.0408  1.3170
 8887TIP3    H148152   2.709   3.430   4.542  1.7310 -0.6126 -0.2734
 8887TIP3    H248153   2.785   3.547   4.483 -1.4339  2.6747  1.9483
 8888TIP3   OH248154   5.939   0.122  16.950  0.1066  0.0825  0.4517
 8888TIP3    H148155   5.905   0.199  16.904  0.2457 -1.1553 -1.7578
 8888TIP3    H248156   6.020   0.153  16.991  0.0643  1.1662 -0.2594
 8889TIP3   OH248157   4.029   1.863  13.988  0.1115 -0.3182 -0.0864
 8889TIP3    H148158   3.996   1.815  14.064  0.7423 -0.4661  0.1020
 8889TIP3    H248159   4.100   1.808  13.954 -0.8801 -0.7783 -1.4382
 8890TIP3   OH248160   6.622   3.857   1.334  0.1258  0.3261 -0.1300
 8890TIP3    H148161   6.567   3.856   1.413 -1.3213  2.5078 -1.0662
 8890TIP3    H248162   6.608   3.771   1.294 -0.9588  0.0891  0.7349
 8891TIP3   OH248163   5.056   5.729   4.444  1.0035 -0.3918  0.2410
 8891TIP3    H148164   5.123   5.768   4.501  0.1054 -0.5845  1.4462
 8891TIP3    H248165   4.991   5.798   4.431  0.7705 -0.6258  0.1521
 8892TIP3   OH248166   1.438   1.266   5.202 -0.0604  0.1757 -0.0501
 8892TIP3    H148167   1.435   1.239   5.294  0.8618 -0.7696 -0.2880
 8892TIP3    H248168   1.457   1.359   5.205  0.0318  0.1351  0.7199
 8893TIP3   OH248169   5.027   3.543  12.238 -0.2969 -0.3724  0.4762
 8893TIP3    H148170   5.114   3.524  12.204 -0.0669 -0.9232  1.3435
 8893TIP3    H248171   5.041   3.609  12.306 -0.6000 -0.1988  0.3733
 8894TIP3   OH248172   3.568   3.945   1.513  0.1809  0.1227 -0.3448
 8894TIP3    H148173   3.552   3.987   1.598  1.2590 -0.8553  0.3601
 8894TIP3    H248174   3.535   3.856   1.524  0.5767 -0.0880 -0.8520
 8895TIP3   OH248175   5.954   2.836   3.714  0.0214 -0.3986 -0.4035
 8895TIP3    H148176   6.037   2.789   3.721  0.5080  0.0109 -2.9867
 8895TIP3    H248177   5.977   2.928   3.720 -0.1705 -0.2625 -1.7192
 8896TIP3   OH248178   4.792   1.797   3.531  0.2085  0.0721  1.1516
 8896TIP3    H148179   4.809   1.828   3.443 -1.5296 -0.8189  0.4853
 8896TIP3    H248180   4.861   1.732   3.547 -1.8520 -2.8469 -1.1785
 8897TIP3   OH248181   3.168   6.169  15.293  0.1399  0.1095  0.1675
 8897TIP3    H148182   3.174   6.167  15.197 -0.0589  0.2412  0.1530
 8897TIP3    H248183   3.094   6.111  15.314 -0.9938  1.5136  0.1334
 8898TIP3   OH248184   3.733   2.718   4.724 -0.5864  0.0450  0.2848
 8898TIP3    H148185   3.820   2.691   4.696 -0.9719 -0.7969 -0.1226
 8898TIP3    H248186   3.748   2.770   4.803  0.3749  1.0008 -0.5177
 8899TIP3   OH248187   0.844   4.486   1.729  0.3739 -0.0086 -0.3392
 8899TIP3    H148188   0.903   4.518   1.661  2.0874  0.5612  1.3836
 8899TIP3    H248189   0.902   4.444   1.793 -1.2529 -0.9389  0.5607
 8900TIP3   OH248190   4.579   4.776   5.170 -0.0405  0.1498  0.3774
 8900TIP3    H148191   4.666   4.749   5.140 -1.1240 -1.2421 -1.5998
 8900TIP3    H248192   4.563   4.721   5.247 -0.1483 -1.3447 -0.6884
 8901TIP3   OH248193   5.604   6.032  16.731 -0.2484 -0.0626  0.0068
 8901TIP3    H148194   5.601   6.121  16.765 -1.7708 -0.1692  0.1504
 8901TIP3    H248195   5.658   6.039  16.652 -1.6848  1.2902 -0.8905
 8902TIP3   OH248196   4.317   2.142  17.135 -0.2202 -0.0758  0.3134
 8902TIP3    H148197   4.228   2.106  17.128 -0.2729 -0.2683  1.8048
 8902TIP3    H248198   4.323   2.173  17.226  1.9651 -2.0234  0.8772
 8903TIP3   OH248199   0.889   0.266   3.713 -0.3991 -0.1207 -0.1453
 8903TIP3    H148200   0.804   0.225   3.699  0.0887 -1.0486 -0.4403
 8903TIP3    H248201   0.927   0.273   3.626 -0.0482  0.0177  0.0168
 8904TIP3   OH248202   0.308   4.454  15.056 -0.5016  0.0548 -0.9013
 8904TIP3    H148203   0.257   4.383  15.093 -1.0408  0.5013 -0.7885
 8904TIP3    H248204   0.244   4.523  15.037 -0.0866  0.2227 -1.6968
 8905TIP3   OH248205   2.865   4.286   1.991  0.7767  0.1760 -0.0717
 8905TIP3    H148206   2.896   4.195   2.001 -0.3063 -0.1446  0.4364
 8905TIP3    H248207   2.830   4.289   1.902  0.1918 -0.1017  0.1450
 8906TIP3   OH248208   5.225   1.914   5.568 -0.6079  0.4207  0.6805
 8906TIP3    H148209   5.180   1.981   5.516  0.2928 -0.0565 -0.7264
 8906TIP3    H248210   5.223   1.836   5.513  0.2551 -0.1294  1.4237
 8907TIP3   OH248211   3.867   6.811  14.433  1.1655  0.0800 -0.1070
 8907TIP3    H148212   3.959   6.822  14.455  1.4534 -2.9152  0.3847
 8907TIP3    H248213   3.861   6.723  14.397 -1.2357  0.8586 -1.7368
 8908TIP3   OH248214   4.329   0.987   4.619 -0.5134  0.8649  0.2238
 8908TIP3    H148215   4.363   1.049   4.554  4.2409 -1.2459  0.4964
 8908TIP3    H248216   4.271   0.930   4.569 -2.5401  3.5466 -0.6296
 8909TIP3   OH248217   6.504   1.164   1.733  0.2896 -0.0716  0.2942
 8909TIP3    H148218   6.572   1.230   1.717  0.1308  0.5208  1.8967
 8909TIP3    H248219   6.459   1.156   1.650  0.5728  1.5749 -0.0538
 8910TIP3   OH248220   0.839   1.381  16.176 -0.2488  0.3859 -0.2115
 8910TIP3    H148221   0.915   1.362  16.231  1.0721  0.7121 -1.8887
 8910TIP3    H248222   0.819   1.473  16.193  0.2171  0.5127 -0.3466
 8911TIP3   OH248223   0.258   0.556   0.022  0.1944 -0.0689  0.3970
 8911TIP3    H148224   0.307   0.488   0.068 -0.0086  0.1488  0.9328
 8911TIP3    H248225   0.171   0.519   0.011  0.2819 -0.1790  0.0543
 8912TIP3   OH248226   3.418   5.307  13.659  0.6575  0.4110  0.3331
 8912TIP3    H148227   3.405   5.288  13.752 -0.0258 -0.7177  0.0092
 8912TIP3    H248228   3.330   5.311  13.622  0.9889 -1.3553 -0.6898
 8913TIP3   OH248229   4.887   2.250  14.325  0.1498  0.1863  0.6062
 8913TIP3    H148230   4.838   2.189  14.379 -3.0343  2.7670  0.7528
 8913TIP3    H248231   4.864   2.228  14.235  0.1251  0.2709  0.5921
 8914TIP3   OH248232   6.018   6.109  13.198  0.4875 -0.4830 -0.5893
 8914TIP3    H148233   5.973   6.069  13.123  0.2782  0.0735 -0.7674
 8914TIP3    H248234   5.990   6.058  13.273  0.8468 -1.1673 -0.9156
 8915TIP3   OH248235   0.616   5.685   3.867 -0.3160 -0.1396 -0.1739
 8915TIP3    H148236   0.679   5.669   3.796  1.6582 -0.8327  1.6556
 8915TIP3    H248237   0.601   5.598   3.905 -1.9032  0.1237 -0.1725
 8916TIP3   OH248238   4.258   3.520  13.325  0.0727  0.4495 -0.8557
 8916TIP3    H148239   4.264   3.476  13.409  0.6880 -0.1691 -1.2196
 8916TIP3    H248240   4.265   3.450  13.260 -1.5516  0.7779 -1.4254
 8917TIP3   OH248241   4.072   2.309   1.385  0.2037  0.0256 -0.1603
 8917TIP3    H148242   4.041   2.385   1.335 -0.2068 -1.5089 -2.3370
 8917TIP3    H248243   4.056   2.331   1.476  0.3956  2.6845 -0.7409
 8918TIP3   OH248244   3.043   0.146  17.283  0.6174 -0.0553  0.1238
 8918TIP3    H148245   3.041   0.205  17.208  0.4775  0.0533  0.2101
 8918TIP3    H248246   3.127   0.100  17.276 -0.2879 -1.5438 -1.2439
 8919TIP3   OH248247   2.753   4.824   1.583  0.3128 -0.2520 -0.0058
 8919TIP3    H148248   2.664   4.835   1.615  0.0601  0.5791 -0.9772
 8919TIP3    H248249   2.744   4.769   1.505  0.9464 -2.4425  1.4053
 8920TIP3   OH248250   1.373   2.429   5.435  1.0526 -0.1748  0.2921
 8920TIP3    H148251   1.405   2.472   5.356  0.8280 -1.1922 -0.3595
 8920TIP3    H248252   1.298   2.377   5.406  1.2022 -0.8553  1.0984
 8921TIP3   OH248253   3.347   1.229  10.805 -0.0608 -0.1604  0.1599
 8921TIP3    H148254   3.341   1.255  10.714 -0.9669 -2.0266 -0.3457
 8921TIP3    H248255   3.438   1.246  10.830  0.4905 -0.7719 -1.4355
 8922TIP3   OH248256   4.121   4.040  11.881  0.0176  0.0852  0.0185
 8922TIP3    H148257   4.056   3.971  11.871 -0.8251  0.5536  2.0085
 8922TIP3    H248258   4.123   4.084  11.796 -2.4366  0.2024 -0.0133
 8923TIP3   OH248259   0.640   0.262  11.055 -0.0742  0.3619  0.2056
 8923TIP3    H148260   0.587   0.183  11.044  0.7952 -0.1636 -0.3544
 8923TIP3    H248261   0.638   0.304  10.969  1.7922 -0.5612 -0.3233
 8924TIP3   OH248262   0.882   4.516   4.242  0.0091  1.0328 -0.6330
 8924TIP3    H148263   0.961   4.464   4.251  0.7318  2.5920  2.5968
 8924TIP3    H248264   0.912   4.599   4.204 -0.2713  1.1756 -0.5439
 8925TIP3   OH248265   1.925   1.841   3.044 -0.2255 -0.7048 -0.0667
 8925TIP3    H148266   1.871   1.825   3.122  0.5919 -1.1689  0.4049
 8925TIP3    H248267   2.011   1.864   3.079 -0.5708  1.8027 -0.7843
 8926TIP3   OH248268   5.754   0.491  16.246  0.2212 -0.6729 -0.1657
 8926TIP3    H148269   5.690   0.467  16.313  1.9483 -1.1842  1.3398
 8926TIP3    H248270   5.773   0.410  16.200 -0.1535 -0.5334 -0.5712
 8927TIP3   OH248271   2.659   0.398   1.727 -0.6905 -0.1599  0.2037
 8927TIP3    H148272   2.673   0.431   1.638  1.2275  0.1485  0.5865
 8927TIP3    H248273   2.622   0.473   1.775 -0.4338  0.0976  0.0027
 8928TIP3   OH248274   2.488   6.045   1.854 -0.1680 -0.2615 -0.1453
 8928TIP3    H148275   2.419   6.088   1.904  0.6632 -0.1521  0.9339
 8928TIP3    H248276   2.551   6.114   1.836 -0.4409 -0.3106 -1.3243
 8929TIP3   OH248277   1.590   3.332  15.613 -0.0033 -0.1527 -0.2558
 8929TIP3    H148278   1.569   3.243  15.582  0.3340 -0.3035 -0.0601
 8929TIP3    H248279   1.612   3.380  15.533 -0.9029 -0.0452 -0.4336
 8930TIP3   OH248280   2.233   4.543  16.188 -0.0116  0.0084  0.6209
 8930TIP3    H148281   2.292   4.585  16.251 -1.9911  1.5813  1.4677
 8930TIP3    H248282   2.191   4.472  16.237  0.9778 -0.9950  0.0667
 8931TIP3   OH248283   1.685   2.952  12.032 -0.0440  0.2196  0.0990
 8931TIP3    H148284   1.631   3.031  12.032  2.6484  2.1610  0.7248
 8931TIP3    H248285   1.767   2.980  11.989  1.0921 -2.1360  0.6824
 8932TIP3   OH248286   6.437   6.122  16.331 -0.1530  0.0859 -0.0261
 8932TIP3    H148287   6.479   6.080  16.257 -1.8792 -0.2538 -0.8476
 8932TIP3    H248288   6.375   6.184  16.292 -1.0338 -0.0467  1.1093
 8933TIP3   OH248289   4.506   1.930   5.265  0.2659 -0.2707 -0.4381
 8933TIP3    H148290   4.538   1.856   5.316  0.1246  0.7089  1.1029
 8933TIP3    H248291   4.434   1.895   5.214  1.0958 -1.5220 -0.7896
 8934TIP3   OH248292   5.010   0.220  15.117  0.0394  0.0997 -0.0112
 8934TIP3    H148293   4.970   0.161  15.181  0.4828  0.0631  0.2334
 8934TIP3    H248294   5.064   0.162  15.062  0.8822  0.3413  0.5482
 8935TIP3   OH248295   5.276   3.013   6.120  0.1322  0.5861  0.9065
 8935TIP3    H148296   5.287   2.919   6.139 -1.0291  0.7106  2.2413
 8935TIP3    H248297   5.193   3.018   6.073  1.1523  0.7415 -0.9503
 8936TIP3   OH248298   4.629   5.029   3.230 -0.1719  0.5077  0.0505
 8936TIP3    H148299   4.540   5.023   3.195 -0.7007  0.5680  1.3451
 8936TIP3    H248300   4.685   5.036   3.153 -1.1491 -1.2882 -0.8494
 8937TIP3   OH248301   4.906   6.716  12.385 -0.8126 -0.0786  0.0596
 8937TIP3    H148302   4.973   6.652  12.408 -1.0554 -1.2789 -2.3628
 8937TIP3    H248303   4.831   6.662  12.359 -2.0075  1.2266  0.7537
 8938TIP3   OH248304   4.936   4.230   0.808  0.2712  0.3688 -0.4115
 8938TIP3    H148305   4.855   4.181   0.793  0.9382 -0.7189 -0.6033
 8938TIP3    H248306   4.946   4.285   0.730  0.6722 -0.8893 -1.2662
 8939TIP3   OH248307   0.891   5.070  17.173 -0.2188 -0.4638 -0.2484
 8939TIP3    H148308   0.905   5.124  17.095  0.8580  0.3190  0.4688
 8939TIP3    H248309   0.796   5.054  17.174 -0.8133  2.6560  0.2932
 8940TIP3   OH248310   1.598   6.642   2.826  0.1552 -0.0638 -0.4258
 8940TIP3    H148311   1.519   6.634   2.772  0.3595 -2.5937 -0.4477
 8940TIP3    H248312   1.574   6.602   2.910  0.9399  0.5485  0.0938
 8941TIP3   OH248313   0.355   0.865  11.852  0.1176  0.4880 -0.1855
 8941TIP3    H148314   0.273   0.860  11.804  0.0581  0.1646 -0.0507
 8941TIP3    H248315   0.376   0.775  11.874 -0.3456  0.7113  1.2296
 8942TIP3   OH248316   1.898   0.575   0.513 -0.0166 -0.4133  0.1781
 8942TIP3    H148317   1.974   0.585   0.456  0.3991 -3.8484  0.0070
 8942TIP3    H248318   1.823   0.579   0.453  0.2476 -0.6327 -0.1745
 8943TIP3   OH248319   4.480   2.163   1.474  0.5629  0.6716 -0.0815
 8943TIP3    H148320   4.551   2.147   1.536  0.1797 -1.4472 -0.1211
 8943TIP3    H248321   4.523   2.202   1.398  1.8239 -1.1931 -0.3660
 8944TIP3   OH248322   3.167   2.314   0.129 -0.1790  0.1267 -0.0353
 8944TIP3    H148323   3.111   2.389   0.151 -0.4990  0.0470 -0.5637
 8944TIP3    H248324   3.229   2.308   0.202 -0.9724  0.1040  0.6543
 8945TIP3   OH248325   0.498   6.255   2.203 -0.3965  0.0149 -0.5323
 8945TIP3    H148326   0.574   6.304   2.235  0.3763  1.1345 -3.8894
 8945TIP3    H248327   0.507   6.257   2.108 -2.4239 -3.4413 -0.8607
 8946TIP3   OH248328   2.765   5.528  15.562  0.2955  0.4935  0.1719
 8946TIP3    H148329   2.696   5.594  15.562 -1.3489 -1.2038  0.7130
 8946TIP3    H248330   2.774   5.501  15.653  0.0488 -0.9508 -0.2125
 8947TIP3   OH248331   4.581   5.793   1.703  0.0297  0.1592  0.0010
 8947TIP3    H148332   4.504   5.828   1.658  0.3256 -0.7349 -1.2164
 8947TIP3    H248333   4.648   5.787   1.635  0.4191 -1.4052  0.5149
 8948TIP3   OH248334   3.039   4.144  12.234 -0.0100  0.5954 -0.7071
 8948TIP3    H148335   3.069   4.233  12.216  1.1427  0.1152 -1.1768
 8948TIP3    H248336   2.965   4.131  12.174 -0.3873  1.3456 -0.4089
 8949TIP3   OH248337   4.752   3.537  16.808  0.5799 -0.5163 -0.3414
 8949TIP3    H148338   4.701   3.617  16.821  1.8334  0.2591 -0.1106
 8949TIP3    H248339   4.727   3.507  16.721 -2.4964 -1.8071  0.9243
 8950TIP3   OH248340   6.234   4.218  11.995 -0.2703  0.6349  0.1686
 8950TIP3    H148341   6.214   4.199  12.087 -1.8248 -0.8612 -0.4478
 8950TIP3    H248342   6.170   4.285  11.970 -0.6270  0.1743 -0.1536
 8951TIP3   OH248343   6.490   4.234   3.075  0.0533  0.1630 -0.1963
 8951TIP3    H148344   6.549   4.254   3.002 -0.2629  4.4052  0.6207
 8951TIP3    H248345   6.540   4.257   3.153 -1.7704  1.3935  0.6318
 8952TIP3   OH248346   3.822   5.166  16.263 -0.6537 -0.0297 -0.3379
 8952TIP3    H148347   3.760   5.095  16.280  0.7748 -1.2036  0.0592
 8952TIP3    H248348   3.881   5.165  16.339 -0.2967  1.2531 -0.5740
 8953TIP3   OH248349   2.812   2.173  16.317  0.2348  0.6597 -0.6332
 8953TIP3    H148350   2.844   2.101  16.263  0.6375  1.2207 -1.1523
 8953TIP3    H248351   2.723   2.148  16.342  0.5115 -0.1876 -0.4992
 8954TIP3   OH248352   0.297   0.163   1.101 -0.7333 -0.2465 -0.3391
 8954TIP3    H148353   0.313   0.070   1.117  2.4755  0.3789  0.4150
 8954TIP3    H248354   0.284   0.201   1.188 -0.3605  0.3077 -0.5236
 8955TIP3   OH248355   5.610   6.002   5.468  0.3215  0.1949 -0.4702
 8955TIP3    H148356   5.561   6.084   5.479 -0.0614 -0.0725 -0.1744
 8955TIP3    H248357   5.700   6.030   5.452  0.2771  0.6611  0.0980
 8956TIP3   OH248358   6.031   3.137   3.541  0.0937 -0.1285 -0.0406
 8956TIP3    H148359   5.961   3.145   3.606 -0.1527  0.4404 -0.3843
 8956TIP3    H248360   5.988   3.147   3.457  0.3942 -1.0070 -0.3132
 8957TIP3   OH248361   4.448   0.313  14.896 -0.1344  0.4310  0.2105
 8957TIP3    H148362   4.490   0.399  14.899 -1.9552  1.3135  0.8680
 8957TIP3    H248363   4.377   0.319  14.960 -0.7310 -1.3148 -0.2765
 8958TIP3   OH248364   3.656   0.586   1.285 -0.1204  0.0289 -0.1397
 8958TIP3    H148365   3.671   0.505   1.236  1.2387  0.1359  0.0817
 8958TIP3    H248366   3.722   0.585   1.354 -1.7563  0.0908  1.4541
 8959TIP3   OH248367   0.804   0.360  16.880  0.2950 -0.0310  0.9319
 8959TIP3    H148368   0.735   0.413  16.921 -0.0349 -0.5425  1.0353
 8959TIP3    H248369   0.879   0.420  16.874 -1.2236  1.6644 -2.4779
 8960TIP3   OH248370   5.221   6.541  11.443 -0.4696  0.0819 -0.4815
 8960TIP3    H148371   5.301   6.490  11.452 -0.1679  0.3898 -1.3942
 8960TIP3    H248372   5.198   6.534  11.351 -0.2654  1.8156 -0.6902
 8961TIP3   OH248373   0.784   4.229   3.744  0.6541  0.5569 -0.3293
 8961TIP3    H148374   0.826   4.286   3.681 -0.1131  0.4828 -0.9226
 8961TIP3    H248375   0.769   4.147   3.696  0.4429  0.3608  0.0672
 8962TIP3   OH248376   6.665   5.527   1.565 -0.0541  0.1501  0.4009
 8962TIP3    H148377   6.700   5.444   1.533 -2.7899 -0.6381 -0.6956
 8962TIP3    H248378   6.649   5.512   1.658  0.3175 -0.2548  0.4002
 8963TIP3   OH248379   1.997   6.805  12.423 -0.4995  0.6884  0.2280
 8963TIP3    H148380   1.969   6.752  12.498  0.5409  1.9271  1.5204
 8963TIP3    H248381   1.917   6.852  12.397 -0.5505  1.3145  1.4638
 8964TIP3   OH248382   5.951   1.865  14.261  0.4754 -0.4935  0.3676
 8964TIP3    H148383   5.962   1.834  14.351  0.1521 -2.5045 -0.2600
 8964TIP3    H248384   5.966   1.788  14.207  1.2864  0.8370 -1.3575
 8965TIP3   OH248385   0.183   3.118   5.436 -0.2752 -0.0901 -0.0419
 8965TIP3    H148386   0.125   3.190   5.409  0.4990  1.0266  1.1775
 8965TIP3    H248387   0.125   3.042   5.442 -1.5373  0.8928  0.6994
 8966TIP3   OH248388   1.092   0.492  16.509 -0.2558  0.0608  0.1845
 8966TIP3    H148389   1.027   0.447  16.455  1.4930 -1.7486 -0.5144
 8966TIP3    H248390   1.042   0.530  16.582 -2.4525  1.2991 -1.9168
 8967TIP3   OH248391   0.231   4.692   0.134  0.8875 -0.2430  0.6698
 8967TIP3    H148392   0.278   4.608   0.133 -0.9982 -1.3181 -0.4322
 8967TIP3    H248393   0.164   4.680   0.201 -0.2025 -0.0670 -0.3967
 8968TIP3   OH248394   3.898   2.741   3.369 -0.4136  0.0267 -0.6769
 8968TIP3    H148395   3.876   2.667   3.426 -0.3203  0.5663  0.0712
 8968TIP3    H248396   3.910   2.814   3.429  0.0671  0.5180 -1.3667
 8969TIP3   OH248397   2.711   4.811  14.908 -0.2662 -0.6439 -0.0478
 8969TIP3    H148398   2.738   4.879  14.970 -0.4807  0.0206 -0.6742
 8969TIP3    H248399   2.620   4.831  14.888  0.3009  0.2158 -1.9312
 8970TIP3   OH248400   0.524   3.957   3.878 -0.2167 -0.0655 -0.1623
 8970TIP3    H148401   0.556   3.868   3.861 -1.0944 -0.7812  1.9050
 8970TIP3    H248402   0.462   3.973   3.806  0.8010 -0.6615 -1.2060
 8971TIP3   OH248403   3.701   0.332   1.961 -0.1818 -0.1007 -0.2215
 8971TIP3    H148404   3.703   0.415   2.009 -2.1815 -0.2711  0.2208
 8971TIP3    H248405   3.716   0.265   2.028  0.9839 -0.1175 -0.5024
 8972TIP3   OH248406   1.532   2.501   2.389  0.0784  0.5766  0.5826
 8972TIP3    H148407   1.586   2.483   2.467  0.7149 -0.6170 -0.1195
 8972TIP3    H248408   1.581   2.567   2.341 -0.1602  1.0861  1.0370
 8973TIP3   OH248409   1.853   1.168  16.362 -0.4988  0.0354 -0.0037
 8973TIP3    H148410   1.792   1.184  16.434 -0.4930  0.6294 -0.1274
 8973TIP3    H248411   1.891   1.082  16.380 -0.1681  0.3822  0.9320
 8974TIP3   OH248412   6.545   0.839   0.582  0.2575  0.1729 -0.2798
 8974TIP3    H148413   6.490   0.786   0.640  0.2947  0.3013 -0.1254
 8974TIP3    H248414   6.507   0.828   0.495  0.6582 -0.6412 -0.3630
 8975TIP3   OH248415   0.433   1.264   1.099 -0.2528 -0.0677 -0.0916
 8975TIP3    H148416   0.430   1.178   1.056 -2.4543 -1.1301  2.0756
 8975TIP3    H248417   0.519   1.299   1.077  0.7772 -2.9345 -0.8118
 8976TIP3   OH248418   0.972   1.776   2.125 -0.1601 -0.1429 -0.0855
 8976TIP3    H148419   0.899   1.714   2.126 -0.4654  0.1826 -1.1085
 8976TIP3    H248420   0.930   1.862   2.127  0.2756  0.0469  2.0114
 8977TIP3   OH248421   1.145   0.432  13.879 -0.0125 -0.0591 -0.3648
 8977TIP3    H148422   1.091   0.375  13.823 -0.9521  1.0740 -0.6283
 8977TIP3    H248423   1.135   0.519  13.842  1.2711  0.3213  0.1594
 8978TIP3   OH248424   4.232   0.952  17.131  0.5898  0.5509  0.2173
 8978TIP3    H148425   4.256   1.018  17.197  0.1166  0.9856 -0.0377
 8978TIP3    H248426   4.242   0.868  17.176  0.6628  0.8238  0.7188
 8979TIP3   OH248427   2.319   2.004   4.670  0.1579  0.2681 -0.5833
 8979TIP3    H148428   2.390   2.021   4.732 -0.3421  1.8301 -0.4178
 8979TIP3    H248429   2.243   1.983   4.725  0.1863 -0.2187 -0.7262
 8980TIP3   OH248430   0.614   6.661  14.267  0.2153 -0.0009 -0.3223
 8980TIP3    H148431   0.631   6.754  14.255  2.6009 -0.1388  1.5661
 8980TIP3    H248432   0.607   6.625  14.179  2.6980  1.3818 -1.1158
 8981TIP3   OH248433   4.662   5.012  14.529 -0.6976  0.3957 -0.1780
 8981TIP3    H148434   4.744   5.046  14.563 -0.1735 -0.1988 -0.8483
 8981TIP3    H248435   4.655   4.924  14.565 -1.1823  0.5484  0.1086
 8982TIP3   OH248436   3.843   5.944  16.943 -0.0999  0.5522  0.0280
 8982TIP3    H148437   3.796   6.025  16.926  0.4197  1.3770  2.2560
 8982TIP3    H248438   3.775   5.878  16.957 -0.5712  1.2547  1.0890
 8983TIP3   OH248439   4.273   4.740  12.446  0.3195  0.1923  0.0314
 8983TIP3    H148440   4.347   4.680  12.441 -1.0733 -1.7345  1.5579
 8983TIP3    H248441   4.209   4.704  12.385  0.5244  1.7153 -1.1078
 8984TIP3   OH248442   3.400   2.014  13.948 -0.1990  0.1690 -0.5040
 8984TIP3    H148443   3.351   2.006  13.867  0.4702  1.4993 -1.0634
 8984TIP3    H248444   3.469   2.078  13.928 -0.0876  0.5830  1.1285
 8985TIP3   OH248445   6.280   3.903  16.955 -0.5908 -0.2436 -0.0560
 8985TIP3    H148446   6.251   3.936  17.040 -2.3786 -1.7680 -0.0548
 8985TIP3    H248447   6.358   3.955  16.935  0.9197 -1.0481  3.3457
 8986TIP3   OH248448   4.650   0.123  12.697 -0.4428  0.0288  0.9553
 8986TIP3    H148449   4.735   0.134  12.740 -0.6648  0.9008  1.1938
 8986TIP3    H248450   4.597   0.196  12.731 -1.2030 -0.3679  0.6215
 8987TIP3   OH248451   5.501   2.182  13.491  0.3329 -0.3202  0.0971
 8987TIP3    H148452   5.537   2.150  13.409  0.5642 -0.6094  0.3099
 8987TIP3    H248453   5.413   2.215  13.468  0.3164 -0.5900 -0.2215
 8988TIP3   OH248454   4.624   2.785  10.215 -0.4251  0.1112  0.7044
 8988TIP3    H148455   4.584   2.748  10.294  0.3307  0.9716  1.5063
 8988TIP3    H248456   4.710   2.743  10.211 -0.8788 -0.7300 -0.2612
 8989TIP3   OH248457   1.914   3.685   4.905  0.1075 -0.4635 -0.0631
 8989TIP3    H148458   1.911   3.593   4.931 -1.5574 -0.9192 -1.8036
 8989TIP3    H248459   1.898   3.684   4.811 -1.5452  1.7148  0.1675
 8990TIP3   OH248460   3.936   3.485  13.297  0.0060  0.4986 -0.3392
 8990TIP3    H148461   3.928   3.534  13.379 -0.9760  1.2440 -0.8853
 8990TIP3    H248462   3.846   3.469  13.269  0.2903 -1.6186 -0.1807
 8991TIP3   OH248463   4.960   6.155  13.242 -0.7290  0.1835 -0.0351
 8991TIP3    H148464   4.947   6.067  13.207  0.6571 -0.0322 -0.0001
 8991TIP3    H248465   4.935   6.148  13.334  0.0516 -0.3350  0.1367
 8992TIP3   OH248466   2.959   1.970  12.219  0.0402  0.1659 -0.6791
 8992TIP3    H148467   2.955   2.016  12.136  0.5978  2.2046  0.3978
 8992TIP3    H248468   2.881   1.999  12.267  0.3086 -0.1373 -0.0431
 8993TIP3   OH248469   5.294   2.056   4.526 -0.2420 -0.3142 -0.0577
 8993TIP3    H148470   5.309   2.133   4.581  1.5287  1.2157 -2.5718
 8993TIP3    H248471   5.379   2.014   4.520 -1.3838 -3.0932  2.0592
 8994TIP3   OH248472   3.660   4.298  12.635  0.0640  0.4263 -0.4679
 8994TIP3    H148473   3.625   4.222  12.681  3.7847  1.6911  4.8579
 8994TIP3    H248474   3.591   4.364  12.642 -1.2783 -0.8952 -0.9349
 8995TIP3   OH248475   3.868   4.521  13.283  0.3049 -0.2165 -0.0593
 8995TIP3    H148476   3.842   4.613  13.282 -0.2044 -0.3507  0.3694
 8995TIP3    H248477   3.814   4.480  13.215 -1.8859 -0.8234  1.9796
 8996TIP3   OH248478   4.419   4.511   3.036  0.7182 -0.3010 -0.1842
 8996TIP3    H148479   4.383   4.498   3.124 -0.4950 -0.3048 -0.6705
 8996TIP3    H248480   4.430   4.606   3.029 -0.1614 -0.2126 -0.4018
 8997TIP3   OH248481   6.462   5.061   2.918  0.4270  0.0307 -0.3413
 8997TIP3    H148482   6.537   5.095   2.967  0.5341 -0.1058 -0.4101
 8997TIP3    H248483   6.437   5.132   2.859 -0.7771  0.8461  1.1122
 8998TIP3   OH248484   3.721   2.966  11.433  0.3525 -0.3671  0.7015
 8998TIP3    H148485   3.806   2.977  11.392  0.3915 -0.1598  0.8386
 8998TIP3    H248486   3.735   2.990  11.525  0.6498 -2.3676  1.2086
 8999TIP3   OH248487   2.879   6.068  15.247  0.9014 -0.1244 -0.1637
 8999TIP3    H148488   2.946   6.003  15.267  1.4197  0.7955  1.1245
 8999TIP3    H248489   2.832   6.032  15.172  0.2447 -2.6677  1.4307
 9000TIP3   OH248490   4.292   6.412   2.996 -0.4974 -0.3689 -0.7713
 9000TIP3    H148491   4.375   6.421   3.043 -0.7655  0.3648 -0.4361
 9000TIP3    H248492   4.290   6.320   2.970  1.4578  0.0698 -2.7082
 9001TIP3   OH248493   3.382   4.903  15.564  0.0802  0.2951 -0.2490
 9001TIP3    H148494   3.458   4.918  15.507  0.3098 -2.1539 -0.6291
 9001TIP3    H248495   3.312   4.877  15.504 -0.4818  0.5122  0.3085
 9002TIP3   OH248496   5.569   6.367   3.374  0.3444  0.3485  0.0317
 9002TIP3    H148497   5.617   6.284   3.382  0.9248  0.6954  0.1959
 9002TIP3    H248498   5.511   6.369   3.449  0.3076  0.0743  0.0110
 9003TIP3   OH248499   4.156   5.733  15.363  0.2502 -0.4456  0.1420
 9003TIP3    H148500   4.188   5.823  15.373 -3.5762  1.0473 -0.2987
 9003TIP3    H248501   4.130   5.707  15.452  1.0567 -1.0345  0.2147
 9004TIP3   OH248502   6.182   2.146  11.064 -0.6483 -0.1279  0.0283
 9004TIP3    H148503   6.258   2.149  11.007 -0.4495  0.2546  0.3091
 9004TIP3    H248504   6.120   2.088  11.020 -0.1059 -0.6146 -0.0864
 9005TIP3   OH248505   2.564   5.134  13.766  0.0317  0.5021 -0.4270
 9005TIP3    H148506   2.594   5.222  13.743 -1.1500  1.0344  0.0131
 9005TIP3    H248507   2.473   5.146  13.793 -1.4093 -1.4127 -4.0869
 9006TIP3   OH248508   4.321   4.947   3.123 -0.2714  0.2988  0.4223
 9006TIP3    H148509   4.382   4.941   3.049 -0.2748  2.6404  0.1884
 9006TIP3    H248510   4.248   5.000   3.090 -2.8665 -3.0990  0.4674
 9007TIP3   OH248511   4.717   0.516  15.114  0.3393 -0.0837 -0.5106
 9007TIP3    H148512   4.812   0.509  15.114  0.2045 -2.2340 -1.1312
 9007TIP3    H248513   4.687   0.438  15.160 -1.1909 -0.9369 -2.8537
 9008TIP3   OH248514   6.684   0.977   0.283  0.3142  0.4765 -0.4373
 9008TIP3    H148515   6.706   0.903   0.226  1.2423 -0.4555  1.0982
 9008TIP3    H248516   6.600   0.951   0.323 -0.6837  1.4351 -1.8821
 9009TIP3   OH248517   1.664   1.966  13.699  0.0264 -0.0317  0.9184
 9009TIP3    H148518   1.742   1.949  13.646 -0.0401 -0.2966  0.9071
 9009TIP3    H248519   1.697   1.985  13.786  0.2497  1.9802  0.4325
 9010TIP3   OH248520   2.709   0.896  12.774 -0.5734  0.9100  0.4317
 9010TIP3    H148521   2.666   0.921  12.856 -1.1053 -0.7445  0.6680
 9010TIP3    H248522   2.644   0.914  12.707 -1.5905 -1.3370  0.7648
 9011TIP3   OH248523   1.015   3.271  16.847  0.0988 -0.7945  0.5241
 9011TIP3    H148524   1.017   3.178  16.866 -1.2565 -0.8433  0.4870
 9011TIP3    H248525   1.094   3.287  16.794  0.0570 -2.0107  0.0886
 9012TIP3   OH248526   1.911   1.748  15.338  0.0103 -0.5448 -0.2892
 9012TIP3    H148527   1.993   1.700  15.350 -1.3402 -3.4257 -2.0171
 9012TIP3    H248528   1.929   1.808  15.265  0.4830 -1.4283 -0.9099
 9013TIP3   OH248529   5.846   0.264   4.988  0.6577  0.5536 -0.1106
 9013TIP3    H148530   5.819   0.172   4.991  2.5574  0.0050  0.3433
 9013TIP3    H248531   5.806   0.298   4.908  0.7273 -0.9273 -0.7771
 9014TIP3   OH248532   3.626   6.742  15.820  0.0996  0.6975 -0.2238
 9014TIP3    H148533   3.706   6.690  15.811  0.6167  0.8113  3.1537
 9014TIP3    H248534   3.557   6.686  15.786  1.1716 -0.6836 -0.1711
 9015TIP3   OH248535   2.644   1.605   3.844 -0.0770 -0.4478 -0.7464
 9015TIP3    H148536   2.717   1.579   3.788 -0.0759 -1.2085 -0.4012
 9015TIP3    H248537   2.647   1.700   3.845 -0.6391 -0.3789 -2.8037
 9016TIP3   OH248538   0.154   3.239  14.099  0.7062 -0.1118 -0.5498
 9016TIP3    H148539   0.112   3.195  14.025 -2.4429 -1.4247  1.8413
 9016TIP3    H248540   0.120   3.329  14.096 -0.1284 -0.4042 -0.2579
 9017TIP3   OH248541   0.753   2.008  13.070  0.4262  0.7868  0.0654
 9017TIP3    H148542   0.789   1.923  13.097 -1.4672  0.7090  2.5123
 9017TIP3    H248543   0.720   1.993  12.982 -0.1011 -1.0879  0.5634
 9018TIP3   OH248544   5.533   1.055   5.091 -0.3256  0.0348 -0.4950
 9018TIP3    H148545   5.512   1.007   5.010 -0.9199 -1.1525  0.3514
 9018TIP3    H248546   5.621   1.089   5.076  0.1805 -1.4703 -1.0629
 9019TIP3   OH248547   5.602   5.859   2.430 -0.3079  0.1148 -0.4393
 9019TIP3    H148548   5.629   5.802   2.502  0.5145  2.8047  1.4410
 9019TIP3    H248549   5.681   5.907   2.406 -0.6651 -0.4671 -2.9102
 9020TIP3   OH248550   0.073   3.275   0.115  0.1061 -0.5864 -0.5306
 9020TIP3    H148551   0.080   3.300   0.023 -0.9614 -0.4940 -0.5905
 9020TIP3    H248552   0.128   3.338   0.161  1.2399 -1.0854 -1.1752
 9021TIP3   OH248553   2.028   5.440   1.556  0.4665  0.3633 -0.2365
 9021TIP3    H148554   2.025   5.444   1.652 -0.7197 -0.6437 -0.2238
 9021TIP3    H248555   1.957   5.381   1.532  1.6002 -0.4658 -1.6678
 9022TIP3   OH248556   5.618   0.497  13.147 -0.3673 -0.0790  0.3905
 9022TIP3    H148557   5.549   0.440  13.114  1.1997 -1.3877 -0.6785
 9022TIP3    H248558   5.604   0.500  13.241 -0.3738 -2.3459  0.4767
 9023TIP3   OH248559   5.878   0.868   2.907 -0.2388  0.0059 -0.1458
 9023TIP3    H148560   5.918   0.869   2.820 -0.8212 -0.9668 -0.4253
 9023TIP3    H248561   5.823   0.946   2.909 -1.3132 -0.7155 -1.1661
 9024TIP3   OH248562   0.559   4.201   6.313  0.0296  0.2214  0.3133
 9024TIP3    H148563   0.500   4.129   6.337 -1.2050 -0.3305 -3.9937
 9024TIP3    H248564   0.503   4.278   6.307  0.4852  0.5432  0.1285
 9025TIP3   OH248565   5.110   5.791   5.186 -0.0851 -0.6606  0.2357
 9025TIP3    H148566   5.034   5.794   5.244 -0.1363  1.7109  0.0952
 9025TIP3    H248567   5.169   5.859   5.219  0.3368  0.0369 -1.8476
 9026TIP3   OH248568   4.655   2.921  13.201 -0.0769  0.5781  1.3095
 9026TIP3    H148569   4.603   2.994  13.235  0.5364  0.7769  1.8452
 9026TIP3    H248570   4.745   2.941  13.230  0.3435  0.3915  0.1677
 9027TIP3   OH248571   1.686   1.008   0.456  0.0050 -0.6997 -0.3278
 9027TIP3    H148572   1.631   1.080   0.424 -0.6013 -1.5080 -1.1481
 9027TIP3    H248573   1.637   0.971   0.529  0.0296 -0.6623 -0.2924
 9028TIP3   OH248574   0.713   0.641   1.207  0.9353  0.2195 -0.2639
 9028TIP3    H148575   0.762   0.579   1.262  1.5287  1.3301  0.4778
 9028TIP3    H248576   0.634   0.593   1.182  0.4411 -0.1820  1.9220
 9029TIP3   OH248577   1.985   1.694  15.619  0.0699 -0.1089 -0.3419
 9029TIP3    H148578   2.071   1.710  15.581  0.2622 -2.3239 -0.9475
 9029TIP3    H248579   1.935   1.652  15.548 -1.0669 -0.0461  0.4079
 9030TIP3   OH248580   3.261   3.383  12.347  0.7064 -0.1310 -0.0264
 9030TIP3    H148581   3.345   3.395  12.392 -0.7167  3.1689  1.9938
 9030TIP3    H248582   3.217   3.468  12.356 -2.9017 -1.8025 -0.9179
 9031TIP3   OH248583   1.397   5.603   2.251  0.0723  0.2860  0.2025
 9031TIP3    H148584   1.440   5.590   2.166 -0.8398 -0.9051 -0.0841
 9031TIP3    H248585   1.320   5.656   2.231 -0.2847 -0.2163  0.2527
 9032TIP3   OH248586   5.554   5.316   4.529 -0.8205  0.3658  0.3472
 9032TIP3    H148587   5.621   5.360   4.581 -0.8730 -2.6237  3.0671
 9032TIP3    H248588   5.594   5.305   4.442  1.8073 -0.4262  1.6209
 9033TIP3   OH248589   1.291   0.285  11.115 -0.4116  0.4057 -0.4641
 9033TIP3    H148590   1.377   0.317  11.087 -0.2218  0.3025 -0.0105
 9033TIP3    H248591   1.311   0.213  11.175 -0.8219  0.1093 -0.6798
 9034TIP3   OH248592   0.750   1.637   1.973 -0.3617  0.8187 -0.0027
 9034TIP3    H148593   0.683   1.570   1.956  0.0057 -0.2446  2.5721
 9034TIP3    H248594   0.779   1.663   1.885  0.0084 -2.9574 -1.1272
 9035TIP3   OH248595   1.171   3.224  16.260  0.0536 -0.2782  0.1935
 9035TIP3    H148596   1.131   3.273  16.189  0.1287 -1.7020 -0.8523
 9035TIP3    H248597   1.258   3.201  16.228  0.4992  0.0124  1.1730
 9036TIP3   OH248598   4.705   5.353   4.777 -0.1498 -0.4981 -0.1628
 9036TIP3    H148599   4.793   5.369   4.812 -0.6032  1.3672  0.1697
 9036TIP3    H248600   4.719   5.290   4.706  1.4534 -0.2749 -0.0705
 9037TIP3   OH248601   4.368   5.869  12.662 -0.1478 -0.3729 -0.0037
 9037TIP3    H148602   4.274   5.852  12.664 -0.3223  0.4716 -0.8953
 9037TIP3    H248603   4.393   5.875  12.754 -1.1232  0.2340  0.2280
 9038TIP3   OH248604   0.258   0.707   0.823 -0.0574  0.4127 -0.0693
 9038TIP3    H148605   0.261   0.612   0.830  1.7985  0.5782  1.9442
 9038TIP3    H248606   0.166   0.727   0.806 -0.3506 -1.7685 -1.2280
 9039TIP3   OH248607   5.658   6.740   5.418 -0.6057  0.2831  0.2524
 9039TIP3    H148608   5.696   6.821   5.453  1.2455 -0.8353  0.9232
 9039TIP3    H248609   5.564   6.749   5.433 -0.4759  2.5307 -0.1675
 9040TIP3   OH248610   0.314   1.635  11.877  0.0570 -0.4132 -0.2165
 9040TIP3    H148611   0.361   1.713  11.849  0.4549  0.0742  1.7213
 9040TIP3    H248612   0.277   1.599  11.796 -0.7020  2.1437 -1.0639
 9041TIP3   OH248613   2.872   2.849   5.851  0.4230  0.0352  0.2654
 9041TIP3    H148614   2.858   2.919   5.915  1.8875 -0.0893  0.7302
 9041TIP3    H248615   2.946   2.799   5.886  0.5968 -0.6269 -1.0269
 9042TIP3   OH248616   3.270   4.416  17.114 -0.1819 -0.0851  0.1181
 9042TIP3    H148617   3.261   4.355  17.187 -0.3134  0.8417  0.8887
 9042TIP3    H248618   3.319   4.367  17.048  0.7537 -0.6277  1.1868
 9043TIP3   OH248619   2.299   6.392   0.317 -0.1557 -0.6380  0.3420
 9043TIP3    H148620   2.305   6.477   0.273  3.3752 -0.2499  1.3416
 9043TIP3    H248621   2.206   6.378   0.333 -1.0427  1.5556 -2.6917
 9044TIP3   OH248622   6.013   1.601   5.674  0.0304  0.2264  0.5320
 9044TIP3    H148623   6.043   1.619   5.584 -1.9896 -1.1944 -0.4682
 9044TIP3    H248624   5.945   1.667   5.689  0.7644  0.8276  1.2509
 9045TIP3   OH248625   2.732   3.355   0.249 -0.2257 -0.3237  0.0640
 9045TIP3    H148626   2.774   3.276   0.216  0.1630 -0.6442  1.2674
 9045TIP3    H248627   2.659   3.322   0.302 -1.0430  0.1780 -0.7598
 9046TIP3   OH248628   4.917   4.587   4.196 -0.4534  0.2924 -0.2758
 9046TIP3    H148629   4.822   4.590   4.191 -0.3953 -0.6454 -2.4432
 9046TIP3    H248630   4.946   4.572   4.106  1.6271 -2.1021  0.7284
 9047TIP3   OH248631   3.225   2.665   4.759 -0.0311  0.6463  0.1932
 9047TIP3    H148632   3.292   2.687   4.823 -2.3457  0.3444  2.7786
 9047TIP3    H248633   3.145   2.704   4.793 -1.4780 -0.1901 -2.1312
 9048TIP3   OH248634   5.072   3.405   2.744 -0.5283  0.0129 -0.0751
 9048TIP3    H148635   5.059   3.391   2.838  2.2887  0.5976  0.4632
 9048TIP3    H248636   5.137   3.339   2.719  0.0815  1.0290 -1.2210
 9049TIP3   OH248637   3.768   5.804  13.504 -0.2869  0.0507 -0.3720
 9049TIP3    H148638   3.782   5.854  13.424  0.0236  0.3648 -0.1273
 9049TIP3    H248639   3.820   5.851  13.570 -0.6591 -0.1172  0.0413
 9050TIP3   OH248640   6.354   6.059   2.381  0.0860 -0.2433  0.0561
 9050TIP3    H148641   6.265   6.088   2.401  0.1300  0.1945 -0.3537
 9050TIP3    H248642   6.410   6.125   2.422  0.2152 -0.3929  0.1186
 9051TIP3   OH248643   2.293   2.203  12.953  0.6575  0.1806 -0.7169
 9051TIP3    H148644   2.236   2.133  12.920  0.9656 -0.6523  0.5068
 9051TIP3    H248645   2.376   2.159  12.972  0.2440  0.4775  1.9399
 9052TIP3   OH248646   1.398   1.182   1.651  0.4964 -0.0773  0.4704
 9052TIP3    H148647   1.343   1.123   1.703 -0.8438  0.9385  0.2209
 9052TIP3    H248648   1.480   1.133   1.639 -0.3370 -1.6201  0.8459
 9053TIP3   OH248649   6.319   5.559  15.007  0.4017  0.4006  0.4296
 9053TIP3    H148650   6.244   5.507  15.035 -0.4177  0.5169 -1.4942
 9053TIP3    H248651   6.283   5.624  14.947  1.8482  1.3331  0.5367
 9054TIP3   OH248652   3.443   3.919  11.734 -0.6612  0.0467 -0.3405
 9054TIP3    H148653   3.497   3.925  11.813 -0.8279  1.7208 -0.3315
 9054TIP3    H248654   3.506   3.926  11.662 -0.6573 -0.0676 -0.3478
 9055TIP3   OH248655   3.678   3.700  13.260 -0.4657  0.1635  0.3854
 9055TIP3    H148656   3.727   3.759  13.203  0.9061 -1.6624 -0.3623
 9055TIP3    H248657   3.701   3.727  13.348  0.4799  0.4759  0.0473
 9056TIP3   OH248658   3.771   0.676  15.852  0.2925  0.1673 -0.3168
 9056TIP3    H148659   3.679   0.678  15.826 -0.5845 -2.4621  2.3418
 9056TIP3    H248660   3.771   0.701  15.944  1.7101 -3.7375  0.8553
 9057TIP3   OH248661   5.389   6.717  10.848 -0.1856  0.5305  0.7787
 9057TIP3    H148662   5.465   6.712  10.907 -0.1461 -1.3518  0.5901
 9057TIP3    H248663   5.347   6.799  10.872  1.1431  0.9368  1.8362
 9058TIP3   OH248664   5.802   3.127   1.768 -0.2766  0.4602  0.1124
 9058TIP3    H148665   5.861   3.199   1.749 -1.7939  0.9947 -2.9108
 9058TIP3    H248666   5.744   3.160   1.837  1.2034  0.8687  1.1838
 9059TIP3   OH248667   0.507   4.821   3.212 -0.2873 -0.5035 -0.0199
 9059TIP3    H148668   0.417   4.808   3.180 -0.8065  3.0409 -0.2631
 9059TIP3    H248669   0.561   4.821   3.133 -0.5070  0.2763 -0.1817
 9060TIP3   OH248670   4.077   3.712  14.252  0.6868  0.3881 -0.3368
 9060TIP3    H148671   3.995   3.760  14.240  0.6552  0.2854 -0.5384
 9060TIP3    H248672   4.142   3.780  14.270  0.5797  0.4796 -0.2936
 9061TIP3   OH248673   0.443   6.292   4.817 -0.4179  0.2835  0.0144
 9061TIP3    H148674   0.456   6.198   4.830  1.2861  0.3403 -1.1160
 9061TIP3    H248675   0.488   6.334   4.890 -0.0299  0.2521 -0.2031
 9062TIP3   OH248676   3.814   5.900   5.285  0.4036 -0.3014 -0.0575
 9062TIP3    H148677   3.903   5.867   5.270  0.3953 -1.9129  3.1754
 9062TIP3    H248678   3.764   5.823   5.310 -1.2602  1.0830  0.9646
 9063TIP3   OH248679   3.319   3.092  11.977 -0.1255  0.0178  0.0324
 9063TIP3    H148680   3.301   3.107  12.069 -1.0837 -0.9991  0.0272
 9063TIP3    H248681   3.237   3.115  11.933 -0.4259 -1.7053 -0.3268
 9064TIP3   OH248682   6.661   5.761  16.369 -0.1156  0.4262 -0.1603
 9064TIP3    H148683   6.684   5.825  16.301  0.7873 -0.6977 -0.9321
 9064TIP3    H248684   6.603   5.699  16.325  1.5446 -1.0624 -0.2765
 9065TIP3   OH248685   5.889   3.230  10.379 -0.3945  0.5733 -0.1878
 9065TIP3    H148686   5.970   3.281  10.373  0.4189 -0.8844 -2.1535
 9065TIP3    H248687   5.825   3.280  10.330 -1.0258  2.3045  2.3318
 9066TIP3   OH248688   5.405   3.257   3.620  0.3162  0.1427 -0.2507
 9066TIP3    H148689   5.364   3.254   3.706  0.9429  0.2025  0.0581
 9066TIP3    H248690   5.492   3.219   3.634  0.5580  0.5000 -0.7770
 9067TIP3   OH248691   0.109   4.265  14.860  0.4430  0.2057  0.6535
 9067TIP3    H148692   0.114   4.182  14.813 -0.6206  0.4073  0.1783
 9067TIP3    H248693   0.199   4.282  14.888  0.5884 -1.3214  1.1383
 9068TIP3   OH248694   4.508   6.460   5.914 -0.2086 -0.0963  0.1231
 9068TIP3    H148695   4.593   6.416   5.910 -0.3817 -0.2180 -3.8904
 9068TIP3    H248696   4.453   6.402   5.968  1.4273 -1.4095  0.4063
 9069TIP3   OH248697   2.348   1.607   0.393  0.4638  0.3206 -0.2726
 9069TIP3    H148698   2.375   1.523   0.430  0.1227  0.8627  1.2571
 9069TIP3    H248699   2.428   1.643   0.354  2.0838  1.9037  4.2069
 9070TIP3   OH248700   5.185   5.576  15.365 -0.0040 -0.1064 -0.1370
 9070TIP3    H148701   5.116   5.598  15.427  0.8381 -1.8125  1.4343
 9070TIP3    H248702   5.251   5.644  15.378  0.2500 -0.5539  0.9878
 9071TIP3   OH248703   5.221   6.346   5.043  0.0735 -0.6507  0.2762
 9071TIP3    H148704   5.293   6.333   5.104 -1.1912  0.9168  2.1576
 9071TIP3    H248705   5.262   6.387   4.967  1.3158 -0.6689  0.9195
 9072TIP3   OH248706   5.622   2.868  10.952  0.1683 -0.2363 -0.0365
 9072TIP3    H148707   5.566   2.849  11.028 -1.8115 -0.1291 -1.4229
 9072TIP3    H248708   5.596   2.803  10.887  2.3189 -0.7403 -0.4250
 9073TIP3   OH248709   3.283   0.392  16.582 -0.3031  0.2734  0.4532
 9073TIP3    H148710   3.366   0.347  16.588  0.3959  1.0528 -2.4453
 9073TIP3    H248711   3.286   0.459  16.651  2.1222  1.2681 -0.5741
 9074TIP3   OH248712   5.377   3.909  15.138 -0.2116  0.3182  0.1637
 9074TIP3    H148713   5.436   3.984  15.147  0.5494 -0.2637  0.0540
 9074TIP3    H248714   5.315   3.935  15.069 -0.6238  1.2723  0.8851
 9075TIP3   OH248715   2.966   2.667  15.749 -0.0563  0.0076 -0.1244
 9075TIP3    H148716   2.950   2.697  15.839 -0.6654  0.6240 -0.4294
 9075TIP3    H248717   2.938   2.576  15.749  0.6909 -0.2333  0.5130
 9076TIP3   OH248718   5.483   0.915  14.983  0.0159 -0.3702  0.0602
 9076TIP3    H148719   5.477   0.998  15.030 -1.2313  0.2653 -1.1912
 9076TIP3    H248720   5.518   0.853  15.047 -1.6086  0.4856  1.8176
 9077TIP3   OH248721   2.760   1.991  14.977 -0.3564 -0.4951  0.2322
 9077TIP3    H148722   2.787   1.934  14.905 -0.1403 -0.7753  0.5362
 9077TIP3    H248723   2.836   2.046  14.994 -1.6172  2.1540 -2.2399
 9078TIP3   OH248724   3.426   5.002  16.921  0.2037 -1.0138  0.1760
 9078TIP3    H148725   3.454   4.982  16.831 -0.7748  0.4495 -0.4678
 9078TIP3    H248726   3.353   4.942  16.937 -0.4107 -0.4365 -0.4499
 9079TIP3   OH248727   2.433   3.461   0.393 -0.1227  0.1049 -0.5360
 9079TIP3    H148728   2.453   3.454   0.300  1.2542  0.9118 -0.3177
 9079TIP3    H248729   2.355   3.517   0.396  0.1732  0.5540 -1.1708
 9080TIP3   OH248730   4.312   0.807   3.935 -0.3730  0.2720  0.6255
 9080TIP3    H148731   4.330   0.863   4.010 -1.0216 -0.2356  1.1795
 9080TIP3    H248732   4.263   0.862   3.875 -0.1716  0.5777  0.7420
 9081TIP3   OH248733   4.432   4.192  11.637  0.1183  0.2574  0.4761
 9081TIP3    H148734   4.444   4.098  11.620 -1.8046  0.2320 -0.8814
 9081TIP3    H248735   4.499   4.234  11.584  1.3355 -0.3622  1.4963
 9082TIP3   OH248736   4.506   3.884   4.575  0.1038 -0.2826 -0.8157
 9082TIP3    H148737   4.527   3.800   4.614  0.8297  1.0201  1.7171
 9082TIP3    H248738   4.513   3.947   4.647 -0.6614  1.9126 -2.5783
 9083TIP3   OH248739   2.498   6.563  11.530  0.1646 -0.7021  0.4773
 9083TIP3    H148740   2.510   6.653  11.562  2.3133 -1.5020  2.0363
 9083TIP3    H248741   2.505   6.570  11.435  2.5632  0.4788  0.7094
 9084TIP3   OH248742   3.202   2.645  14.173  0.1038  0.3217 -0.3311
 9084TIP3    H148743   3.147   2.692  14.235 -0.0063  0.6294 -0.6603
 9084TIP3    H248744   3.264   2.597  14.228 -0.6730 -0.2492  0.0452
 9085TIP3   OH248745   6.571   6.439   4.108 -0.1870  0.6745  0.5332
 9085TIP3    H148746   6.556   6.494   4.031  0.3775  0.4801  0.2834
 9085TIP3    H248747   6.519   6.480   4.177  0.3885  1.6388  0.4009
 9086TIP3   OH248748   1.882   6.449  13.403  0.3159  0.9423  0.1288
 9086TIP3    H148749   1.847   6.534  13.429  2.7666  2.3930 -1.0934
 9086TIP3    H248750   1.975   6.465  13.390  0.9598 -2.1258  0.5969
 9087TIP3   OH248751   6.690   0.222   3.476  0.3509  0.3187 -0.2397
 9087TIP3    H148752   6.744   0.299   3.496  1.0478 -0.2416  0.0670
 9087TIP3    H248753   6.752   0.149   3.478 -0.7718 -0.6366  2.2682
 9088TIP3   OH248754   0.595   4.175  14.474 -0.2787 -0.6065 -0.1523
 9088TIP3    H148755   0.577   4.257  14.520  0.0328 -0.8063  0.3192
 9088TIP3    H248756   0.599   4.200  14.382  0.6858  0.0688  0.0620
 9089TIP3   OH248757   3.063   4.821   2.525 -0.0450  0.1175 -0.0416
 9089TIP3    H148758   2.981   4.848   2.566 -0.8437 -1.4006 -0.6023
 9089TIP3    H248759   3.065   4.726   2.535  0.1683 -0.2098 -2.6999
 9090TIP3   OH248760   4.665   2.368   4.046 -0.0090 -0.2174 -0.2321
 9090TIP3    H148761   4.704   2.326   3.969 -1.2011  0.3789 -1.1709
 9090TIP3    H248762   4.738   2.376   4.108  0.4545 -2.8106 -0.3697
 9091TIP3   OH248763   3.069   5.093  12.364  0.7391  0.5637  0.1618
 9091TIP3    H148764   3.007   5.133  12.426  0.0935 -0.5290  0.2309
 9091TIP3    H248765   3.060   4.999  12.379  1.7716  0.3626 -0.4658
 9092TIP3   OH248766   6.524   6.197  12.849  0.2502 -0.4112 -0.4146
 9092TIP3    H148767   6.481   6.281  12.867  1.9939  0.2016  0.9958
 9092TIP3    H248768   6.497   6.141  12.921 -1.2477 -1.2137 -1.5785
 9093TIP3   OH248769   5.066   2.257   2.939  0.6919  0.0899  0.1824
 9093TIP3    H148770   5.029   2.314   2.871  1.8399 -1.0317 -1.4003
 9093TIP3    H248771   5.066   2.170   2.901  1.4233 -0.5540  1.5995
 9094TIP3   OH248772   5.519   4.576  12.905  0.0715  0.0554  0.1665
 9094TIP3    H148773   5.489   4.648  12.849 -0.2371 -0.9052 -0.9318
 9094TIP3    H248774   5.479   4.498  12.867 -0.9149 -0.5210  2.3138
 9095TIP3   OH248775   5.177   2.736  14.492  0.6168 -0.0679  0.5262
 9095TIP3    H148776   5.214   2.824  14.488  2.0739 -0.5168  2.8650
 9095TIP3    H248777   5.232   2.684  14.433  1.4476  0.0491  1.1834
 9096TIP3   OH248778   4.847   4.540   3.886  0.1318  0.1377 -0.1933
 9096TIP3    H148779   4.835   4.543   3.791  1.2538  0.0338 -0.3498
 9096TIP3    H248780   4.806   4.458   3.913  1.6538 -0.8769 -0.8850
 9097TIP3   OH248781   4.119   5.580   4.577 -0.0500 -0.1019 -0.1839
 9097TIP3    H148782   4.025   5.564   4.584  0.1164 -1.8428 -1.6631
 9097TIP3    H248783   4.159   5.506   4.623  0.6068  0.1332 -0.3812
 9098TIP3   OH248784   1.770   1.068  13.016  0.5526 -0.0321 -0.6578
 9098TIP3    H148785   1.856   1.104  12.992  0.6237 -0.5426 -1.1602
 9098TIP3    H248786   1.770   1.070  13.112  1.0069  0.2496 -0.6613
 9099TIP3   OH248787   2.354   2.736   1.379  0.3537  0.0297 -0.1890
 9099TIP3    H148788   2.300   2.754   1.457  0.0944  2.0283 -0.7992
 9099TIP3    H248789   2.413   2.666   1.407 -1.5180 -1.1328  0.9799
 9100TIP3   OH248790   1.102   1.374  16.957  0.4077  0.2056 -0.1393
 9100TIP3    H148791   1.115   1.450  17.014 -2.4898  0.2062  0.5841
 9100TIP3    H248792   1.162   1.389  16.883  0.0925  3.0540  0.1305
 9101TIP3   OH248793   3.632   2.578   1.763 -0.3397 -0.0837 -0.2596
 9101TIP3    H148794   3.561   2.570   1.828  0.5865 -0.2465  0.7438
 9101TIP3    H248795   3.684   2.499   1.774  0.9936  0.8352  0.2326
 9102TIP3   OH248796   1.020   5.832   3.268  0.8488 -0.5661  0.2357
 9102TIP3    H148797   1.042   5.808   3.178 -0.7654  1.9910 -0.9274
 9102TIP3    H248798   0.926   5.849   3.265  0.8053 -0.2971  2.3912
 9103TIP3   OH248799   4.260   3.785   5.818  0.3731  0.2115 -0.2257
 9103TIP3    H148800   4.327   3.849   5.842  0.0107  0.7750 -0.7147
 9103TIP3    H248801   4.268   3.716   5.884  0.4151  1.0119  0.6124
 9104TIP3   OH248802   5.600   0.699  15.136 -0.3059  0.6778 -0.1767
 9104TIP3    H148803   5.604   0.603  15.134 -2.9433  0.5387 -0.7510
 9104TIP3    H248804   5.625   0.722  15.226 -0.8892 -0.6332  0.3416
 9105TIP3   OH248805   1.739   2.166  14.247 -0.4135  0.2924 -0.0273
 9105TIP3    H148806   1.659   2.146  14.197 -1.5671  0.2171  1.8074
 9105TIP3    H248807   1.750   2.091  14.306  2.1057 -0.6052 -1.5517
 9106TIP3   OH248808   5.011   0.430   0.860 -0.5333 -0.3600  0.0377
 9106TIP3    H148809   4.926   0.414   0.818 -0.7391  0.3780  0.1569
 9106TIP3    H248810   5.049   0.343   0.873 -0.2693 -0.5799 -2.0893
 9107TIP3   OH248811   1.700   2.688   2.256 -0.2588  0.0051 -0.2246
 9107TIP3    H148812   1.654   2.770   2.236  0.0362  0.3707  0.5550
 9107TIP3    H248813   1.793   2.712   2.257 -0.0933 -0.5904 -1.1336
 9108TIP3   OH248814   3.645   6.115   2.296  0.0782 -0.3623 -0.3117
 9108TIP3    H148815   3.567   6.101   2.241 -0.3653  0.1193  0.1833
 9108TIP3    H248816   3.612   6.164   2.372  0.7416 -0.7739  0.2434
 9109TIP3   OH248817   0.995   6.558  14.412 -0.0297 -0.1677 -0.6076
 9109TIP3    H148818   1.065   6.572  14.348 -0.1687  2.0635 -0.3224
 9109TIP3    H248819   0.918   6.536  14.360 -0.3107  2.3095 -1.3063
 9110TIP3   OH248820   4.483   1.077   4.406 -0.3222 -0.0975  0.8068
 9110TIP3    H148821   4.555   1.075   4.469  1.2768 -0.3535 -1.0106
 9110TIP3    H248822   4.478   1.168   4.378  0.3015 -0.3791 -0.2192
 9111TIP3   OH248823   3.914   0.651  17.154  0.4686 -0.7351  0.1966
 9111TIP3    H148824   3.864   0.584  17.200 -3.6883  0.9294 -1.6595
 9111TIP3    H248825   3.920   0.620  17.064 -0.8288  0.9530 -0.5081
 9112TIP3   OH248826   5.694   6.216  13.378 -0.0723 -0.2795 -0.1996
 9112TIP3    H148827   5.643   6.295  13.362 -0.0535 -0.2844 -0.2821
 9112TIP3    H248828   5.747   6.237  13.455 -0.1698 -0.2610 -0.1374
 9113TIP3   OH248829   1.669   6.091   2.953 -0.2925 -0.2155 -0.1799
 9113TIP3    H148830   1.600   6.040   2.996  0.4187 -1.0181  0.0222
 9113TIP3    H248831   1.730   6.025   2.919  1.0997  0.5096  0.8508
 9114TIP3   OH248832   4.903   0.962  16.947  0.0286 -0.0062  0.1516
 9114TIP3    H148833   4.834   0.922  16.894  0.0702  0.6184 -0.3855
 9114TIP3    H248834   4.856   1.019  17.008  0.0870  0.6621 -0.4268
 9115TIP3   OH248835   2.177   5.804  15.105  0.0670 -0.1922  0.6610
 9115TIP3    H148836   2.171   5.804  15.201  0.0660 -2.0115  0.6827
 9115TIP3    H248837   2.266   5.773  15.087  0.0875  0.2130  0.0720
 9116TIP3   OH248838   5.227   6.574   1.142  0.1983  0.5274  0.0106
 9116TIP3    H148839   5.251   6.490   1.104  2.0539  0.6499  0.8757
 9116TIP3    H248840   5.212   6.631   1.067  2.0941  0.2904 -0.5718
 9117TIP3   OH248841   3.052   5.500   1.917  0.0028 -0.1849  0.6119
 9117TIP3    H148842   2.967   5.478   1.955 -0.1906 -1.2457 -0.4151
 9117TIP3    H248843   3.102   5.418   1.922  0.6890  0.2262  0.4736
 9118TIP3   OH248844   1.493   0.043  11.836 -0.2410 -0.5772 -0.1213
 9118TIP3    H148845   1.533   0.123  11.802  0.6318  0.6591  3.5061
 9118TIP3    H248846   1.413   0.032  11.785  0.0775  2.1160 -1.2847
 9119TIP3   OH248847   2.802   3.033  12.038  0.2147 -0.5762  0.0000
 9119TIP3    H148848   2.731   3.090  12.068 -0.2790  0.0741 -2.2503
 9119TIP3    H248849   2.798   3.040  11.942  3.9197  0.2268 -0.1651
 9120TIP3   OH248850   4.429   1.495   0.970  0.3113  0.4102 -0.7061
 9120TIP3    H148851   4.337   1.493   0.997  0.1983 -2.4974 -1.2277
 9120TIP3    H248852   4.427   1.531   0.881 -0.3214  0.3556 -0.7160
 9121TIP3   OH248853   2.866   6.556  12.638 -0.4394  0.1189  0.4498
 9121TIP3    H148854   2.840   6.639  12.597 -0.6584 -0.6641 -1.0089
 9121TIP3    H248855   2.925   6.582  12.709  0.0674  1.4721 -0.4508
 9122TIP3   OH248856   6.279   3.169  12.101  0.0986 -0.3372 -0.4633
 9122TIP3    H148857   6.292   3.261  12.124  1.5565 -0.4972 -0.6095
 9122TIP3    H248858   6.306   3.163  12.009 -0.5039 -0.8099 -0.6181
 9123TIP3   OH248859   1.065   2.166   1.801  0.6712 -0.3724  0.6726
 9123TIP3    H148860   0.983   2.144   1.844  0.2530 -0.8527 -0.3424
 9123TIP3    H248861   1.126   2.184   1.872  0.0509 -1.3480  1.4539
 9124TIP3   OH248862   5.157   6.352   4.633 -0.0749  0.7195 -0.2032
 9124TIP3    H148863   5.138   6.293   4.560 -0.5218  2.3428 -1.4087
 9124TIP3    H248864   5.083   6.412   4.637 -0.4605  0.1483  2.1277
 9125TIP3   OH248865   2.787   5.761   1.525 -0.4164 -0.0044 -0.1287
 9125TIP3    H148866   2.858   5.825   1.525 -1.5207  1.2527 -1.1479
 9125TIP3    H248867   2.821   5.686   1.574 -0.2432  2.6376  4.0423
 9126TIP3   OH248868   6.611   1.864   3.562 -0.5299 -0.2479  0.1824
 9126TIP3    H148869   6.652   1.863   3.648  1.3520  0.5768 -0.6537
 9126TIP3    H248870   6.611   1.957   3.537  2.1249 -0.8042 -2.1133
 9127TIP3   OH248871   4.628   5.414   0.485 -0.2006  0.2291 -0.3437
 9127TIP3    H148872   4.579   5.485   0.527 -1.6424  0.0388 -1.6780
 9127TIP3    H248873   4.670   5.455   0.410  0.9004  0.1664  0.2237
 9128TIP3   OH248874   1.765   4.190   5.392  0.4495 -0.2111  0.7210
 9128TIP3    H148875   1.834   4.164   5.451 -0.6404  0.9187  2.5586
 9128TIP3    H248876   1.689   4.137   5.418 -0.3900  1.2012  1.2268
 9129TIP3   OH248877   6.350   4.551   2.817 -0.0308 -0.0479 -0.9903
 9129TIP3    H148878   6.444   4.535   2.808 -0.3826 -2.1347 -1.3858
 9129TIP3    H248879   6.343   4.617   2.886  1.6732 -0.9493  0.0753
 9130TIP3   OH248880   1.444   6.675   6.590  0.1925 -0.0024 -0.4775
 9130TIP3    H148881   1.352   6.648   6.600  0.3144 -1.1381 -2.1927
 9130TIP3    H248882   1.493   6.600   6.625  0.4837 -0.3280 -1.5746
 9131TIP3   OH248883   1.996   5.803  12.114  0.1400  0.2210 -0.1038
 9131TIP3    H148884   2.040   5.882  12.082  1.1236 -0.9404 -1.7272
 9131TIP3    H248885   2.066   5.739  12.125 -0.6710 -0.5039  0.9951
 9132TIP3   OH248886   1.472   5.707  15.560 -0.7845  0.1757  0.4169
 9132TIP3    H148887   1.498   5.796  15.536 -0.8982  0.3249  0.8381
 9132TIP3    H248888   1.424   5.718  15.642  2.2786 -0.6416  2.4169
 9133TIP3   OH248889   4.311   2.856   2.360  0.5367 -0.1014  0.1977
 9133TIP3    H148890   4.313   2.825   2.450 -0.2866  1.1620  0.6646
 9133TIP3    H248891   4.260   2.791   2.313  1.1111 -0.8516  0.6089
 9134TIP3   OH248892   6.729   0.552   3.547  0.0195  0.2332 -0.1356
 9134TIP3    H148893   6.711   0.505   3.466  0.6441 -0.6134  0.2149
 9134TIP3    H248894   6.803   0.505   3.587  0.6494  1.4895  0.2178
 9135TIP3   OH248895   2.347   0.322   0.222 -0.3951  0.4587 -0.2663
 9135TIP3    H148896   2.321   0.354   0.309  1.7295 -1.6348  1.1943
 9135TIP3    H248897   2.442   0.311   0.228 -0.1712  0.6210 -2.9902
 9136TIP3   OH248898   2.565   2.114  12.944  0.0930  0.5461 -0.1235
 9136TIP3    H148899   2.644   2.068  12.917 -1.6912 -2.7527  0.1015
 9136TIP3    H248900   2.591   2.161  13.024  2.3376  1.2015 -1.1969
 9137TIP3   OH248901   5.288   2.396  16.977  0.5322  0.1098 -0.1876
 9137TIP3    H148902   5.331   2.482  16.984 -1.4729  1.1730 -0.4025
 9137TIP3    H248903   5.195   2.416  16.988 -0.3132 -1.5739 -3.7867
 9138TIP3   OH248904   3.961   2.139  10.751 -0.3502 -0.2505  0.4162
 9138TIP3    H148905   3.872   2.104  10.742  0.4855 -1.8449 -2.4396
 9138TIP3    H248906   3.963   2.214  10.692  0.8057 -1.5832 -1.3093
 9139TIP3   OH248907   1.457   0.259  12.976 -0.6460 -0.2870 -0.2053
 9139TIP3    H148908   1.549   0.261  13.002 -1.0939  0.2923  1.3707
 9139TIP3    H248909   1.454   0.196  12.904  0.7291 -1.4607  0.7348
 9140TIP3   OH248910   6.640   1.460  11.825 -0.0950  0.8650 -0.5304
 9140TIP3    H148911   6.590   1.498  11.753  0.3511 -0.1973 -1.4108
 9140TIP3    H248912   6.701   1.400  11.783 -1.3163 -1.4341  0.8762
 9141TIP3   OH248913   0.983   1.356  13.011 -0.3231  0.0621 -0.1611
 9141TIP3    H148914   0.926   1.418  12.965 -0.4497  1.0252  1.2610
 9141TIP3    H248915   1.035   1.411  13.070  1.4026 -0.9065 -0.7248
 9142TIP3   OH248916   1.174   0.369  15.685  0.1167 -0.3548  0.8690
 9142TIP3    H148917   1.185   0.362  15.780 -2.8928  0.4550  1.3109
 9142TIP3    H248918   1.146   0.460  15.671  0.4661 -0.4952 -0.8076
 9143TIP3   OH248919   0.708   4.026   3.579  0.1899  0.5486 -0.5010
 9143TIP3    H148920   0.614   4.014   3.587  0.1108  1.2417 -0.3469
 9143TIP3    H248921   0.743   3.937   3.574 -0.4259  0.2703 -0.0232
 9144TIP3   OH248922   5.378   5.217  16.677 -0.4998 -0.7924  0.6702
 9144TIP3    H148923   5.459   5.228  16.727 -0.6778  0.2535  0.7492
 9144TIP3    H248924   5.310   5.205  16.743 -0.9476  1.9686  0.7838
 9145TIP3   OH248925   5.774   2.230  12.192 -0.2083 -0.7774 -0.0239
 9145TIP3    H148926   5.838   2.224  12.262  0.4271 -2.0795 -0.6932
 9145TIP3    H248927   5.818   2.282  12.124 -1.0356  0.9742  0.7478
 9146TIP3   OH248928   1.284   5.594  13.540  0.0668  0.6594  0.6232
 9146TIP3    H148929   1.365   5.632  13.575  0.6505 -0.8262  0.9358
 9146TIP3    H248930   1.313   5.524  13.482 -1.0038 -0.1591  1.0545
 9147TIP3   OH248931   0.375   2.752   6.226 -0.1701  0.6254 -0.2086
 9147TIP3    H148932   0.326   2.691   6.280 -0.1957 -1.2152 -2.2518
 9147TIP3    H248933   0.307   2.800   6.178 -0.0750  0.5794 -0.3877
 9148TIP3   OH248934   2.257   3.537  14.449 -0.0513 -0.1050  0.3002
 9148TIP3    H148935   2.244   3.451  14.410  1.8411 -0.3833  0.2420
 9148TIP3    H248936   2.305   3.587  14.383 -0.9777  0.9310  0.4010
 9149TIP3   OH248937   4.965   4.654   4.517  0.5359 -0.1915  0.1535
 9149TIP3    H148938   4.873   4.672   4.536  0.2497  0.1632 -1.5159
 9149TIP3    H248939   5.006   4.645   4.604 -1.3588 -1.8783  0.9125
 9150TIP3   OH248940   0.491   4.984   3.884 -0.7754 -0.0168 -0.1603
 9150TIP3    H148941   0.431   5.053   3.909 -0.3744  0.0660  0.5800
 9150TIP3    H248942   0.488   4.983   3.788 -0.6448  1.1451 -0.1727
 9151TIP3   OH248943   3.389   6.453  16.750  0.0126 -0.1417 -0.1228
 9151TIP3    H148944   3.381   6.548  16.739  0.4877 -0.2583 -1.6554
 9151TIP3    H248945   3.340   6.417  16.676 -2.0051 -1.1406  1.6583
 9152TIP3   OH248946   1.874   4.818  14.319  0.5939  0.2754  0.0014
 9152TIP3    H148947   1.852   4.729  14.345 -0.1038  0.0251 -1.4363
 9152TIP3    H248948   1.810   4.872  14.367  0.4278 -0.0515  0.1549
 9153TIP3   OH248949   4.423   2.922  15.190 -0.3809 -0.7740 -0.3787
 9153TIP3    H148950   4.411   2.850  15.252  0.1476 -0.9706 -0.5031
 9153TIP3    H248951   4.496   2.972  15.226 -0.1002 -0.8631 -0.8229
 9154TIP3   OH248952   5.220   0.520  15.606 -0.1458 -0.7217 -0.0900
 9154TIP3    H148953   5.124   0.524  15.602 -0.0891  0.7873 -0.1182
 9154TIP3    H248954   5.239   0.471  15.686 -0.9318 -0.3063  0.3566
 9155TIP3   OH248955   2.433   1.077  13.614  0.3789 -0.1101 -0.3364
 9155TIP3    H148956   2.469   0.999  13.571  2.7583  0.5052  0.4613
 9155TIP3    H248957   2.426   1.142  13.543  0.4785 -0.3435 -0.5602
 9156TIP3   OH248958   3.189   3.397   0.030 -0.2244 -0.1509  0.3914
 9156TIP3    H148959   3.195   3.492   0.046 -0.0341 -0.3567  1.6193
 9156TIP3    H248960   3.140   3.363   0.105 -0.5298 -0.9964 -0.1823
 9157TIP3   OH248961   5.230   3.458  11.448  0.3533  0.4747  0.5353
 9157TIP3    H148962   5.221   3.442  11.541  0.2421 -1.5303  0.2018
 9157TIP3    H248963   5.273   3.380  11.414  2.2563  2.0411 -0.7950
 9158TIP3   OH248964   5.277   3.177  11.372 -0.0625 -0.3317  0.6327
 9158TIP3    H148965   5.219   3.122  11.319  0.0341 -0.3100  0.5044
 9158TIP3    H248966   5.312   3.117  11.437  2.0380 -1.0162 -1.0848
 9159TIP3   OH248967   2.194   1.459  12.972 -0.0511 -0.1869  0.6125
 9159TIP3    H148968   2.126   1.521  12.995 -0.1341  0.2340 -0.6866
 9159TIP3    H248969   2.157   1.408  12.900  0.3126 -1.2126  1.1345
 9160TIP3   OH248970   3.098   5.850   3.483 -0.1664 -0.0121 -0.5388
 9160TIP3    H148971   3.058   5.831   3.398 -0.8008  0.2781 -0.3075
 9160TIP3    H248972   3.064   5.783   3.542 -2.1629  1.5988  0.2044
 9161TIP3   OH248973   4.813   0.390  11.312  0.3477  0.1132 -0.2829
 9161TIP3    H148974   4.752   0.403  11.385  0.4584  1.2727 -0.3942
 9161TIP3    H248975   4.790   0.458  11.249  1.8899  0.6704 -0.2495
 9162TIP3   OH248976   1.617   4.231   3.960 -0.1569 -0.0376 -0.1200
 9162TIP3    H148977   1.629   4.150   3.909  0.4014  0.0538 -0.1364
 9162TIP3    H248978   1.556   4.206   4.030  0.8215 -0.7420  0.4969
 9163TIP3   OH248979   6.472   0.304   0.450 -0.0114  0.4151  0.6933
 9163TIP3    H148980   6.416   0.308   0.527  0.1924  0.9070  0.8181
 9163TIP3    H248981   6.547   0.251   0.478 -1.4563 -2.1834 -0.1568
 9164TIP3   OH248982   2.961   0.829  12.600 -0.0112 -0.9990 -0.9601
 9164TIP3    H148983   3.027   0.799  12.662 -0.4440 -2.4948 -1.1955
 9164TIP3    H248984   2.881   0.837  12.652 -0.1023 -1.0864 -1.0885
 9165TIP3   OH248985   3.072   6.540   2.880  0.8424  0.2634  0.2785
 9165TIP3    H148986   3.040   6.471   2.823  1.3179  0.5375 -0.3212
 9165TIP3    H248987   3.066   6.503   2.968 -1.2541  0.3561  0.1992
 9166TIP3   OH248988   5.369   5.929  12.162  0.4154  0.0370  0.3572
 9166TIP3    H148989   5.283   5.966  12.181  0.0576 -0.4458 -0.2930
 9166TIP3    H248990   5.361   5.894  12.073  1.4067  0.3465  0.1420
 9167TIP3   OH248991   3.220   5.067  14.186  0.2030 -0.1020  0.0055
 9167TIP3    H148992   3.143   5.023  14.223  1.2180 -0.9489  1.1549
 9167TIP3    H248993   3.213   5.052  14.092 -1.7297  0.9659 -0.0518
 9168TIP3   OH248994   4.297   5.986  15.116 -0.0053  0.1860 -0.3593
 9168TIP3    H148995   4.229   5.966  15.051  0.9156 -1.5939 -0.8068
 9168TIP3    H248996   4.249   5.996  15.198 -1.0201  0.9158 -1.0170
 9169TIP3   OH248997   6.756   5.539   3.945  0.0022  0.3348 -0.2859
 9169TIP3    H148998   6.724   5.544   3.855  1.1406 -0.4395 -0.7398
 9169TIP3    H248999   6.699   5.599   3.993 -0.8797  0.4550 -1.4354
 9170TIP3   OH249000   0.365   0.064  14.737  0.1704  0.0514 -0.4641
 9170TIP3    H149001   0.295   0.012  14.698  0.9709  0.7795 -3.0039
 9170TIP3    H249002   0.349   0.153  14.706 -0.8114  1.2761  3.2840
 9171TIP3   OH249003   5.331   1.368  16.676 -0.3308 -0.1896  0.5753
 9171TIP3    H149004   5.337   1.295  16.739  0.6527 -0.1690  0.5168
 9171TIP3    H249005   5.263   1.341  16.615  0.1894 -1.1841  0.4145
 9172TIP3   OH249006   4.649   2.067  13.757 -0.1703 -0.0409  0.4401
 9172TIP3    H149007   4.638   2.035  13.667 -1.6239 -0.3380  0.7157
 9172TIP3    H249008   4.574   2.125  13.772  1.2695  1.7868  0.7082
 9173TIP3   OH249009   2.573   6.019   4.736 -0.4663  0.5616  0.0058
 9173TIP3    H149010   2.645   5.956   4.747 -2.2000 -1.4870 -0.0315
 9173TIP3    H249011   2.615   6.098   4.705  1.6901 -0.9006 -0.9226
 9174TIP3   OH249012   3.388   3.146   4.252  0.1019  0.2971  0.7470
 9174TIP3    H149013   3.428   3.140   4.166 -1.0326 -1.7809  0.3275
 9174TIP3    H249014   3.352   3.235   4.256  1.3354  0.8525 -0.3790
 9175TIP3   OH249015   0.346   2.788   3.432 -0.4455  0.0531  0.2570
 9175TIP3    H149016   0.315   2.824   3.515 -1.7843 -1.0524  0.2581
 9175TIP3    H249017   0.365   2.696   3.451 -2.1563 -0.5772 -0.9963
 9176TIP3   OH249018   3.823   2.276   4.294 -0.0843 -0.0736 -0.1978
 9176TIP3    H149019   3.760   2.298   4.363  0.4760 -1.5556  0.8207
 9176TIP3    H249020   3.838   2.182   4.304  0.8529 -0.1045 -1.6487
 9177TIP3   OH249021   6.387   2.926   0.388  0.2548 -0.1156 -0.1144
 9177TIP3    H149022   6.364   2.842   0.349  1.1051 -0.6285  0.4661
 9177TIP3    H249023   6.304   2.972   0.399 -0.2829 -1.1536  0.1959
 9178TIP3   OH249024   3.368   6.097   4.701 -0.1267 -0.0571  0.3627
 9178TIP3    H149025   3.412   6.040   4.763  2.1712  1.2406 -0.0085
 9178TIP3    H249026   3.300   6.140   4.752  2.6789  2.1241  2.4269
 9179TIP3   OH249027   4.408   4.450   2.008  0.7666 -0.2363  0.0226
 9179TIP3    H149028   4.317   4.474   2.021  0.6746  0.7305 -2.2327
 9179TIP3    H249029   4.418   4.442   1.913  2.7306 -1.4931  0.2987
 9180TIP3   OH249030   5.716   0.185   2.557 -0.0128  0.2290 -0.0802
 9180TIP3    H149031   5.700   0.107   2.504 -2.1712  0.1561  0.6201
 9180TIP3    H249032   5.746   0.251   2.494  0.1787 -0.6677 -0.9461
 9181TIP3   OH249033   0.461   6.514  13.159  0.1319  0.1384 -0.4748
 9181TIP3    H149034   0.404   6.550  13.091 -0.5463  0.0865  0.0573
 9181TIP3    H249035   0.409   6.445  13.199  0.7182 -0.1633 -0.2347
 9182TIP3   OH249036   1.660   6.571   4.537 -0.3435  0.6385  0.2105
 9182TIP3    H149037   1.626   6.489   4.572 -1.2004  0.9590  0.1300
 9182TIP3    H249038   1.616   6.639   4.587  0.2076  1.0594  0.1338
 9183TIP3   OH249039   1.533   4.024  11.884  0.0431  0.1609  0.2248
 9183TIP3    H149040   1.465   4.004  11.947  0.7000  0.4075  1.0213
 9183TIP3    H249041   1.553   3.941  11.841  0.5645 -0.2880  1.3153
 9184TIP3   OH249042   2.457   1.124   1.469 -0.3546 -0.2731 -0.2156
 9184TIP3    H149043   2.493   1.104   1.383 -2.1239 -1.6648 -0.6826
 9184TIP3    H249044   2.530   1.159   1.519  0.8507 -0.0759 -2.0767
 9185TIP3   OH249045   5.614   4.657  12.429 -0.3821  0.6138  0.1102
 9185TIP3    H149046   5.695   4.613  12.405  0.0380  1.4227  0.0166
 9185TIP3    H249047   5.642   4.740  12.469 -1.1659  1.2419 -0.6121
 9186TIP3   OH249048   0.482   2.782  12.753  0.6375  0.2785  0.7044
 9186TIP3    H149049   0.496   2.698  12.707 -0.5350  0.0413  0.7513
 9186TIP3    H249050   0.397   2.771  12.796 -0.0315  1.8967 -0.1842
 9187TIP3   OH249051   5.528   2.768  16.264  0.7316  0.1204 -0.0022
 9187TIP3    H149052   5.597   2.749  16.327 -0.4184  0.9257  1.5137
 9187TIP3    H249053   5.574   2.778  16.180  2.0506 -3.0540  0.2788
 9188TIP3   OH249054   5.781   5.652  13.936 -0.1428  0.9950 -0.6866
 9188TIP3    H149055   5.765   5.648  13.841 -1.2286  0.2672 -0.4876
 9188TIP3    H249056   5.694   5.649  13.975  0.3980 -2.4240  0.4431
 9189TIP3   OH249057   6.326   0.067   3.550  0.4512  0.2940  0.6658
 9189TIP3    H149058   6.262   0.038   3.484  2.1477 -1.8538 -0.1184
 9189TIP3    H249059   6.294   0.152   3.578 -0.8689  0.8436 -2.2405
 9190TIP3   OH249060   6.519   2.133   1.861 -0.1188 -0.0138 -0.2705
 9190TIP3    H149061   6.608   2.163   1.879 -0.2391 -0.4411  1.1214
 9190TIP3    H249062   6.529   2.065   1.794  0.9663 -2.3628  2.1753
 9191TIP3   OH249063   0.041   5.860   5.228  0.3647 -0.0263  0.2140
 9191TIP3    H149064   0.000   5.946   5.226  0.3035 -0.0498  0.4455
 9191TIP3    H249065   0.134   5.877   5.211  0.7436  0.3262  2.4595
 9192TIP3   OH249066   0.595   2.154  11.440 -0.1609  0.2631  0.4732
 9192TIP3    H149067   0.652   2.129  11.367 -0.6963 -0.4664  0.2978
 9192TIP3    H249068   0.590   2.075  11.495 -0.1443  0.6571  1.0446
 9193TIP3   OH249069   6.360   2.960  13.301 -0.0027  0.2712 -0.2561
 9193TIP3    H149070   6.434   3.017  13.284  0.6447 -0.8411 -1.2359
 9193TIP3    H249071   6.391   2.872  13.277 -1.2667 -0.3623  0.3671
 9194TIP3   OH249072   2.332   1.210   2.316  0.6386 -0.0503  0.0295
 9194TIP3    H149073   2.299   1.180   2.231  1.3553 -0.7554 -0.0054
 9194TIP3    H249074   2.263   1.268   2.349 -0.8204 -1.7998  0.1519
 9195TIP3   OH249075   0.121   1.537  13.128 -0.4583  0.7862 -0.0340
 9195TIP3    H149076   0.208   1.500  13.112  0.4115  2.6787  0.0895
 9195TIP3    H249077   0.098   1.580  13.045 -1.5455 -0.2013 -0.2557
 9196TIP3   OH249078   2.640   0.063  14.051  0.3955  0.4805  0.2598
 9196TIP3    H149079   2.633   0.074  13.956 -0.6224  2.6994  0.5636
 9196TIP3    H249080   2.708   0.125  14.077  1.9687 -1.4235  0.7786
 9197TIP3   OH249081   3.326   4.324  15.721 -0.2696  1.2663  0.0359
 9197TIP3    H149082   3.232   4.325  15.707 -0.5513 -1.3585  1.5729
 9197TIP3    H249083   3.339   4.373  15.802 -0.4912  0.1494  0.7522
 9198TIP3   OH249084   5.988   5.559   1.698 -0.1378 -0.1425 -0.0556
 9198TIP3    H149085   6.064   5.563   1.639 -0.8630  0.1254 -0.9894
 9198TIP3    H249086   6.026   5.546   1.785  0.8358 -4.3054 -0.9988
 9199TIP3   OH249087   4.625   1.799  11.833 -0.6991  0.1175  0.0334
 9199TIP3    H149088   4.698   1.757  11.788 -0.8121 -0.9063  0.7930
 9199TIP3    H249089   4.575   1.840  11.762 -0.4906 -0.8745 -0.7130
 9200TIP3   OH249090   4.168   0.348   2.922  0.7403 -0.6891  0.4497
 9200TIP3    H149091   4.242   0.292   2.896  0.9131  0.2519 -1.1342
 9200TIP3    H249092   4.161   0.412   2.852 -0.1517  0.6365  1.7275
 9201TIP3   OH249093   2.059   6.217   3.960 -0.4265 -0.0322  0.2969
 9201TIP3    H149094   2.152   6.217   3.983 -0.0929 -0.9216 -0.9998
 9201TIP3    H249095   2.016   6.253   4.037  0.9606  0.0438  1.0625
 9202TIP3   OH249096   1.897   2.463   4.680  0.4788 -0.2197  0.0301
 9202TIP3    H149097   1.960   2.408   4.633  0.0345  0.0508 -0.8863
 9202TIP3    H249098   1.819   2.463   4.625  0.1740  0.6195  0.4484
 9203TIP3   OH249099   1.701   3.010  14.730  0.3066  0.1347 -0.1783
 9203TIP3    H149100   1.764   2.990  14.661 -0.2114 -0.9011 -0.3592
 9203TIP3    H249101   1.635   2.941  14.723 -0.4993  0.8368  0.4327
 9204TIP3   OH249102   5.414   4.758  15.670 -0.5520 -0.4868 -0.0550
 9204TIP3    H149103   5.362   4.706  15.609  0.2352  0.7333 -1.8203
 9204TIP3    H249104   5.471   4.811  15.614  1.5329 -0.6836  1.7911
 9205TIP3   OH249105   1.086   4.229   3.167 -0.2314  0.8105 -0.4544
 9205TIP3    H149106   1.018   4.181   3.121  0.9970 -2.2524  0.7325
 9205TIP3    H249107   1.052   4.242   3.256 -0.6933  2.4949 -0.8583
 9206TIP3   OH249108   2.584   4.632  12.677  0.2479 -0.0092 -1.0371
 9206TIP3    H149109   2.494   4.644  12.709  1.4160  2.4338  1.5145
 9206TIP3    H249110   2.576   4.636  12.582 -2.5800 -1.8139 -0.9555
 9207TIP3   OH249111   2.941   2.660  16.874  0.6245  0.0581  0.0404
 9207TIP3    H149112   2.893   2.577  16.862  2.2694 -0.8077 -0.7788
 9207TIP3    H249113   3.025   2.644  16.831  2.4076  0.8804  3.1426
 9208TIP3   OH249114   2.784   4.954  10.725  0.1095 -0.5553 -0.1254
 9208TIP3    H149115   2.707   4.969  10.671  0.9182 -0.5354 -1.2906
 9208TIP3    H249116   2.858   4.978  10.669  1.0779 -2.4633  0.2718
 9209TIP3   OH249117   6.020   0.121   4.535 -0.5231  0.2852 -0.3340
 9209TIP3    H149118   6.039   0.041   4.486  0.4332  0.2096  0.1378
 9209TIP3    H249119   5.937   0.153   4.499  0.0631  0.1281 -1.8421
 9210TIP3   OH249120   1.470   3.597   2.470 -0.2147  0.1672 -0.0047
 9210TIP3    H149121   1.388   3.550   2.485  1.1291 -2.1738  0.2585
 9210TIP3    H249122   1.537   3.528   2.463  1.1706  1.7465 -4.2378
 9211TIP3   OH249123   3.151   3.402  11.449  0.4639  0.7761 -0.4299
 9211TIP3    H149124   3.214   3.331  11.461  0.3285  1.0434  1.9916
 9211TIP3    H249125   3.143   3.443  11.535 -0.6010  2.7915 -1.4412
 9212TIP3   OH249126   3.441   2.762   2.068  0.1331  0.0573  0.1089
 9212TIP3    H149127   3.408   2.707   1.997  0.1627  0.7384 -0.4397
 9212TIP3    H249128   3.364   2.780   2.123 -0.4967  1.8963 -1.3351
 9213TIP3   OH249129   5.533   2.319  14.925 -0.3466  0.3150  0.4151
 9213TIP3    H149130   5.618   2.325  14.969  0.4127  1.2848 -1.1541
 9213TIP3    H249131   5.535   2.235  14.881 -0.9242 -0.4528  1.8179
 9214TIP3   OH249132   0.004   2.265  12.552  0.8162 -0.0419 -0.0098
 9214TIP3    H149133  -0.021   2.340  12.606 -2.0836 -1.4084  0.6478
 9214TIP3    H249134   0.081   2.229  12.596 -0.3391  0.0274  2.1552
 9215TIP3   OH249135   0.096   5.892  15.378  0.4342 -0.0175  0.5725
 9215TIP3    H149136   0.063   5.931  15.297  2.2156  0.2725 -0.0427
 9215TIP3    H249137   0.076   5.799  15.369 -2.9349  0.5222  1.6033
 9216TIP3   OH249138   3.959   2.530   1.591  0.0303  0.8305 -0.0791
 9216TIP3    H149139   3.964   2.625   1.595 -0.4584  0.8914 -0.7338
 9216TIP3    H249140   4.020   2.499   1.658 -0.0164  1.6038  0.3196
 9217TIP3   OH249141   3.481   1.586   6.048 -0.1971  0.3587  0.2769
 9217TIP3    H149142   3.401   1.615   6.092 -0.5700  0.7961 -0.6663
 9217TIP3    H249143   3.494   1.496   6.077 -2.0209 -0.3164 -0.9321
 9218TIP3   OH249144   3.871   1.151   5.853  0.0683  0.0112  0.0330
 9218TIP3    H149145   3.779   1.174   5.858  0.0942 -0.3176  3.1910
 9218TIP3    H249146   3.907   1.207   5.785 -2.2684  0.8168 -0.5643
 9219TIP3   OH249147   3.255   2.165   5.122 -0.3854  0.1715  0.2950
 9219TIP3    H149148   3.217   2.081   5.098 -0.2258  0.6668 -1.8425
 9219TIP3    H249149   3.340   2.143   5.162 -0.5634 -0.6922  0.1934
 9220TIP3   OH249150   2.320   3.732  14.238  0.2985  0.1111 -0.0935
 9220TIP3    H149151   2.390   3.741  14.174  0.6764 -0.8827  0.1804
 9220TIP3    H249152   2.326   3.811  14.292  1.6334 -0.2898  0.3505
 9221TIP3   OH249153   5.557   5.085  16.466 -0.4379 -0.3129  0.3338
 9221TIP3    H149154   5.490   5.154  16.476 -0.5998  0.2775 -4.0159
 9221TIP3    H249155   5.509   5.003  16.477 -1.5919  0.1508 -1.0823
 9222TIP3   OH249156   6.667   4.713   5.451 -0.2778 -0.5612 -0.7074
 9222TIP3    H149157   6.675   4.709   5.356 -2.2148  1.0571 -0.9574
 9222TIP3    H249158   6.733   4.778   5.478 -0.0828 -0.6452 -0.9798
 9223TIP3   OH249159   3.528   1.785  15.885  0.0908 -0.5135  0.0138
 9223TIP3    H149160   3.550   1.878  15.885 -2.6950  0.2138  0.2622
 9223TIP3    H249161   3.549   1.755  15.797  1.4445  0.2230  0.0696
 9224TIP3   OH249162   4.687   2.851   1.992 -0.0996  0.0160 -0.6026
 9224TIP3    H149163   4.592   2.838   1.985  0.1659 -1.3640 -1.9436
 9224TIP3    H249164   4.711   2.899   1.913  0.6153 -1.5723 -1.3789
 9225TIP3   OH249165   4.015   5.742  12.133 -0.7256  0.1099 -0.3275
 9225TIP3    H149166   4.009   5.759  12.227  1.3258 -0.4516 -0.0672
 9225TIP3    H249167   4.108   5.749  12.113 -1.3523  2.3026 -2.7455
 9226TIP3   OH249168   1.897   2.386   0.396 -0.3483  0.4075  0.6635
 9226TIP3    H149169   1.947   2.349   0.469 -0.8851  0.4319  1.0510
 9226TIP3    H249170   1.861   2.467   0.432 -1.0449  0.1556  0.5355
 9227TIP3   OH249171   1.798   3.118  17.143  0.2923  0.1731  0.1040
 9227TIP3    H149172   1.716   3.166  17.134  0.5839  0.5843 -0.4266
 9227TIP3    H249173   1.835   3.118  17.055  0.1220 -1.3532  0.0306
 9228TIP3   OH249174   3.856   1.851  12.303 -0.2897  0.1087 -0.4118
 9228TIP3    H149175   3.911   1.777  12.327 -0.9814 -0.3481 -0.2213
 9228TIP3    H249176   3.917   1.922  12.285  0.3485 -0.3277  0.0327
 9229TIP3   OH249177   4.107   5.502  16.366 -0.0152  0.1887  0.3784
 9229TIP3    H149178   4.198   5.524  16.387 -0.5864  0.3614  2.8047
 9229TIP3    H249179   4.060   5.585  16.377 -0.5747 -0.0459 -0.2378
 9230TIP3   OH249180   1.812   1.155   4.685  0.0237  0.5389 -0.2490
 9230TIP3    H149181   1.873   1.123   4.618 -0.2593 -1.1814  0.3130
 9230TIP3    H249182   1.728   1.118   4.661 -0.0064 -0.4022  1.2674
 9231TIP3   OH249183   6.277   4.607   0.065 -0.4485 -0.1557  0.6045
 9231TIP3    H149184   6.313   4.535   0.117  1.5499 -0.9757 -1.8138
 9231TIP3    H249185   6.184   4.588   0.059  0.2116 -3.1735 -0.9298
 9232TIP3   OH249186   5.151   5.490  17.279  0.2370 -0.1837  0.4321
 9232TIP3    H149187   5.178   5.572  17.320 -0.1216  0.0619  0.1855
 9232TIP3    H249188   5.061   5.476  17.310  0.5322 -0.8367  1.0125
 9233TIP3   OH249189   2.716   1.357   0.306  0.6614 -0.0192  0.2898
 9233TIP3    H149190   2.625   1.368   0.277  1.4198 -0.2397 -2.3025
 9233TIP3    H249191   2.710   1.298   0.381 -1.3954  0.5363  0.5992
 9234TIP3   OH249192   6.820   3.649   3.034  0.1861  0.0553 -0.3870
 9234TIP3    H149193   6.795   3.619   2.946  0.6042  0.0465 -0.5025
 9234TIP3    H249194   6.741   3.636   3.087  0.1037 -0.4445 -0.6356
 9235TIP3   OH249195   2.988   6.349  10.724 -0.1367 -0.5390 -0.2558
 9235TIP3    H149196   3.081   6.372  10.728 -0.5844  1.2418  0.7089
 9235TIP3    H249197   2.983   6.261  10.759  0.9909 -0.0166  1.2780
 9236TIP3   OH249198   6.580   5.075  12.040  0.3244 -0.4114  0.1911
 9236TIP3    H149199   6.639   5.070  11.965 -0.9270  0.8198 -0.8972
 9236TIP3    H249200   6.627   5.130  12.103  0.9501 -0.6179 -0.0840
 9237TIP3   OH249201   3.791   4.455   0.996  0.3048  0.2392 -0.0271
 9237TIP3    H149202   3.714   4.401   0.978  0.2038  0.2916  0.2467
 9237TIP3    H249203   3.760   4.545   0.990  0.0165  0.2543  1.4785
 9238TIP3   OH249204   3.871   5.423  16.487  0.7605 -0.0087  0.8199
 9238TIP3    H149205   3.873   5.328  16.481  0.1629  0.0871 -1.5308
 9238TIP3    H249206   3.944   5.452  16.431  1.0179  0.9160  1.6202
 9239TIP3   OH249207   2.580   3.725   3.826  0.8120  0.2370  0.1707
 9239TIP3    H149208   2.647   3.658   3.814  0.6936 -0.1214  1.4115
 9239TIP3    H249209   2.552   3.715   3.917 -0.7721  0.5305 -0.2636
 9240TIP3   OH249210   4.306   4.133  15.477 -0.5952  0.5582  1.4084
 9240TIP3    H149211   4.261   4.101  15.555  1.8452 -1.2191  2.1491
 9240TIP3    H249212   4.365   4.201  15.510  0.2356  0.0026  1.0794
 9241TIP3   OH249213   3.252   1.542   0.386  0.1235 -0.5085 -0.0082
 9241TIP3    H149214   3.204   1.530   0.469 -1.0087 -1.4284 -0.7818
 9241TIP3    H249215   3.195   1.597   0.333  0.9104  0.1863 -0.1411
 9242TIP3   OH249216   2.673   1.815  14.501 -0.5438  0.1605  0.0326
 9242TIP3    H149217   2.720   1.803  14.418 -0.9964 -0.3674 -0.1556
 9242TIP3    H249218   2.736   1.856  14.559 -0.3863  1.0393 -0.7462
 9243TIP3   OH249219   0.769   5.822  15.831 -0.0644 -0.4800 -0.4098
 9243TIP3    H149220   0.800   5.908  15.802 -1.3428  0.3832  0.7065
 9243TIP3    H249221   0.829   5.760  15.791  2.2477  1.0587  0.5948
 9244TIP3   OH249222   1.103   6.389   2.755 -0.0916 -0.3830  0.0078
 9244TIP3    H149223   1.064   6.380   2.843  0.2676  0.6407  0.2773
 9244TIP3    H249224   1.052   6.458   2.714  0.2487 -0.3267 -0.3167
 9245TIP3   OH249225   5.171   3.729  16.761 -0.3160  0.7171  0.0321
 9245TIP3    H149226   5.135   3.657  16.711  1.1785  0.3701 -0.5592
 9245TIP3    H249227   5.130   3.807  16.724 -1.1965  0.2639  0.0325
 9246TIP3   OH249228   2.772   1.836   3.506 -0.6790  0.5589 -0.2336
 9246TIP3    H149229   2.694   1.781   3.510  0.6144 -1.4620 -1.5962
 9246TIP3    H249230   2.783   1.869   3.596 -0.9539 -2.2134  0.8671
 9247TIP3   OH249231   1.748   0.904   5.575  0.6012  0.4750 -0.1370
 9247TIP3    H149232   1.734   0.985   5.624  0.1400 -0.7003  1.7207
 9247TIP3    H249233   1.709   0.921   5.489 -0.8578  1.6918  0.7479
 9248TIP3   OH249234   4.668   4.369   4.452 -0.4870 -0.6488  0.0680
 9248TIP3    H149235   4.750   4.351   4.407 -1.4655  1.4864 -2.6779
 9248TIP3    H249236   4.600   4.342   4.389 -1.8889 -0.5932  1.5302
 9249TIP3   OH249237   4.625   6.716   4.276  0.0095 -0.4840 -0.3961
 9249TIP3    H149238   4.671   6.687   4.197 -0.8508 -2.8562 -0.0600
 9249TIP3    H249239   4.535   6.686   4.265 -0.2267 -0.4489  1.2934
 9250TIP3   OH249240   4.519   2.124  13.375 -0.2429  0.4769 -0.9237
 9250TIP3    H149241   4.598   2.070  13.365 -1.1659 -1.0556 -0.0902
 9250TIP3    H249242   4.552   2.214  13.371  1.3476 -0.1144 -2.1928
 9251TIP3   OH249243   4.684   6.710   5.721 -0.2235  0.0112 -0.0185
 9251TIP3    H149244   4.732   6.627   5.716 -0.5585 -0.1168 -1.5890
 9251TIP3    H249245   4.731   6.768   5.661 -1.7501  0.0073 -1.2569
 9252TIP3   OH249246   1.286   1.612   3.834 -0.0327  0.3401  0.1605
 9252TIP3    H149247   1.252   1.596   3.746  0.4311  1.9369 -0.3203
 9252TIP3    H249248   1.345   1.539   3.850 -2.5919 -1.7664  0.4767
 9253TIP3   OH249249   1.287   2.810   2.424 -0.6795  0.5074 -0.2227
 9253TIP3    H149250   1.356   2.806   2.357  0.2367  0.1297  0.7348
 9253TIP3    H249251   1.205   2.805   2.374  0.0040 -0.4737 -1.2644
 9254TIP3   OH249252   3.666   0.217  12.315  0.5655  0.0650  0.3492
 9254TIP3    H149253   3.751   0.260  12.310  0.2462  0.7686  0.9142
 9254TIP3    H249254   3.673   0.158  12.390  0.8430 -0.5345 -0.1384
 9255TIP3   OH249255   2.592   4.524  10.588 -0.2802  0.1032 -0.1905
 9255TIP3    H149256   2.544   4.606  10.599 -0.3151 -0.0401  0.7733
 9255TIP3    H249257   2.678   4.541  10.627 -0.3372 -0.3651  0.1381
 9256TIP3   OH249258   6.092   4.395  15.290 -0.1879 -0.1287 -0.1523
 9256TIP3    H149259   6.101   4.471  15.347 -0.2215  0.7370 -1.2790
 9256TIP3    H249260   6.182   4.365  15.276  0.0866  1.4479 -1.9958
 9257TIP3   OH249261   4.006   6.605  11.366 -0.3872  0.0052  0.1972
 9257TIP3    H149262   3.950   6.616  11.443  0.5826 -1.1745  1.0933
 9257TIP3    H249263   3.947   6.579  11.296 -1.1214 -0.0267  0.8303
 9258TIP3   OH249264   4.532   4.547  12.931  0.5670  0.4199 -0.2147
 9258TIP3    H149265   4.594   4.524  13.000  1.7285 -0.2638 -1.4852
 9258TIP3    H249266   4.466   4.478  12.933  0.7827  0.2204 -0.0214
 9259TIP3   OH249267   3.900   3.404   2.988  0.9368 -0.4721 -0.0926
 9259TIP3    H149268   3.980   3.440   2.950 -0.0271  1.6227 -0.1791
 9259TIP3    H249269   3.896   3.314   2.954  1.5704  0.4327 -2.6897
 9260TIP3   OH249270   6.524   3.326   6.041 -0.7470 -0.2594  0.2593
 9260TIP3    H149271   6.558   3.239   6.021 -0.6366 -0.4097  1.0674
 9260TIP3    H249272   6.430   3.313   6.050 -0.5983 -0.5443  1.5869
 9261TIP3   OH249273   0.014   2.534   2.815 -0.0074 -0.0463 -0.1743
 9261TIP3    H149274  -0.015   2.623   2.792 -1.3865 -0.0567  1.4545
 9261TIP3    H249275   0.048   2.542   2.904  2.4690 -0.6137 -1.0359
 9262TIP3   OH249276   3.556   2.523  10.955 -0.0266  0.7900  0.3417
 9262TIP3    H149277   3.483   2.574  10.920  0.2157  1.1160  0.3112
 9262TIP3    H249278   3.616   2.515  10.881 -0.9884 -1.2832 -0.2589
 9263TIP3   OH249279   0.659   0.537  13.617 -0.3775 -0.4173  0.0555
 9263TIP3    H149280   0.626   0.615  13.573 -1.3224 -0.2683  1.0137
 9263TIP3    H249281   0.623   0.464  13.566  0.2446 -0.2362 -0.6511
 9264TIP3   OH249282   4.675   0.891  13.341 -0.5081  0.0138 -0.4026
 9264TIP3    H149283   4.614   0.962  13.360 -3.4370 -2.5520  0.2193
 9264TIP3    H249284   4.700   0.856  13.426  0.3676 -0.1531 -0.7195
 9265TIP3   OH249285   6.236   1.514  11.621 -0.0794 -0.1029 -0.1873
 9265TIP3    H149286   6.201   1.592  11.579  0.8429  0.4093 -0.0175
 9265TIP3    H249287   6.173   1.445  11.599 -1.2488  0.8228  0.2282
 9266TIP3   OH249288   3.841   1.025  12.380  0.0878  0.4097  0.0210
 9266TIP3    H149289   3.858   1.119  12.376  0.6593  0.2795 -0.7804
 9266TIP3    H249290   3.781   1.009  12.307 -1.9937  0.5419  1.6452
 9267TIP3   OH249291   5.627   2.021   4.198 -0.1951 -0.0378  0.1551
 9267TIP3    H149292   5.625   2.117   4.192 -1.8865 -0.0365  0.4363
 9267TIP3    H249293   5.720   2.000   4.207  0.0681  1.7343  2.3065
 9268TIP3   OH249294   6.269   3.026   1.255 -0.2503 -0.7605  0.5678
 9268TIP3    H149295   6.249   3.032   1.162 -0.6141 -1.1249  0.6236
 9268TIP3    H249296   6.195   3.068   1.299 -1.2567 -2.7303  0.8062
 9269TIP3   OH249297   5.040   2.473  14.243 -0.2541 -0.2650 -0.9004
 9269TIP3    H149298   4.995   2.396  14.276  0.9353  0.0163  1.4476
 9269TIP3    H249299   5.130   2.464  14.274  0.8309  0.2543 -3.7106
 9270TIP3   OH249300   2.266   6.717  17.218  0.7051  0.0360 -0.0356
 9270TIP3    H149301   2.280   6.811  17.210 -1.6623  0.4059 -0.0543
 9270TIP3    H249302   2.241   6.688  17.131 -1.9557  0.0154  0.6865
 9271TIP3   OH249303   2.639   2.303   3.239  0.1568  0.1648  0.1783
 9271TIP3    H149304   2.721   2.330   3.280 -0.1419  0.8396  0.3563
 9271TIP3    H249305   2.588   2.265   3.311  0.2960 -0.2147  0.0768
 9272TIP3   OH249306   0.413   4.696  11.425  0.1557 -0.0628  0.4117
 9272TIP3    H149307   0.411   4.615  11.374 -0.7328 -0.1655  0.6016
 9272TIP3    H249308   0.410   4.766  11.359 -3.1208 -0.1944  0.3636
 9273TIP3   OH249309   5.035   5.799  12.526 -0.6919  0.2808 -0.3457
 9273TIP3    H149310   4.979   5.797  12.603  0.2761 -1.8658  0.3449
 9273TIP3    H249311   4.978   5.829  12.455 -2.2454 -0.1340  0.7152
 9274TIP3   OH249312   0.174   6.231  17.004  0.0214 -0.3897  0.3509
 9274TIP3    H149313   0.172   6.149  16.954  1.3202  0.9314 -1.9300
 9274TIP3    H249314   0.084   6.264  16.999  0.0345 -0.5065 -0.7056
 9275TIP3   OH249315   4.878   5.200  15.183  0.2189  0.0334  0.2307
 9275TIP3    H149316   4.901   5.133  15.248 -0.6170 -0.6078 -0.1328
 9275TIP3    H249317   4.903   5.161  15.099 -2.7724 -0.9589 -0.2424
 9276TIP3   OH249318   5.750   1.657  16.571  0.2811 -0.1141 -0.1471
 9276TIP3    H149319   5.727   1.607  16.649  1.8618 -1.5223 -0.5402
 9276TIP3    H249320   5.805   1.597  16.520  0.0923  1.1430 -1.8542
 9277TIP3   OH249321   5.185   3.706  14.561 -0.4935  0.0316 -0.0796
 9277TIP3    H149322   5.263   3.655  14.542 -1.4026 -1.3002 -0.2485
 9277TIP3    H249323   5.130   3.648  14.614 -2.1427  0.3102 -1.4593
 9278TIP3   OH249324   0.075   2.802  10.344 -0.2417 -0.1300 -0.6770
 9278TIP3    H149325   0.160   2.786  10.386 -0.6746  0.1116  0.3043
 9278TIP3    H249326   0.061   2.725  10.289 -0.2087 -1.0146  0.5241
 9279TIP3   OH249327   2.808   4.421  12.805  0.4609 -0.4185  0.3502
 9279TIP3    H149328   2.716   4.397  12.790  0.2793 -0.8537  2.0628
 9279TIP3    H249329   2.851   4.339  12.830  2.0168 -0.8326 -3.3942
 9280TIP3   OH249330   6.058   6.678  13.736  0.2783 -0.4467 -0.5277
 9280TIP3    H149331   6.020   6.763  13.713  2.1417  0.4988 -0.2189
 9280TIP3    H249332   6.093   6.645  13.653 -0.4080 -0.9117 -0.6378
 9281TIP3   OH249333   6.305   1.977   4.049 -0.2188 -0.1128  0.0157
 9281TIP3    H149334   6.260   2.045   4.099 -0.6428 -0.1423 -0.3236
 9281TIP3    H249335   6.239   1.910   4.035  0.0780 -0.3949 -0.0309
 9282TIP3   OH249336   1.486   6.197  15.507 -0.6062 -0.1854 -0.6287
 9282TIP3    H149337   1.563   6.238  15.467 -0.6770 -0.2739 -0.8563
 9282TIP3    H249338   1.490   6.106  15.478  0.3479 -0.6977  1.0514
 9283TIP3   OH249339   6.582   4.725   1.281 -0.0531 -0.2735  0.3195
 9283TIP3    H149340   6.677   4.716   1.296  0.5709  1.9097 -1.9612
 9283TIP3    H249341   6.564   4.817   1.299 -1.1874 -0.0177 -2.0394
 9284TIP3   OH249342   3.226   5.025   0.958 -0.2093  0.1225 -0.0683
 9284TIP3    H149343   3.240   4.935   0.930  0.5270  0.4847 -0.8475
 9284TIP3    H249344   3.137   5.024   0.995 -0.7635 -0.6004 -1.3699
 9285TIP3   OH249345   2.594   4.090   3.624  0.0083 -0.1767 -0.0746
 9285TIP3    H149346   2.578   3.997   3.643  1.1048 -0.3087  0.2626
 9285TIP3    H249347   2.684   4.092   3.593  0.6504  1.0340  1.7830
 9286TIP3   OH249348   4.777   1.977  16.948 -0.3559 -0.5457  0.2935
 9286TIP3    H149349   4.705   1.975  17.011  0.2580 -2.5831  0.9649
 9286TIP3    H249350   4.759   1.905  16.887  0.4829 -0.3350 -0.2196
 9287TIP3   OH249351   5.860   0.284  15.731  0.2093 -0.1828 -0.0346
 9287TIP3    H149352   5.920   0.266  15.659 -0.9807 -0.0349 -1.0787
 9287TIP3    H249353   5.782   0.321  15.689 -0.6927 -0.5610  1.2732
 9288TIP3   OH249354   5.872   3.418   5.747 -0.1687  0.4530 -0.5118
 9288TIP3    H149355   5.913   3.498   5.776 -2.0482  0.5709  1.9430
 9288TIP3    H249356   5.801   3.402   5.810 -0.1263 -2.8649 -1.1953
 9289TIP3   OH249357   4.148   1.799   1.711 -0.3513 -0.2455  0.3446
 9289TIP3    H149358   4.222   1.858   1.728 -0.4260  0.8181 -2.6892
 9289TIP3    H249359   4.072   1.857   1.707 -1.5951 -1.4398  4.3434
 9290TIP3   OH249360   3.465   5.512   2.295  0.3635 -0.2957  0.5745
 9290TIP3    H149361   3.513   5.594   2.297 -2.1464  1.2497 -0.3154
 9290TIP3    H249362   3.508   5.461   2.226  0.2173  1.3964 -0.8147
 9291TIP3   OH249363   4.802   6.049   4.681  0.1839 -0.6512  0.3016
 9291TIP3    H149364   4.826   6.132   4.722  0.2080  0.0568 -1.1537
 9291TIP3    H249365   4.770   5.995   4.754 -2.5263  1.5994  0.8500
 9292TIP3   OH249366   1.896   0.037  12.831  0.3273 -0.6243 -0.2105
 9292TIP3    H149367   1.946  -0.034  12.791 -0.7017 -0.2633 -2.1796
 9292TIP3    H249368   1.813   0.038  12.784 -0.8194 -0.0022  1.7738
 9293TIP3   OH249369   2.055   0.471   0.796 -0.1471 -0.1718 -0.4183
 9293TIP3    H149370   2.111   0.543   0.766  0.2358 -0.4793 -0.4327
 9293TIP3    H249371   2.028   0.427   0.716 -0.0941 -0.2627 -0.3855
 9294TIP3   OH249372   3.532   4.933  12.826  0.6919  0.0483  0.3919
 9294TIP3    H149373   3.605   4.988  12.852  1.2410 -0.5459  0.1252
 9294TIP3    H249374   3.458   4.965  12.878  1.4718 -0.2901  1.7324
 9295TIP3   OH249375   1.767   5.523  15.206 -0.0299 -0.0542 -0.4569
 9295TIP3    H149376   1.678   5.534  15.238 -0.3845 -0.4791 -1.2800
 9295TIP3    H249377   1.772   5.431  15.179  1.7446 -1.0411  2.8689
 9296TIP3   OH249378   6.478   6.326   6.309  0.4402 -0.2722  0.0577
 9296TIP3    H149379   6.391   6.364   6.325  0.9861  0.4960  1.2499
 9296TIP3    H249380   6.459   6.237   6.279 -0.8648  1.0049 -3.2036
 9297TIP3   OH249381   4.166   0.256   5.671  0.1397  0.1079  0.3716
 9297TIP3    H149382   4.109   0.333   5.666  0.9805  0.7679  0.9442
 9297TIP3    H249383   4.216   0.268   5.751  0.3349 -0.9987  0.4161
 9298TIP3   OH249384   1.727   3.005   4.910 -0.2305  0.1492  0.1453
 9298TIP3    H149385   1.658   2.952   4.870 -1.0174  0.8982  0.4937
 9298TIP3    H249386   1.683   3.054   4.979  0.7707  0.2067  0.7596
 9299TIP3   OH249387   2.580   0.054  12.880 -0.0119  0.4147 -0.1924
 9299TIP3    H149388   2.564   0.131  12.935 -0.0332  0.1821  0.1324
 9299TIP3    H249389   2.644   0.003  12.930  1.5257  1.1995 -1.3454
 9300TIP3   OH249390   0.292   5.253   3.483 -0.2287 -0.4411 -0.1055
 9300TIP3    H149391   0.342   5.334   3.473  2.4059 -2.1123 -1.0451
 9300TIP3    H249392   0.311   5.203   3.403 -2.4417 -1.6640  0.0810
 9301TIP3   OH249393   2.968   4.419  10.365 -0.2904 -0.2196 -0.3199
 9301TIP3    H149394   2.875   4.400  10.356  0.1143 -1.4940 -1.9430
 9301TIP3    H249395   2.972   4.493  10.426 -2.3188 -0.5289  0.1983
 9302TIP3   OH249396   3.023   3.302   3.661  0.3734  0.8777  0.4417
 9302TIP3    H149397   3.087   3.232   3.673 -0.9932 -0.0765  2.3872
 9302TIP3    H249398   3.072   3.382   3.679  2.0867  0.5404 -2.3104
 9303TIP3   OH249399   0.782   3.413   6.473 -0.5365  0.1193  0.0892
 9303TIP3    H149400   0.725   3.482   6.508 -0.5029  1.2401 -1.9511
 9303TIP3    H249401   0.810   3.364   6.550  0.1739  2.9533  1.7381
 9304TIP3   OH249402   5.477   5.052  15.749  0.3084 -0.0084 -0.8183
 9304TIP3    H149403   5.524   5.131  15.777  1.6120 -0.3008 -2.1079
 9304TIP3    H249404   5.448   5.073  15.660 -2.6448  0.4340  0.2194
 9305TIP3   OH249405   2.789   3.386  14.680  0.7420 -0.1384 -0.1198
 9305TIP3    H149406   2.875   3.348  14.663 -0.0509 -1.6702 -0.7681
 9305TIP3    H249407   2.746   3.389  14.595  0.1879  0.7413  0.1754
 9306TIP3   OH249408   1.699   0.053  13.361 -0.4150  0.0080  0.4754
 9306TIP3    H149409   1.659  -0.033  13.348 -0.5743  0.2193 -0.4808
 9306TIP3    H249410   1.698   0.093  13.274  0.1374  0.7685  0.8160
 9307TIP3   OH249411   2.632   0.641   0.086  0.4590  0.6177  1.2021
 9307TIP3    H149412   2.693   0.704   0.125  0.5166 -0.3783  2.7458
 9307TIP3    H249413   2.687   0.568   0.057  0.1090  0.1369  1.7337
 9308TIP3   OH249414   5.750   2.239   4.764 -0.2408 -0.7909 -0.0924
 9308TIP3    H149415   5.772   2.306   4.699 -1.7677 -0.9343 -0.7911
 9308TIP3    H249416   5.782   2.157   4.726 -2.5796 -1.1083 -1.4549
 9309TIP3   OH249417   4.180   3.595  15.447  1.4019  0.5515  0.2081
 9309TIP3    H149418   4.211   3.517  15.492  0.5696  0.5413  0.7860
 9309TIP3    H249419   4.120   3.636  15.510 -1.3844 -0.5610 -1.6272
 9310TIP3   OH249420   1.982   2.339  15.855  0.2550 -0.2453  0.3295
 9310TIP3    H149421   2.068   2.305  15.880  0.8029  2.1746  1.8442
 9310TIP3    H249422   1.920   2.277  15.894  1.2477 -0.1451  2.1210
 9311TIP3   OH249423   2.505   2.526  12.867 -0.1064  0.0226 -0.1354
 9311TIP3    H149424   2.514   2.521  12.962  1.1411  0.9375 -0.1920
 9311TIP3    H249425   2.594   2.515  12.834 -0.8041 -2.3493 -1.2974
 9312TIP3   OH249426   4.335   0.126  12.385  0.3035  0.4474  0.6606
 9312TIP3    H149427   4.424   0.135  12.417  0.4907  0.8452  0.0378
 9312TIP3    H249428   4.309   0.214  12.358  0.1660  0.1176 -0.3102
 9313TIP3   OH249429   0.389   1.218   3.507 -0.1606  0.1130 -0.1176
 9313TIP3    H149430   0.296   1.225   3.489 -0.7150 -1.4904  1.8681
 9313TIP3    H249431   0.398   1.241   3.600  1.5037  0.9207 -0.4554
 9314TIP3   OH249432   4.804   5.337  13.966  0.3073 -0.2699 -0.3712
 9314TIP3    H149433   4.774   5.271  14.028  0.1970 -0.8456 -1.0267
 9314TIP3    H249434   4.899   5.342  13.979  0.2963 -0.4573 -0.2270
 9315TIP3   OH249435   6.811   2.787   0.051 -0.1754 -0.4074  0.3643
 9315TIP3    H149436   6.851   2.704   0.026  0.0762  0.3738 -1.8798
 9315TIP3    H249437   6.745   2.804  -0.016 -0.5633  0.9737  1.0619
 9316TIP3   OH249438   0.614   6.350   5.124 -0.1189  0.4375 -0.2033
 9316TIP3    H149439   0.635   6.443   5.118  3.2238 -0.2383  0.3419
 9316TIP3    H249440   0.681   6.313   5.182 -2.1445 -2.0937  0.6370
 9317TIP3   OH249441   3.446   2.357   3.195 -0.0249 -0.0055  0.2786
 9317TIP3    H149442   3.482   2.301   3.264  0.1768 -0.2949 -0.0599
 9317TIP3    H249443   3.397   2.424   3.242 -0.6390 -0.7202  0.6814
 9318TIP3   OH249444   0.629   4.095   6.685  0.2219  0.3692  0.2062
 9318TIP3    H149445   0.690   4.169   6.688 -0.7473  1.1290  3.3608
 9318TIP3    H249446   0.543   4.135   6.674 -0.0948 -0.4589 -0.3805
 9319TIP3   OH249447   6.385   3.389   5.747 -0.1396 -0.6360  0.1209
 9319TIP3    H149448   6.430   3.447   5.809  1.2005 -0.7870 -0.6951
 9319TIP3    H249449   6.313   3.352   5.798  1.5271 -1.5305  1.9207
 9320TIP3   OH249450   6.718   4.320   0.260  0.0494 -0.3520  0.0826
 9320TIP3    H149451   6.752   4.356   0.179  1.0329 -1.1432  0.1469
 9320TIP3    H249452   6.743   4.228   0.259 -2.0641 -0.9521  0.1320
 9321TIP3   OH249453   3.536   6.669  12.981 -0.2961 -0.2999 -0.2802
 9321TIP3    H149454   3.567   6.582  12.956  0.1297 -0.2016 -0.0950
 9321TIP3    H249455   3.615   6.721  12.993 -0.5091 -0.2458  0.9112
 9322TIP3   OH249456   1.225   6.300  16.107 -0.5718 -0.2291 -0.3302
 9322TIP3    H149457   1.167   6.241  16.157 -0.8580 -0.2044 -0.6280
 9322TIP3    H249458   1.201   6.387  16.137  1.4567 -0.3597  1.8200
 9323TIP3   OH249459   0.521   0.802   2.435 -0.1501  0.2914  0.0533
 9323TIP3    H149460   0.472   0.884   2.447 -2.0970 -1.0569  1.6981
 9323TIP3    H249461   0.501   0.751   2.513  0.9126 -1.8312 -1.0324
 9324TIP3   OH249462   3.510   6.776   0.389 -0.1909  0.7327  0.2841
 9324TIP3    H149463   3.547   6.753   0.304 -0.6738 -0.7251  0.4583
 9324TIP3    H249464   3.463   6.858   0.373 -3.0810 -1.1868 -1.6872
 9325TIP3   OH249465   0.103   3.181   0.660 -0.0283  0.2748 -0.2251
 9325TIP3    H149466   0.179   3.139   0.699  0.9695  0.0039 -2.3680
 9325TIP3    H249467   0.071   3.118   0.596 -0.6282  1.3504 -1.0134
 9326TIP3   OH249468   0.312   2.835  16.447 -0.4327  0.2208  0.2342
 9326TIP3    H149469   0.361   2.809  16.369 -0.7341 -0.2880  0.2091
 9326TIP3    H249470   0.252   2.762  16.463 -1.6131  1.1029 -0.0960
 9327TIP3   OH249471   5.611   4.210  14.671 -0.1690 -0.2541  0.0407
 9327TIP3    H149472   5.582   4.156  14.597  0.5166 -1.4276  0.6204
 9327TIP3    H249473   5.531   4.254  14.700 -0.3444  0.6713 -1.7540
 9328TIP3   OH249474   1.902   2.078  10.594 -0.0350  0.1125 -0.5854
 9328TIP3    H149475   1.982   2.130  10.594 -0.0472  0.1778  1.0808
 9328TIP3    H249476   1.834   2.139  10.568  0.1722  0.5714 -0.0605
 9329TIP3   OH249477   2.615   1.414   2.777 -0.1882 -0.0008  0.5040
 9329TIP3    H149478   2.597   1.387   2.868  1.2312  2.8364  1.6736
 9329TIP3    H249479   2.529   1.436   2.741 -0.5592  0.7801  1.8278
 9330TIP3   OH249480   4.651   4.392  16.469  0.0204 -0.4946 -0.2037
 9330TIP3    H149481   4.673   4.484  16.451 -1.0953 -0.6759 -2.7479
 9330TIP3    H249482   4.724   4.342  16.433  0.4834 -0.6221  0.9090
 9331TIP3   OH249483   1.928   0.464  11.626  0.0647  0.6862 -0.3129
 9331TIP3    H149484   1.921   0.417  11.543  0.4028  0.9651 -0.4978
 9331TIP3    H249485   1.895   0.401  11.691 -2.1235  1.1782 -0.8834
 9332TIP3   OH249486   0.765   1.305  12.644 -0.5684 -0.0848  0.1849
 9332TIP3    H149487   0.826   1.359  12.593 -1.8094  1.0938 -0.0976
 9332TIP3    H249488   0.820   1.238  12.685  0.7779  0.4044 -0.7857
 9333TIP3   OH249489   3.245   3.786  14.288 -0.0913  0.5288 -0.7833
 9333TIP3    H149490   3.319   3.825  14.334 -0.3937  1.2894 -0.9209
 9333TIP3    H249491   3.278   3.768  14.200  0.6305 -1.3866 -0.1398
 9334TIP3   OH249492   1.124   1.265   3.742  0.6917  0.8342 -0.0783
 9334TIP3    H149493   1.120   1.357   3.716 -3.1600  0.7194 -0.1979
 9334TIP3    H249494   1.158   1.266   3.831 -1.6743  2.6205  0.8446
 9335TIP3   OH249495   0.429   2.536   2.539 -0.4901 -0.0115 -0.1308
 9335TIP3    H149496   0.428   2.490   2.623 -1.7466  0.7936  0.3163
 9335TIP3    H249497   0.379   2.481   2.480  0.3989 -0.5815 -0.3590
 9336TIP3   OH249498   6.559   2.960   4.345  0.6406  0.2599  0.3184
 9336TIP3    H149499   6.584   3.021   4.276  0.0774  1.6230  1.2887
 9336TIP3    H249500   6.465   2.973   4.355  0.7118  0.0564  1.3102
 9337TIP3   OH249501   1.344   3.035  14.078  0.6894  0.1059  0.0076
 9337TIP3    H149502   1.393   3.094  14.135 -0.7116  1.2938  0.0239
 9337TIP3    H249503   1.410   2.976  14.042  1.9954  1.1326  0.6608
 9338TIP3   OH249504   4.250   1.153  13.351  0.0662  0.2246  0.3122
 9338TIP3    H149505   4.317   1.220  13.333  1.7852 -1.9131 -1.5655
 9338TIP3    H249506   4.196   1.152  13.272  0.6432 -1.2427 -0.0763
 9339TIP3   OH249507   4.430   5.791   3.655 -0.5864 -0.0004 -0.1117
 9339TIP3    H149508   4.504   5.736   3.682 -0.5834 -0.1291 -0.3807
 9339TIP3    H249509   4.462   5.881   3.665 -0.5627 -0.0485  0.2463
 9340TIP3   OH249510   4.017   3.281   1.482  0.1343 -0.1820 -0.4993
 9340TIP3    H149511   3.974   3.239   1.407  1.5932 -0.9389 -0.9414
 9340TIP3    H249512   4.081   3.340   1.442  1.0719 -0.7482  0.1378
 9341TIP3   OH249513   0.881   0.317   5.727  0.1402  0.4791  0.6054
 9341TIP3    H149514   0.906   0.234   5.767 -1.1005 -0.7450 -1.1210
 9341TIP3    H249515   0.884   0.301   5.633 -2.5567  1.6455  0.2823
 9342TIP3   OH249516   0.504   6.804  13.046  0.1565 -0.1020 -0.1716
 9342TIP3    H149517   0.508   6.749  13.124  1.0382 -1.0760 -0.8976
 9342TIP3    H249518   0.410   6.819  13.032 -0.0293 -0.3423  0.7766
 9343TIP3   OH249519   1.841   1.174  11.902 -0.1281 -0.1962 -0.3821
 9343TIP3    H149520   1.770   1.216  11.950 -0.5532 -0.0344 -1.1595
 9343TIP3    H249521   1.816   1.180  11.810  0.5254 -0.8128 -0.6080
 9344TIP3   OH249522   5.659   0.745   1.653 -0.6472  0.8948  0.3226
 9344TIP3    H149523   5.646   0.780   1.741  0.3068 -2.0651  1.7101
 9344TIP3    H249524   5.609   0.663   1.652 -0.4585  0.7810 -1.8029
 9345TIP3   OH249525   6.762   2.770   0.519  0.2798 -0.0777 -0.1194
 9345TIP3    H149526   6.780   2.766   0.613  1.4400  1.0046 -0.2785
 9345TIP3    H249527   6.689   2.709   0.506  0.6064 -0.8172  1.3561
 9346TIP3   OH249528   0.183   2.085  11.031  0.5425 -0.2190 -0.3607
 9346TIP3    H149529   0.190   2.064  10.938  0.2875  1.0643 -0.6818
 9346TIP3    H249530   0.259   2.043  11.071  0.1593 -1.5334 -1.0091
 9347TIP3   OH249531   4.513   5.540   1.374  0.0432  0.0084 -0.5067
 9347TIP3    H149532   4.487   5.538   1.467  1.4282  1.1954 -0.0652
 9347TIP3    H249533   4.574   5.614   1.368  1.2490 -1.0630 -2.0320
 9348TIP3   OH249534   1.072   1.179   3.041  0.1682 -0.2637  0.3257
 9348TIP3    H149535   1.028   1.172   3.126 -0.5551 -1.4036 -0.1250
 9348TIP3    H249536   1.041   1.263   3.006 -0.0311 -0.0861  0.9112
 9349TIP3   OH249537   2.230   4.750   4.394  0.4272  0.2961 -1.2073
 9349TIP3    H149538   2.184   4.693   4.455 -1.2394  0.6558 -2.1158
 9349TIP3    H249539   2.269   4.689   4.331  0.0872  0.0677 -1.1990
 9350TIP3   OH249540   3.784   1.059  15.212 -0.0715 -0.4729 -0.2627
 9350TIP3    H149541   3.842   1.129  15.180  0.2561 -1.2310 -1.3765
 9350TIP3    H249542   3.765   1.083  15.302  3.5877 -1.1932  0.7967
 9351TIP3   OH249543   0.275   2.853   4.261  0.4296 -0.6805  0.2514
 9351TIP3    H149544   0.332   2.794   4.309  1.5679  0.6640  0.6021
 9351TIP3    H249545   0.191   2.848   4.305  1.3036  0.1117  2.0538
 9352TIP3   OH249546   4.649   4.602  11.863  0.3386 -0.2075  0.2482
 9352TIP3    H149547   4.712   4.670  11.839  1.0968 -1.3838 -1.1015
 9352TIP3    H249548   4.700   4.538  11.913 -0.3030  0.0247  1.2211
 9353TIP3   OH249549   4.143   4.384  14.357  0.4509  0.2890 -0.2678
 9353TIP3    H149550   4.101   4.392  14.271  0.3086  0.7555 -0.1584
 9353TIP3    H249551   4.177   4.471  14.375 -0.6794  0.5429  0.7303
 9354TIP3   OH249552   1.297   1.244   2.479  0.2449 -0.3332 -0.1265
 9354TIP3    H149553   1.224   1.293   2.439 -0.0577 -0.6558  0.0373
 9354TIP3    H249554   1.375   1.277   2.433  0.5598  3.4762  2.9275
 9355TIP3   OH249555   3.227   2.240   1.492 -0.3665 -0.2042  0.2654
 9355TIP3    H149556   3.283   2.290   1.551 -0.8794 -1.5950  1.9705
 9355TIP3    H249557   3.152   2.215   1.545 -0.6910 -1.7709 -0.8887
 9356TIP3   OH249558   5.388   2.943   6.404 -0.1526  0.7532 -0.1110
 9356TIP3    H149559   5.429   3.001   6.339  1.3088 -1.7854 -1.5078
 9356TIP3    H249560   5.304   2.919   6.364  0.5446 -0.4367 -0.9019
 9357TIP3   OH249561   1.487   4.599  13.659  0.5324 -0.4158  0.5526
 9357TIP3    H149562   1.410   4.545  13.679 -2.3701  3.5093  0.6449
 9357TIP3    H249563   1.518   4.628  13.745  0.6984 -0.1240  0.3920
 9358TIP3   OH249564   4.921   1.762  14.299  0.5232 -0.0978  0.0254
 9358TIP3    H149565   4.948   1.707  14.372  0.8462  0.0430  0.0139
 9358TIP3    H249566   5.003   1.788  14.257  0.2600 -2.2215 -1.8774
 9359TIP3   OH249567   3.206   2.862  15.022  0.0917  0.3376 -0.1808
 9359TIP3    H149568   3.290   2.815  15.013  0.4927  0.9997  0.0717
 9359TIP3    H249569   3.156   2.807  15.082  0.1740 -0.2916 -0.6756
 9360TIP3   OH249570   0.285   5.480   1.150  0.0390 -0.7514 -0.6141
 9360TIP3    H149571   0.257   5.447   1.235  0.8203 -0.7241 -0.3407
 9360TIP3    H249572   0.346   5.414   1.116  0.3538 -0.3787 -0.7885
 9361TIP3   OH249573   0.048   2.495  17.291  0.5655  0.0031  0.2495
 9361TIP3    H149574   0.084   2.410  17.266 -0.0334 -0.2739  0.3256
 9361TIP3    H249575   0.068   2.552  17.217 -1.3566 -0.8511 -0.9550
 9362TIP3   OH249576   1.045   4.770  14.084 -0.3226  0.3237  0.4072
 9362TIP3    H149577   1.120   4.811  14.041 -0.7394  0.3294 -0.3192
 9362TIP3    H249578   0.972   4.829  14.067 -0.9182 -0.6646 -0.5883
 9363TIP3   OH249579   2.739   6.773  11.878 -0.0556 -0.0801 -0.1214
 9363TIP3    H149580   2.755   6.686  11.915  1.4460  0.7027  1.1563
 9363TIP3    H249581   2.649   6.793  11.902 -0.6236 -1.5073 -0.9465
 9364TIP3   OH249582   4.431   0.182   0.578  0.1947  0.3510 -0.2539
 9364TIP3    H149583   4.452   0.091   0.598 -0.4121  0.1974 -0.3123
 9364TIP3    H249584   4.354   0.202   0.632  1.8952  1.6393  1.7885
 9365TIP3   OH249585   0.851   4.526   1.046 -0.1687 -0.4925  0.6549
 9365TIP3    H149586   0.801   4.477   1.112  1.6160 -2.2657  0.7436
 9365TIP3    H249587   0.935   4.545   1.089  0.6425 -0.7945 -0.7698
 9366TIP3   OH249588   4.965   2.114   1.192  0.1944  0.4726 -0.9156
 9366TIP3    H149589   4.967   2.161   1.109 -0.2680 -0.3181 -1.3865
 9366TIP3    H249590   4.980   2.022   1.168 -1.2828  0.0465 -0.2871
 9367TIP3   OH249591   5.100   2.543  12.779  0.4858  0.3536 -0.0458
 9367TIP3    H149592   5.096   2.627  12.734  0.8328 -0.2046 -1.1563
 9367TIP3    H249593   5.082   2.478  12.710 -0.6201 -0.4377  0.9574
 9368TIP3   OH249594   2.849   0.399  11.180  0.6756 -0.0558  0.0211
 9368TIP3    H149595   2.862   0.356  11.265 -1.4047 -0.7873 -0.0003
 9368TIP3    H249596   2.831   0.327  11.119 -0.4449  0.6657 -0.5070
 9369TIP3   OH249597   4.747   0.678   1.611 -0.2449  0.5056 -0.4840
 9369TIP3    H149598   4.674   0.654   1.554 -0.2070  0.1903 -0.3983
 9369TIP3    H249599   4.713   0.751   1.664 -0.5692  0.2119 -0.2875
 9370TIP3   OH249600   2.287   1.703  14.686 -0.0771 -0.1430 -0.1862
 9370TIP3    H149601   2.271   1.664  14.772 -0.0833 -1.0165 -0.5872
 9370TIP3    H249602   2.291   1.797  14.704  0.0442 -0.3265  0.7883
 9371TIP3   OH249603   1.972   6.672   3.085 -0.1773 -0.3788 -0.6304
 9371TIP3    H149604   1.899   6.722   3.122  0.0944  0.0242 -0.6360
 9371TIP3    H249605   1.941   6.645   2.998 -1.1173 -1.9852  0.1770
 9372TIP3   OH249606   3.765   5.124  15.175 -0.3313  0.9055 -0.0699
 9372TIP3    H149607   3.694   5.110  15.238 -1.3645  0.6971 -1.2659
 9372TIP3    H249608   3.774   5.219  15.169 -0.0107  0.9193  0.6368
 9373TIP3   OH249609   0.211   2.165  12.296 -0.0523  0.3017  0.6895
 9373TIP3    H149610   0.216   2.251  12.337  0.3337 -0.0705  1.4377
 9373TIP3    H249611   0.119   2.139  12.307 -0.4754  1.1747 -0.6998
 9374TIP3   OH249612   2.756   2.819  11.781 -0.3328 -0.1561  0.0973
 9374TIP3    H149613   2.808   2.791  11.706  1.2910 -2.5190  2.0319
 9374TIP3    H249614   2.819   2.827  11.852 -1.9862  1.1204  1.4793
 9375TIP3   OH249615   5.332   3.246  12.783 -0.0884  0.2320 -0.1353
 9375TIP3    H149616   5.366   3.328  12.820  0.7000 -0.7356  1.3427
 9375TIP3    H249617   5.336   3.259  12.688  1.7253  1.2420  0.0508
 9376TIP3   OH249618   5.818   1.215  14.234  0.4504  0.0463 -0.3812
 9376TIP3    H149619   5.909   1.192  14.253  0.9847  0.5834 -2.2004
 9376TIP3    H249620   5.780   1.135  14.198 -0.5009 -0.9036  2.5652
 9377TIP3   OH249621   5.403   3.942  15.927 -0.1584 -0.6473  0.2940
 9377TIP3    H149622   5.482   3.902  15.891 -0.1945 -1.0325  0.6370
 9377TIP3    H249623   5.332   3.884  15.899 -0.5780  0.8696 -1.8615
 9378TIP3   OH249624   4.498   3.928  13.912  0.5596  0.4028 -0.1374
 9378TIP3    H149625   4.575   3.882  13.879  0.2584  1.0488 -1.7431
 9378TIP3    H249626   4.441   3.939  13.836 -0.8921  0.4139  0.9248
 9379TIP3   OH249627   1.903   3.076   3.035 -0.6116  0.3169  0.2327
 9379TIP3    H149628   1.899   3.013   2.963  1.4094 -0.6060  0.9050
 9379TIP3    H249629   1.868   3.029   3.111  2.9068 -0.8032  1.2501
 9380TIP3   OH249630   4.904   0.454   1.665  0.3500  0.0871 -0.0738
 9380TIP3    H149631   4.981   0.463   1.722 -1.5972 -2.4610  3.1249
 9380TIP3    H249632   4.869   0.543   1.659  1.2882  0.6138  1.7740
 9381TIP3   OH249633   2.182   2.308   2.947 -0.4694 -0.1044  0.0392
 9381TIP3    H149634   2.267   2.342   2.918  0.0921  0.0194  1.7915
 9381TIP3    H249635   2.197   2.278   3.037 -1.6561 -2.3803 -0.4630
 9382TIP3   OH249636   1.504   5.433   5.516 -0.0252 -0.1229  0.0248
 9382TIP3    H149637   1.537   5.345   5.496  1.4286  0.3317  0.4144
 9382TIP3    H249638   1.429   5.443   5.458 -0.0031 -1.4988 -0.2673
 9383TIP3   OH249639   6.617   3.425  13.460  0.2893  1.0153 -0.0670
 9383TIP3    H149640   6.680   3.471  13.405  1.0341  0.8095  0.6125
 9383TIP3    H249641   6.670   3.383  13.528 -0.2602 -1.6466 -1.2398
 9384TIP3   OH249642   1.710   1.891   4.312  0.5416  0.1085 -0.3094
 9384TIP3    H149643   1.703   1.797   4.299  0.7154 -0.0890  0.9636
 9384TIP3    H249644   1.678   1.929   4.231  1.3072 -1.0599 -1.1749
 9385TIP3   OH249645   5.773   0.230   3.080  0.5107  0.0136  0.7591
 9385TIP3    H149646   5.769   0.158   3.143  0.7367 -0.8526 -0.2012
 9385TIP3    H249647   5.862   0.227   3.045  0.3120  0.3302  0.2152
 9386TIP3   OH249648   1.806   5.645   4.305 -0.1734  0.3128 -0.0970
 9386TIP3    H149649   1.779   5.581   4.372  0.3634  0.3947  0.1966
 9386TIP3    H249650   1.739   5.713   4.310 -3.8035 -2.7248 -4.0475
 9387TIP3   OH249651   1.411   6.206  16.338 -0.1390 -0.0010  0.3565
 9387TIP3    H149652   1.489   6.257  16.314  0.2632  0.5087  2.6401
 9387TIP3    H249653   1.339   6.250  16.293  0.5222  1.2015  0.4483
 9388TIP3   OH249654   6.787   6.574  15.882 -0.0724 -0.2967 -0.3493
 9388TIP3    H149655   6.856   6.522  15.924 -0.6297 -0.7179  0.0450
 9388TIP3    H249656   6.730   6.509  15.842 -0.1293  0.0647 -0.8540
 9389TIP3   OH249657   1.107   0.041  11.456 -0.8814  0.2370  0.4133
 9389TIP3    H149658   1.088   0.135  11.448 -2.0122  0.0565  0.8073
 9389TIP3    H249659   1.145   0.017  11.372 -1.2072  0.9155  0.0632
 9390TIP3   OH249660   4.694   4.992   2.516  0.1368  0.1388  0.7133
 9390TIP3    H149661   4.749   5.018   2.590 -1.8601  1.8147  1.6305
 9390TIP3    H249662   4.610   4.968   2.556 -0.8938  0.8578 -0.9756
 9391TIP3   OH249663   0.730   6.682  14.600  0.1907 -0.8357 -1.2879
 9391TIP3    H149664   0.705   6.699  14.509  1.9407  1.0263 -1.4497
 9391TIP3    H249665   0.811   6.731  14.612 -0.6226 -0.1276  1.6156
 9392TIP3   OH249666   5.490   5.846   0.649 -0.0324  0.2486 -0.0143
 9392TIP3    H149667   5.516   5.821   0.737  0.2378  1.0001  0.1167
 9392TIP3    H249668   5.400   5.812   0.641  0.9508 -2.3782 -0.4972
 9393TIP3   OH249669   2.763   1.462   3.625  0.2300 -0.5717 -0.7328
 9393TIP3    H149670   2.777   1.369   3.608  3.2818 -0.0016 -1.6565
 9393TIP3    H249671   2.737   1.498   3.540 -1.5639 -0.6884 -0.2326
 9394TIP3   OH249672   1.309   0.641   5.992  0.2613  0.0974  0.0740
 9394TIP3    H149673   1.346   0.568   5.943 -1.1931 -1.1551  0.7657
 9394TIP3    H249674   1.333   0.719   5.943  0.7970 -0.9581 -1.3567
 9395TIP3   OH249675   1.273   0.915   5.540 -0.5309 -0.4054  0.5430
 9395TIP3    H149676   1.289   1.005   5.511 -2.5987 -0.1338  0.1708
 9395TIP3    H249677   1.346   0.896   5.599 -0.8390  2.0416  1.7944
 9396TIP3   OH249678   4.658   2.516   3.634  0.2570 -0.0817 -0.1316
 9396TIP3    H149679   4.741   2.548   3.668  1.2271  1.5666 -3.7875
 9396TIP3    H249680   4.594   2.582   3.660  0.3061 -0.6614  1.5063
 9397TIP3   OH249681   5.825   4.209   4.056  0.3580 -0.5270  0.1562
 9397TIP3    H149682   5.872   4.187   4.136  0.7542  3.9581  1.3014
 9397TIP3    H249683   5.882   4.274   4.013 -1.8075  0.2485 -1.6088
 9398TIP3   OH249684   3.896   5.131  13.185 -0.1377 -0.2506 -0.3778
 9398TIP3    H149685   3.970   5.109  13.243 -0.0595 -0.7743 -0.6713
 9398TIP3    H249686   3.925   5.209  13.138  0.0698 -0.2172 -0.1970
 9399TIP3   OH249687   1.429   0.893   5.001 -0.2024  0.5336 -0.4329
 9399TIP3    H149688   1.369   0.965   5.020 -1.4454 -0.1792 -1.6138
 9399TIP3    H249689   1.392   0.850   4.924  1.2891 -0.5178 -0.5874
 9400TIP3   OH249690   6.467   1.998   2.553 -0.0235 -0.0599 -0.1087
 9400TIP3    H149691   6.501   2.020   2.640  1.6218  1.7223 -1.1473
 9400TIP3    H249692   6.393   1.940   2.569  1.9708 -2.0085  2.3815
 9401TIP3   OH249693   5.431   2.681   2.844 -0.8672 -0.0137  0.4351
 9401TIP3    H149694   5.409   2.605   2.790  0.1236  0.6252 -0.9032
 9401TIP3    H249695   5.389   2.755   2.799  0.5990  0.6326  0.0893
 9402TIP3   OH249696   3.457   2.302  10.593 -0.2786 -0.0790  0.1683
 9402TIP3    H149697   3.393   2.347  10.648  0.1008 -0.0834  0.6152
 9402TIP3    H249698   3.425   2.212  10.586 -1.7316  0.5672 -1.7894
 9403TIP3   OH249699   1.043   2.194   5.723  0.0928  0.0266 -0.3492
 9403TIP3    H149700   1.037   2.160   5.634 -0.6181 -0.1579 -0.2307
 9403TIP3    H249701   1.133   2.174   5.750  0.4361  0.4466 -1.1656
 9404TIP3   OH249702   0.575   4.819  14.517  0.1914 -0.1842 -0.2272
 9404TIP3    H149703   0.523   4.889  14.477  0.1619  0.4813  0.9492
 9404TIP3    H249704   0.652   4.811  14.461  0.4803  1.1961 -0.0322
 9405TIP3   OH249705   5.366   4.344  14.767  0.2369  0.2792 -0.1602
 9405TIP3    H149706   5.315   4.307  14.695  1.3544 -0.5638 -0.5352
 9405TIP3    H249707   5.311   4.330  14.844  0.8443 -2.7730 -0.1865
 9406TIP3   OH249708   6.079   2.944  13.318  0.6338 -0.8770 -0.1949
 9406TIP3    H149709   6.160   2.988  13.291  0.0521  0.1144 -0.3815
 9406TIP3    H249710   6.009   3.000  13.282 -0.1451 -0.8383  1.3246
 9407TIP3   OH249711   0.716   5.788  11.695  0.1885 -0.6529  0.1198
 9407TIP3    H149712   0.767   5.792  11.777 -1.3139  1.2170  0.9901
 9407TIP3    H249713   0.760   5.849  11.636 -0.2219 -0.0616  0.4169
 9408TIP3   OH249714   4.905   4.807  11.786 -0.5805 -0.5285  0.5329
 9408TIP3    H149715   4.898   4.881  11.726 -0.7246  0.2465  1.4944
 9408TIP3    H249716   4.974   4.753  11.748 -1.3554 -0.5617 -0.8675
 9409TIP3   OH249717   0.527   3.624   1.226  0.2984 -0.0161 -0.1710
 9409TIP3    H149718   0.622   3.612   1.229  0.0130 -3.0183 -1.1801
 9409TIP3    H249719   0.495   3.590   1.310  0.0285  0.0022 -0.2642
 9410TIP3   OH249720   2.151   5.205   0.564 -0.7229 -0.2857 -0.6215
 9410TIP3    H149721   2.204   5.274   0.605  0.5610 -1.2412 -0.6765
 9410TIP3    H249722   2.077   5.193   0.624  0.2272 -0.4371  0.5284
 9411TIP3   OH249723   1.148   4.796   5.118 -0.0466  0.1115 -0.4034
 9411TIP3    H149724   1.107   4.877   5.087 -0.3966 -0.2695 -0.9487
 9411TIP3    H249725   1.104   4.727   5.069 -1.2218 -0.5892  1.6016
 9412TIP3   OH249726   2.271   5.435   3.689  0.2280  0.6043 -0.1602
 9412TIP3    H149727   2.217   5.356   3.688  0.8860  0.1512 -1.3288
 9412TIP3    H249728   2.240   5.484   3.765 -2.7306  0.9826 -1.5435
 9413TIP3   OH249729   2.591   1.690  12.401  0.2993 -0.4706  0.2840
 9413TIP3    H149730   2.596   1.678  12.307  0.9924  1.8444 -0.0002
 9413TIP3    H249731   2.679   1.716  12.427 -0.7937  2.7437  0.9545
 9414TIP3   OH249732   3.676   5.589  12.229  0.4916  0.0680  0.3832
 9414TIP3    H149733   3.721   5.554  12.305 -0.1745 -1.7127 -0.0194
 9414TIP3    H249734   3.709   5.538  12.155 -1.7289 -0.9413  0.0196
 9415TIP3   OH249735   2.533   3.759   0.281 -0.3246 -0.6474 -0.3673
 9415TIP3    H149736   2.457   3.704   0.300 -0.5391 -0.9682 -2.1252
 9415TIP3    H249737   2.603   3.722   0.335 -1.4072 -0.3241  1.2917
 9416TIP3   OH249738   4.407   5.092  14.626  0.8085  0.4048 -0.2981
 9416TIP3    H149739   4.498   5.070  14.605  0.9529  1.3573 -0.6828
 9416TIP3    H249740   4.408   5.115  14.719  0.6321 -1.3115  0.1493
 9417TIP3   OH249741   5.445   2.973  11.568  0.3085  0.0639  0.0293
 9417TIP3    H149742   5.399   3.025  11.634 -1.9623 -3.9686  1.8886
 9417TIP3    H249743   5.533   2.962  11.603 -0.7217 -1.6097  2.2584
 9418TIP3   OH249744   4.279   2.626   5.158  0.0291  0.0092  0.5435
 9418TIP3    H149745   4.321   2.711   5.162  0.0071  0.0694 -0.3400
 9418TIP3    H249746   4.214   2.627   5.228  0.2998  0.5730  0.7807
 9419TIP3   OH249747   2.968   4.208  14.912  0.2306  0.9979 -0.3958
 9419TIP3    H149748   2.960   4.147  14.839  1.7422  0.1265  0.1398
 9419TIP3    H249749   3.058   4.241  14.906 -0.2448  2.3536 -0.0499
 9420TIP3   OH249750   5.976   1.216   1.761  0.2371  0.3288 -0.1943
 9420TIP3    H149751   5.931   1.267   1.828  0.8320 -0.2208  0.6414
 9420TIP3    H249752   5.907   1.178   1.707 -0.2183  1.6204 -0.5272
 9421TIP3   OH249753   2.727   0.338   0.002 -0.5898  0.1295 -0.3433
 9421TIP3    H149754   2.808   0.387  -0.010 -1.3560  1.3796 -0.5448
 9421TIP3    H249755   2.665   0.378  -0.059 -1.6119 -0.2200  0.4343
 9422TIP3   OH249756   6.073   0.511  12.947 -0.0490 -0.5659  0.0114
 9422TIP3    H149757   6.165   0.539  12.955  0.0249 -0.3275 -1.4474
 9422TIP3    H249758   6.023   0.583  12.984  0.3471 -0.5471  0.5112
 9423TIP3   OH249759   6.525   2.402   2.407  0.0373 -0.3558  0.0367
 9423TIP3    H149760   6.472   2.361   2.339 -1.0319 -0.0686  0.6773
 9423TIP3    H249761   6.586   2.459   2.360  0.6410 -1.6448 -0.7821
 9424TIP3   OH249762   2.511   1.617  12.102 -0.2988 -0.0332 -0.0519
 9424TIP3    H149763   2.567   1.645  12.029 -0.0425 -0.3868  0.0066
 9424TIP3    H249764   2.478   1.531  12.075 -1.1416  0.3482 -0.2637
 9425TIP3   OH249765   0.456   1.525   3.227 -0.5440 -0.3759  0.3305
 9425TIP3    H149766   0.512   1.470   3.171 -1.4491 -1.0647  0.0967
 9425TIP3    H249767   0.514   1.595   3.256  0.3414 -0.8514 -0.2499
 9426TIP3   OH249768   0.987   5.065   1.286 -0.5860 -0.1394 -0.0574
 9426TIP3    H149769   1.028   5.066   1.372  1.3536  0.6630 -0.9662
 9426TIP3    H249770   1.014   5.147   1.245  0.0575 -1.3441 -2.1245
 9427TIP3   OH249771   4.945   4.690  12.035  0.6897  0.0390  0.1969
 9427TIP3    H149772   4.905   4.761  12.087  0.3771 -0.3349  0.4661
 9427TIP3    H249773   4.935   4.719  11.944  1.8987  1.0504  0.3554
 9428TIP3   OH249774   0.569   0.006  13.849  0.2696 -0.1738 -0.2299
 9428TIP3    H149775   0.546  -0.026  13.762  1.0796  1.0298 -0.8969
 9428TIP3    H249776   0.485   0.011  13.895 -0.6243  2.3431 -2.0107
 9429TIP3   OH249777   1.055   4.778   1.374  0.5182  0.3210 -0.0695
 9429TIP3    H149778   1.097   4.815   1.297 -1.1554 -0.5066 -1.4242
 9429TIP3    H249779   0.963   4.805   1.367 -0.2352 -2.0817  0.1465
 9430TIP3   OH249780   3.671   2.338   2.183  0.2662  0.2714  0.1769
 9430TIP3    H149781   3.654   2.270   2.119  0.9762  0.4017 -0.1543
 9430TIP3    H249782   3.744   2.305   2.235  3.3628  2.5018 -2.5962
 9431TIP3   OH249783   0.462   3.282   0.023 -0.4313  0.2137 -0.7291
 9431TIP3    H149784   0.491   3.245   0.107 -2.0587  2.2480  0.8178
 9431TIP3    H249785   0.530   3.345  -0.000 -0.6551  0.6588 -0.1971
 9432TIP3   OH249786   1.795   0.800  13.023  0.4016  0.2126 -0.0930
 9432TIP3    H149787   1.805   0.894  13.035 -0.2725  0.3657 -0.6895
 9432TIP3    H249788   1.815   0.785  12.930  1.1440 -0.3201  0.1493
 9433TIP3   OH249789   3.443   3.680  11.111 -0.1026 -0.6476 -0.5921
 9433TIP3    H149790   3.351   3.657  11.093 -0.5178  0.0938  0.5048
 9433TIP3    H249791   3.438   3.759  11.165  1.0531 -2.2804  2.0367
 9434TIP3   OH249792   4.730   0.603  13.336  0.2401 -0.0339 -1.0155
 9434TIP3    H149793   4.696   0.659  13.405  2.2657  0.4214 -0.3575
 9434TIP3    H249794   4.724   0.514  13.372  1.3579  0.2081 -0.2099
 9435TIP3   OH249795   1.494   5.098  15.161  0.6676 -0.3451 -0.5441
 9435TIP3    H149796   1.423   5.036  15.174  0.9426 -0.5299  0.1078
 9435TIP3    H249797   1.481   5.164  15.229  1.5509 -0.7864  0.0609
 9436TIP3   OH249798   5.586   6.587   5.114 -0.1355 -0.0903  0.3245
 9436TIP3    H149799   5.569   6.570   5.207  0.4128  2.2487  0.9052
 9436TIP3    H249800   5.499   6.598   5.076 -0.3528 -0.6917  0.6388
 9437TIP3   OH249801   3.308   6.697  16.019  0.5100 -0.4841  0.0769
 9437TIP3    H149802   3.252   6.620  16.020  1.3844 -1.1398 -0.2423
 9437TIP3    H249803   3.397   6.662  16.032  0.8342  0.5404  0.7189
 9438TIP3   OH249804   4.034   2.449  16.224  0.1447  0.3946 -0.0297
 9438TIP3    H149805   4.055   2.516  16.289 -1.3873  1.0327 -0.1750
 9438TIP3    H249806   3.947   2.474  16.191 -1.5825 -3.0010  1.6737
 9439TIP3   OH249807   3.743   6.063   2.980  0.4550  0.2477 -0.6704
 9439TIP3    H149808   3.798   6.095   3.052 -0.7073  0.6362  0.0452
 9439TIP3    H249809   3.795   5.992   2.941  0.7075 -0.5836  1.1221
 9440TIP3   OH249810   0.982   3.381  11.347  0.2055 -0.0134 -0.3188
 9440TIP3    H149811   0.977   3.320  11.421 -0.6429  1.2333  0.6725
 9440TIP3    H249812   1.060   3.353  11.298  1.8856  0.2926  2.0858
 9441TIP3   OH249813   5.013   0.080   2.436  0.6217 -0.6532  0.0240
 9441TIP3    H149814   4.927   0.122   2.432  1.3363  0.9643  1.1403
 9441TIP3    H249815   4.998  -0.008   2.402 -1.3714 -0.2255 -0.2724
 9442TIP3   OH249816   0.438   3.891  13.940  0.0906 -0.3430 -0.0010
 9442TIP3    H149817   0.403   3.815  13.987 -2.4922  0.6231 -0.2768
 9442TIP3    H249818   0.395   3.890  13.855  1.7017  0.2089 -0.8643
 9443TIP3   OH249819   3.303   5.074  16.359  0.1533 -0.0269 -0.1186
 9443TIP3    H149820   3.307   5.170  16.351  1.7947 -0.0158  0.5697
 9443TIP3    H249821   3.353   5.055  16.438 -0.2142 -1.4536 -0.2292
 9444TIP3   OH249822   3.490   3.468   3.154  0.3060 -0.7571  0.0770
 9444TIP3    H149823   3.497   3.543   3.212  0.9664 -0.4396 -0.3972
 9444TIP3    H249824   3.559   3.481   3.089 -1.2978 -0.3831 -1.6027
 9445TIP3   OH249825   6.066   0.093   5.781 -0.3356 -0.7760 -0.0405
 9445TIP3    H149826   6.112   0.014   5.807  1.5381  0.1846 -0.3855
 9445TIP3    H249827   6.110   0.123   5.702 -1.1491  0.5113 -0.0261
 9446TIP3   OH249828   4.777   0.191   4.770 -0.2837 -0.0942  0.1678
 9446TIP3    H149829   4.856   0.245   4.778  0.2663 -0.6611 -1.3161
 9446TIP3    H249830   4.776   0.138   4.849  2.3103 -2.0343 -1.0203
 9447TIP3   OH249831   2.813   2.171   1.072  0.2869 -0.3825  0.1649
 9447TIP3    H149832   2.903   2.194   1.050  0.4446 -0.9254  0.2445
 9447TIP3    H249833   2.760   2.238   1.028  0.6322 -1.1453 -1.4376
 9448TIP3   OH249834   0.658   1.199  14.519 -0.1998 -0.5128  0.4633
 9448TIP3    H149835   0.593   1.266  14.498 -0.2294 -0.8455 -0.5081
 9448TIP3    H249836   0.732   1.218  14.461  0.8605  0.2786  2.0288
 9449TIP3   OH249837   2.277   2.985  15.792 -0.3270  0.2073  0.0778
 9449TIP3    H149838   2.363   2.953  15.820 -0.4126 -1.1195 -1.1301
 9449TIP3    H249839   2.222   2.977  15.870 -0.7944 -4.2943 -0.5613
 9450TIP3   OH249840   4.975   0.155  11.359 -0.0899  0.5782 -0.0680
 9450TIP3    H149841   4.922   0.234  11.347  0.0802  1.0535  2.0401
 9450TIP3    H249842   4.928   0.104  11.425  0.2404 -0.6868 -0.8029
 9451TIP3   OH249843   4.038   6.356  16.335  0.3070  0.1535  0.2335
 9451TIP3    H149844   4.101   6.285  16.350  0.5362 -0.4181 -3.1585
 9451TIP3    H249845   4.078   6.432  16.377  3.4677 -0.1352 -2.0406
 9452TIP3   OH249846   6.601   0.533   5.077  0.1507 -0.4145 -0.4729
 9452TIP3    H149847   6.524   0.572   5.119  0.9074  1.1784 -0.5460
 9452TIP3    H249848   6.614   0.584   4.998  0.9802 -1.0131 -0.7258
 9453TIP3   OH249849   5.713   6.009  15.784 -0.1601 -0.1220  0.3204
 9453TIP3    H149850   5.761   5.937  15.743 -1.2229 -0.4560 -0.3584
 9453TIP3    H249851   5.741   6.008  15.875 -0.7045 -1.8639  0.4895
 9454TIP3   OH249852   0.072   2.908  17.050  0.0479  0.2668 -0.2934
 9454TIP3    H149853  -0.009   2.948  17.018  0.8049  1.1870 -1.0976
 9454TIP3    H249854   0.133   2.982  17.059  0.8050 -0.4247  0.2744
 9455TIP3   OH249855   1.212   1.254   3.432 -0.4447  0.2662 -0.0650
 9455TIP3    H149856   1.132   1.215   3.467 -0.2820  1.4915  1.7376
 9455TIP3    H249857   1.270   1.263   3.508  0.4932  1.5954 -0.9077
 9456TIP3   OH249858   2.178   2.376  13.404  0.1673 -0.3757 -0.2228
 9456TIP3    H149859   2.245   2.420  13.352  0.3223 -1.1818 -0.6997
 9456TIP3    H249860   2.109   2.354  13.342  0.1154 -0.8634  0.0006
 9457TIP3   OH249861   0.897   5.608  15.150 -0.6933  0.0715  0.3713
 9457TIP3    H149862   0.825   5.658  15.189 -1.9244 -0.5990 -0.9940
 9457TIP3    H249863   0.919   5.543  15.217 -2.1583 -0.4674  0.3700
 9458TIP3   OH249864   2.280   0.310  11.520 -0.4375  0.2867  0.3997
 9458TIP3    H149865   2.270   0.320  11.426 -0.6546 -0.5043  0.3399
 9458TIP3    H249866   2.231   0.231  11.542 -1.1540  0.9595  1.3056
 9459TIP3   OH249867   1.952   5.451   3.442 -0.0682  0.1670  0.9471
 9459TIP3    H149868   1.954   5.382   3.509 -0.0581 -0.7463  0.0207
 9459TIP3    H249869   2.004   5.523   3.480 -0.3468 -0.2071  2.0540
 9460TIP3   OH249870   3.041   2.877   0.324  0.2377  0.9309  0.3555
 9460TIP3    H149871   2.977   2.826   0.373  0.8936 -0.3514 -0.1063
 9460TIP3    H249872   3.096   2.918   0.391  0.1222  0.4938  0.7193
 9461TIP3   OH249873   2.298   0.005   1.772  0.3356  0.0852 -0.3689
 9461TIP3    H149874   2.220   0.051   1.804  0.0852  0.3933 -1.3747
 9461TIP3    H249875   2.311   0.040   1.684  0.8178 -0.9459 -0.7160
 9462TIP3   OH249876   1.405   1.280  11.769 -0.3348  0.4179 -0.0812
 9462TIP3    H149877   1.443   1.336  11.837  0.9171 -0.6280  0.0846
 9462TIP3    H249878   1.480   1.235  11.730 -1.1338  0.3037 -1.5376
 9463TIP3   OH249879   0.525   3.310   3.075 -0.2202 -0.2233 -0.6539
 9463TIP3    H149880   0.443   3.289   3.031 -1.2866  0.8247  0.7639
 9463TIP3    H249881   0.537   3.404   3.058  0.1883 -0.1692 -0.0641
 9464TIP3   OH249882   5.662   0.501   5.057  0.0739 -0.3952 -0.0597
 9464TIP3    H149883   5.750   0.470   5.078  0.1817  0.2735  0.5166
 9464TIP3    H249884   5.639   0.456   4.976 -0.0360 -2.4869  1.0803
 9465TIP3   OH249885   2.217   6.033   3.831  1.3615 -0.3074  0.0988
 9465TIP3    H149886   2.224   5.953   3.883  2.4522  0.2395  0.8281
 9465TIP3    H249887   2.147   6.083   3.873  0.6304 -0.8960 -0.4012
 9466TIP3   OH249888   5.041   1.134   5.317 -0.3614 -0.2819  0.3792
 9466TIP3    H149889   5.026   1.176   5.233 -0.5558 -1.1528 -0.0214
 9466TIP3    H249890   5.023   1.204   5.381  0.0733  0.4587 -0.2939
 9467TIP3   OH249891   5.612   1.554   4.485 -0.0806 -0.0719  0.1548
 9467TIP3    H149892   5.539   1.502   4.452  1.3885 -1.2135 -1.4326
 9467TIP3    H249893   5.597   1.641   4.449 -1.1664 -0.0624  0.6227
 9468TIP3   OH249894   0.267   4.709   3.122 -0.1906  0.4708  0.0552
 9468TIP3    H149895   0.313   4.652   3.184 -0.6030  0.6584  0.5436
 9468TIP3    H249896   0.174   4.697   3.143 -0.3203  0.7041 -0.3811
 9469TIP3   OH249897   1.740   0.196  12.261  0.0207 -0.3580 -0.1932
 9469TIP3    H149898   1.682   0.178  12.187  0.6862  0.3436 -0.8995
 9469TIP3    H249899   1.735   0.291  12.273 -0.0335 -0.4650  0.6148
 9470TIP3   OH249900   6.167   1.669   2.808  0.0439 -0.3582  0.1660
 9470TIP3    H149901   6.226   1.701   2.740 -0.0728 -0.9311 -0.2150
 9470TIP3    H249902   6.222   1.617   2.866 -0.3383 -2.1607 -1.0400
 9471TIP3   OH249903   4.475   2.373  13.565  0.9038  0.9151 -0.9148
 9471TIP3    H149904   4.421   2.310  13.518  0.6229 -1.7104  2.6852
 9471TIP3    H249905   4.425   2.455  13.562 -2.3521 -0.9281  0.5402
 9472TIP3   OH249906   2.836   0.405  11.686  0.4194  0.3717 -0.0124
 9472TIP3    H149907   2.781   0.437  11.614  1.0218  1.1436 -0.1364
 9472TIP3    H249908   2.925   0.420  11.656  0.6970 -0.5549  0.3394
 9473TIP3   OH249909   4.148   0.927   3.765 -0.0034  0.4012  0.3367
 9473TIP3    H149910   4.138   0.886   3.679  1.0603  0.8406 -0.0147
 9473TIP3    H249911   4.060   0.954   3.790 -0.4387 -0.4545 -0.2535
 9474TIP3   OH249912   1.575   5.223  12.263 -0.1152  0.3113  0.5302
 9474TIP3    H149913   1.577   5.262  12.350 -1.4127 -0.6139  0.9864
 9474TIP3    H249914   1.590   5.297  12.204 -1.5827  1.3752  1.4276
 9475TIP3   OH249915   3.487   4.526   4.384  0.2324  0.0552  0.0073
 9475TIP3    H149916   3.574   4.561   4.405 -0.3072  1.1915  0.3539
 9475TIP3    H249917   3.442   4.521   4.469 -0.7031  1.2765 -0.4073
 9476TIP3   OH249918   5.974   5.925  13.683  0.3122  0.0110  0.5954
 9476TIP3    H149919   6.051   5.983  13.684  0.6050 -0.3709  2.1735
 9476TIP3    H249920   5.997   5.856  13.621 -0.0835  1.6111 -1.3943
 9477TIP3   OH249921   2.847   4.488  12.535 -0.0920 -0.0111 -0.4003
 9477TIP3    H149922   2.836   4.462  12.443  1.4162  0.1417 -0.6416
 9477TIP3    H249923   2.864   4.406  12.581  2.8312  0.3047 -0.8663
 9478TIP3   OH249924   1.302   3.696  16.996 -0.0081  0.2038  0.1265
 9478TIP3    H149925   1.264   3.735  16.917  0.6779  1.2875  0.3199
 9478TIP3    H249926   1.228   3.655  17.040 -0.2652 -1.1223 -1.4833
 9479TIP3   OH249927   3.502   2.568   4.570  0.7430  0.3830  0.0698
 9479TIP3    H149928   3.436   2.522   4.621 -1.2389  1.1224 -1.7526
 9479TIP3    H249929   3.530   2.640   4.626 -1.1516  0.9775  0.2944
 9480TIP3   OH249930   4.568   0.323   0.211 -0.2479 -0.4102  0.5254
 9480TIP3    H149931   4.578   0.406   0.165 -0.4539 -1.3986 -1.3449
 9480TIP3    H249932   4.475   0.303   0.205 -0.1285 -0.9961  0.5819
 9481TIP3   OH249933   5.306   6.736   2.333 -0.6961  0.0471  0.0999
 9481TIP3    H149934   5.275   6.818   2.372 -0.2019  0.3037 -0.0385
 9481TIP3    H249935   5.395   6.756   2.302  0.6028 -1.3601  2.7073
 9482TIP3   OH249936   5.219   0.506  11.914  0.1381  0.3373  0.2714
 9482TIP3    H149937   5.208   0.601  11.913 -0.2759  0.2921  0.5454
 9482TIP3    H249938   5.194   0.477  11.826  0.2079  0.4747  0.2062
 9483TIP3   OH249939   0.361   1.747  13.882  0.0858 -0.2555 -0.4020
 9483TIP3    H149940   0.451   1.733  13.853 -0.2577 -1.6788 -0.8198
 9483TIP3    H249941   0.327   1.659  13.897 -0.2120  0.3686  2.9406
 9484TIP3   OH249942   1.834   5.692  13.694  0.2472  0.9038 -0.3886
 9484TIP3    H149943   1.885   5.771  13.712  0.4690  1.1651 -2.0720
 9484TIP3    H249944   1.748   5.710  13.732  0.6918  1.4166  0.3857
 9485TIP3   OH249945   3.010   1.190  16.932 -0.3429  0.2667 -0.0181
 9485TIP3    H149946   3.066   1.161  17.004  0.2279 -0.4368 -0.7357
 9485TIP3    H249947   3.044   1.145  16.855 -1.1123  0.8068 -0.6907
 9486TIP3   OH249948   5.490   6.453   4.620 -0.2067  0.2937  0.3354
 9486TIP3    H149949   5.455   6.429   4.534  1.2900  2.4727 -0.9289
 9486TIP3    H249950   5.415   6.488   4.667 -0.8872 -0.2222 -0.3437
 9487TIP3   OH249951   2.700   0.633   0.493 -0.0480  0.4379 -0.2162
 9487TIP3    H149952   2.622   0.685   0.472 -1.8842 -1.0095  2.6445
 9487TIP3    H249953   2.758   0.695   0.539  0.6050  1.5498 -2.4615
 9488TIP3   OH249954   2.170   2.031   3.888  0.2354  0.3451 -0.0233
 9488TIP3    H149955   2.143   2.111   3.934 -2.6586 -0.0890 -0.8290
 9488TIP3    H249956   2.114   2.029   3.811  0.3711 -2.4003 -0.0760
 9489TIP3   OH249957   0.917   1.938  16.470 -0.4819 -0.0568  0.1159
 9489TIP3    H149958   0.962   2.015  16.435  0.4189 -0.7830 -0.3235
 9489TIP3    H249959   0.864   1.906  16.396 -0.6308 -0.0307  0.2122
 9490TIP3   OH249960   4.933   3.968  12.653 -0.2387 -0.7768 -0.4703
 9490TIP3    H149961   4.909   4.037  12.591 -0.4878 -0.4673 -0.0348
 9490TIP3    H249962   4.896   3.997  12.736  0.6482 -0.8614 -0.0329
 9491TIP3   OH249963   5.160   4.620   1.359  0.0793 -0.0573 -0.3088
 9491TIP3    H149964   5.181   4.685   1.427  0.4924 -1.4790  0.9414
 9491TIP3    H249965   5.237   4.619   1.302  0.0378  0.6072 -0.3816
 9492TIP3   OH249966   4.534   4.646  13.731 -0.6028  0.3797  0.6926
 9492TIP3    H149967   4.465   4.663  13.667 -0.2491 -2.0365 -0.3580
 9492TIP3    H249968   4.502   4.571  13.781 -0.3083  1.4592  2.5497
 9493TIP3   OH249969   4.320   6.214   5.853 -0.0061  0.0464  0.0658
 9493TIP3    H149970   4.263   6.188   5.780 -0.4221 -1.1594  0.8163
 9493TIP3    H249971   4.382   6.143   5.862  1.1042  0.9684 -0.1779
 9494TIP3   OH249972   5.561   5.720   4.614 -0.1838 -0.1129 -0.3142
 9494TIP3    H149973   5.521   5.709   4.700  3.7389 -1.1300  1.5341
 9494TIP3    H249974   5.647   5.758   4.633  1.1726 -1.3239 -3.6903
 9495TIP3   OH249975   4.377   2.795   3.947 -0.3874 -0.2653 -0.4194
 9495TIP3    H149976   4.403   2.818   4.037 -0.7925  0.7184 -0.5477
 9495TIP3    H249977   4.332   2.712   3.956 -2.5784  0.9874  0.6376
 9496TIP3   OH249978   0.440   3.304   4.466  0.9477  0.5634  0.3211
 9496TIP3    H149979   0.475   3.229   4.515  1.8997  1.4147  0.9784
 9496TIP3    H249980   0.348   3.283   4.453  1.4352 -1.2329 -0.4833
 9497TIP3   OH249981   3.697   2.045   2.727  0.3939  0.0684 -0.1691
 9497TIP3    H149982   3.737   1.974   2.677 -0.3842  0.8519 -1.9546
 9497TIP3    H249983   3.712   2.022   2.819  1.1265 -1.8175 -0.7491
 9498TIP3   OH249984   6.744   5.439   6.064 -0.5170 -0.2300  0.3381
 9498TIP3    H149985   6.750   5.425   6.159  2.6369  0.0157  0.2094
 9498TIP3    H249986   6.736   5.534   6.054 -1.5245 -0.3067  0.3693
 9499TIP3   OH249987   4.570   0.377   1.789  0.0316  0.0959 -0.1381
 9499TIP3    H149988   4.520   0.454   1.814 -0.0398  0.2835 -0.8350
 9499TIP3    H249989   4.662   0.403   1.797  0.0206 -0.1553  0.8579
 9500TIP3   OH249990   1.942   2.790  15.245 -0.0146 -0.5384 -0.2343
 9500TIP3    H149991   1.974   2.804  15.156  2.9868 -0.8006  0.7463
 9500TIP3    H249992   1.894   2.707  15.241 -0.8617  0.0104 -1.8267
 9501TIP3   OH249993   1.763   1.617  13.002 -0.0826 -0.4025 -0.1260
 9501TIP3    H149994   1.699   1.673  13.046 -0.2922 -1.9807  1.6657
 9501TIP3    H249995   1.711   1.559  12.947  0.0651  0.5053 -1.2373
 9502TIP3   OH249996   0.870   1.074  13.101  0.6857  0.2341  0.1629
 9502TIP3    H149997   0.803   1.136  13.073 -0.9731 -1.4766  0.2634
 9502TIP3    H249998   0.946   1.096  13.047 -0.0095  2.0766 -0.0894
 9503TIP3   OH249999   4.297   6.534   6.394  0.0664  0.2888  0.5371
 9503TIP3    H150000   4.248   6.493   6.466  2.0171 -0.8910  1.2155
 9503TIP3    H250001   4.275   6.481   6.318  1.4624 -1.1804  1.1365
 9504TIP3   OH250002   1.454   0.579  13.617 -0.1339  0.1591  0.3062
 9504TIP3    H150003   1.431   0.632  13.541 -0.5739  0.0945  0.3921
 9504TIP3    H250004   1.449   0.488  13.587 -1.1233  0.1013  0.6296
 9505TIP3   OH250005   4.134   6.553  15.324 -0.0518 -0.2165 -0.4154
 9505TIP3    H150006   4.064   6.612  15.353 -0.7614 -1.7070  0.9193
 9505TIP3    H250007   4.138   6.568  15.229  0.0521  2.2665 -0.0647
 9506TIP3   OH250008   1.427   2.493  11.153  0.1937 -0.6035 -0.5501
 9506TIP3    H150009   1.462   2.579  11.129 -2.0780  0.2555 -0.9303
 9506TIP3    H250010   1.490   2.430  11.117  2.8655  0.9094  1.3610
 9507TIP3   OH250011   1.195   0.092   5.069  0.1161 -0.2440  0.3488
 9507TIP3    H150012   1.254   0.031   5.026 -0.0687 -0.0796 -0.1324
 9507TIP3    H250013   1.225   0.179   5.041 -0.8771 -0.1904 -0.5640
 9508TIP3   OH250014   5.946   4.269  11.286 -0.3565  0.2656 -0.3709
 9508TIP3    H150015   5.852   4.251  11.294 -0.2749 -0.2043 -0.4597
 9508TIP3    H250016   5.967   4.245  11.196 -0.4703  1.8410 -0.8256
 9509TIP3   OH250017   3.908   2.571  16.848 -0.3020 -0.2726 -0.4435
 9509TIP3    H150018   3.987   2.610  16.887 -0.2142 -1.5316  0.6818
 9509TIP3    H250019   3.925   2.477  16.849 -2.6463 -0.7457  1.7748
 9510TIP3   OH250020   5.867   1.727  10.602  0.4752 -0.7426 -0.5043
 9510TIP3    H150021   5.876   1.822  10.601  0.3275 -0.7185  0.4711
 9510TIP3    H250022   5.905   1.699  10.685  0.8699 -1.5757 -0.9527
 9511TIP3   OH250023   0.485   6.786   6.807  0.1652 -0.0375  0.6397
 9511TIP3    H150024   0.560   6.742   6.768 -1.0769 -0.9118 -0.7824
 9511TIP3    H250025   0.413   6.769   6.747 -0.6155  2.9742  0.6468
 9512TIP3   OH250026   4.412   1.951  16.484 -1.0759  0.1275 -0.3647
 9512TIP3    H150027   4.431   1.898  16.407 -1.0853 -0.3257 -0.0575
 9512TIP3    H250028   4.495   1.996  16.504 -0.9437 -0.1270 -0.3500
 9513TIP3   OH250029   4.844   3.554   5.691  0.4292 -0.0584 -0.2027
 9513TIP3    H150030   4.861   3.476   5.744  0.4864  0.4398  0.5077
 9513TIP3    H250031   4.899   3.622   5.730 -1.0630  0.8351  0.3576
 9514TIP3   OH250032   6.174   4.145  10.436  0.5218  0.2537 -0.4636
 9514TIP3    H150033   6.150   4.136  10.528 -1.2187  1.7105 -0.7506
 9514TIP3    H250034   6.180   4.055  10.404 -1.3304 -0.2198  0.4726
 9515TIP3   OH250035   0.866   0.177   1.445 -0.4958  0.4235  0.3414
 9515TIP3    H150036   0.928   0.248   1.462 -0.1569  0.1150  0.3838
 9515TIP3    H250037   0.904   0.127   1.373 -0.9150  0.4988  0.0627
 9516TIP3   OH250038   0.667   5.066  12.219  0.8389 -0.5758  0.7631
 9516TIP3    H150039   0.677   5.023  12.134  0.1661 -1.5890  1.2026
 9516TIP3    H250040   0.706   5.005  12.282 -1.6419 -1.3387  1.6025
 9517TIP3   OH250041   0.427   1.752  13.175  0.9964 -0.7816 -0.9930
 9517TIP3    H150042   0.464   1.688  13.114 -2.0117 -2.5593 -1.1076
 9517TIP3    H250043   0.457   1.723  13.261  2.2442 -0.4574 -1.3174
 9518TIP3   OH250044   5.340   2.032  16.769 -0.5769  0.5020  0.6330
 9518TIP3    H150045   5.275   1.971  16.734 -2.5206  3.4129 -1.0248
 9518TIP3    H250046   5.401   2.045  16.697  0.6007 -0.4753  1.4353
 9519TIP3   OH250047   2.777   1.163   3.192  0.6202  0.3783 -0.3349
 9519TIP3    H150048   2.796   1.095   3.127  0.5007  1.5198 -1.5971
 9519TIP3    H250049   2.862   1.181   3.233  0.9483  0.5129 -1.0515
 9520TIP3   OH250050   0.344   5.867   0.416  0.7341  0.0226  0.3885
 9520TIP3    H150051   0.349   5.818   0.498 -0.9447 -1.3307 -0.2913
 9520TIP3    H250052   0.251   5.884   0.404  0.8675 -0.5766 -1.6972
 9521TIP3   OH250053   2.044   2.317   0.902 -0.0893 -0.0996 -0.3401
 9521TIP3    H150054   2.012   2.387   0.959 -0.9828 -1.2462  0.5895
 9521TIP3    H250055   1.964   2.276   0.868  0.4247 -0.9453 -0.5381
 9522TIP3   OH250056   6.568   1.729   3.133  0.3003 -0.6538  0.1357
 9522TIP3    H150057   6.536   1.819   3.139 -2.6662 -1.4804 -1.9635
 9522TIP3    H250058   6.625   1.718   3.209  0.4471  2.8768  0.5878
 9523TIP3   OH250059   1.910   6.699  13.794  0.1459 -0.2910 -0.7847
 9523TIP3    H150060   1.827   6.745  13.808  0.5320 -0.4218  2.3495
 9523TIP3    H250061   1.970   6.768  13.763 -0.7483  0.0950 -1.6947
 9524TIP3   OH250062   5.754   6.515  11.673  0.3452 -0.1438  0.4935
 9524TIP3    H150063   5.723   6.467  11.749  2.5025 -0.4216  1.2088
 9524TIP3    H250064   5.755   6.451  11.602  1.6167 -0.7538  1.0509
 9525TIP3   OH250065   2.174   0.368  15.610 -0.2603 -0.2474 -0.2877
 9525TIP3    H150066   2.186   0.300  15.544  1.7105  0.8393 -1.0916
 9525TIP3    H250067   2.240   0.433  15.590 -1.7606  1.6691  0.8087
 9526TIP3   OH250068   2.687   6.540   2.882 -1.0568 -0.1665 -0.2496
 9526TIP3    H150069   2.654   6.584   2.803 -0.6482  1.4642  0.4677
 9526TIP3    H250070   2.773   6.507   2.856 -0.6433  0.9319 -0.3087
 9527TIP3   OH250071   2.740   0.371   4.622 -0.0655  0.2867 -0.0455
 9527TIP3    H150072   2.778   0.405   4.703 -0.8124  0.7804  0.1031
 9527TIP3    H250073   2.785   0.418   4.552  1.4226 -0.9839  0.0239
 9528TIP3   OH250074   5.352   2.282   4.663  0.7662  0.3619 -0.0445
 9528TIP3    H150075   5.264   2.319   4.671  0.5445  0.0739 -1.1044
 9528TIP3    H250076   5.401   2.347   4.613  0.4772 -0.5812 -1.5890
 9529TIP3   OH250077   0.009   4.735  12.191  0.2356 -0.3925 -0.0102
 9529TIP3    H150078   0.082   4.774  12.143  1.0737 -2.8525 -0.7941
 9529TIP3    H250079   0.051   4.680  12.258 -0.8512 -1.9970 -0.6057
 9530TIP3   OH250080   1.045   0.938  14.453 -0.2448  0.6792  0.1148
 9530TIP3    H150081   1.044   0.862  14.512 -2.3923  0.2322 -0.4262
 9530TIP3    H250082   1.076   1.010  14.508  0.6985 -0.3448  0.9538
 9531TIP3   OH250083   6.443   2.357   0.538  0.1747 -0.2878  0.6618
 9531TIP3    H150084   6.446   2.263   0.555 -0.6438 -0.3280  0.5693
 9531TIP3    H250085   6.399   2.365   0.454  0.9427  0.1399  0.2907
 9532TIP3   OH250086   0.431   2.776   0.679  0.7771 -0.2464  0.0632
 9532TIP3    H150087   0.410   2.726   0.600 -0.3292 -0.4612  0.4929
 9532TIP3    H250088   0.521   2.806   0.665  0.2879  0.4425 -1.6543
 9533TIP3   OH250089   3.162   5.847  15.941  0.2969  0.1162  0.5149
 9533TIP3    H150090   3.123   5.774  15.893  1.9253 -0.5963  0.2706
 9533TIP3    H250091   3.256   5.839  15.927  0.7369  0.5388  2.9154
 9534TIP3   OH250092   0.008   1.901  12.514 -0.4528  0.1768  0.0299
 9534TIP3    H150093   0.092   1.882  12.556 -1.3135 -1.0341  1.2461
 9534TIP3    H250094  -0.011   1.822  12.462 -1.1646  0.1648  0.3093
 9535TIP3   OH250095   1.183   1.303  14.095  0.3866  0.0884 -0.1920
 9535TIP3    H150096   1.108   1.244  14.102 -0.7135  1.3415 -1.0409
 9535TIP3    H250097   1.183   1.331  14.004  1.8718  0.1462 -0.1854
 9536TIP3   OH250098   4.748   0.228  17.145 -0.1252  0.2304  0.2112
 9536TIP3    H150099   4.815   0.201  17.081 -0.0577  0.3499  0.2319
 9536TIP3    H250100   4.711   0.309  17.109  0.4033  0.6843  0.6786
 9537TIP3   OH250101   2.132   5.730  17.161  0.3659  0.7460  0.2171
 9537TIP3    H150102   2.178   5.652  17.193 -1.0088 -1.0342 -1.9556
 9537TIP3    H250103   2.109   5.708  17.071 -2.4919  2.5690  0.4308
 9538TIP3   OH250104   3.853   3.386  11.288 -0.3485 -0.2761 -0.4245
 9538TIP3    H150105   3.814   3.442  11.221  0.0179  1.9914  1.1897
 9538TIP3    H250106   3.945   3.411  11.291 -0.3820 -0.2282  1.0052
 9539TIP3   OH250107   1.613   4.625  15.392 -0.5103 -0.0190  0.0142
 9539TIP3    H150108   1.525   4.621  15.428  0.6806  1.3263  3.2305
 9539TIP3    H250109   1.630   4.718  15.380  0.2286 -0.3031 -1.2460
 9540TIP3   OH250110   0.536   1.465   0.401 -0.2050  0.0978 -0.3493
 9540TIP3    H150111   0.519   1.371   0.401 -0.8583  0.2042 -1.2757
 9540TIP3    H250112   0.523   1.492   0.309  2.6385  0.6240 -0.6540
 9541TIP3   OH250113   0.637   1.108   4.206 -0.1740 -0.0855 -0.1452
 9541TIP3    H150114   0.615   1.140   4.293 -0.8535 -1.2235  0.1135
 9541TIP3    H250115   0.555   1.112   4.158 -0.3892 -1.8998  0.0478
 9542TIP3   OH250116   3.825   1.833   2.634 -0.1483 -0.5943  0.3117
 9542TIP3    H150117   3.921   1.841   2.634 -0.2566  0.9732 -0.9858
 9542TIP3    H250118   3.802   1.829   2.541 -1.5055  1.3907  0.5372
 9543TIP3   OH250119   3.720   4.719   0.973  0.6087  0.7991 -0.6182
 9543TIP3    H150120   3.625   4.729   0.977  0.6920  1.1632  0.6196
 9543TIP3    H250121   3.748   4.780   0.905  0.2210  2.6020  0.8098
 9544TIP3   OH250122   6.572   1.264   1.307  0.2499 -0.4799  0.3072
 9544TIP3    H150123   6.519   1.195   1.268  1.3079 -0.1564 -1.8005
 9544TIP3    H250124   6.662   1.230   1.303  0.4868 -0.0174  1.5661
 9545TIP3   OH250125   1.297   0.369   3.094  0.1607 -0.1797 -0.1099
 9545TIP3    H150126   1.302   0.445   3.152  1.6140 -0.4460  0.1435
 9545TIP3    H250127   1.388   0.352   3.069 -0.0217 -2.3631  0.5322
 9546TIP3   OH250128   5.054   0.753   0.229  0.2351  0.4103 -0.3911
 9546TIP3    H150129   5.031   0.768   0.138 -1.0878  1.2946  0.0703
 9546TIP3    H250130   5.047   0.658   0.241  0.3221  0.3031 -1.1703
 9547TIP3   OH250131   2.019   4.101   0.684 -0.0334 -0.6919  0.0280
 9547TIP3    H150132   1.945   4.150   0.649  0.4345 -0.0231 -0.0429
 9547TIP3    H250133   1.998   4.009   0.667 -0.3515 -0.4392 -0.9430
 9548TIP3   OH250134   5.163   4.304   2.403 -0.0535 -1.0013  0.0128
 9548TIP3    H150135   5.223   4.298   2.329 -1.1063 -0.4116 -0.9085
 9548TIP3    H250136   5.101   4.233   2.389 -0.2132 -0.9311  0.3691
 9549TIP3   OH250137   4.738   0.423   4.093 -0.5135  0.1093 -0.3894
 9549TIP3    H150138   4.725   0.411   4.187  0.2269 -1.7573 -0.5057
 9549TIP3    H250139   4.816   0.372   4.073 -1.3259 -0.4803 -2.2178
 9550TIP3   OH250140   2.321   4.783   6.341  0.4934 -0.5379 -0.9591
 9550TIP3    H150141   2.371   4.833   6.406  0.9116 -1.2753 -0.6991
 9550TIP3    H250142   2.281   4.712   6.391  0.5500 -0.9183 -1.4498
 9551TIP3   OH250143   0.576   1.658   1.268  0.4017  0.6335 -0.2583
 9551TIP3    H150144   0.555   1.699   1.184  0.5919 -0.5891 -0.9085
 9551TIP3    H250145   0.523   1.706   1.332 -0.2517  1.1295 -1.1583
 9552TIP3   OH250146   5.952   6.710  15.367 -0.1761 -0.1552  0.4348
 9552TIP3    H150147   6.001   6.779  15.324 -0.3038 -0.3739 -0.0659
 9552TIP3    H250148   5.878   6.755  15.408 -1.0944 -0.1962 -1.1723
 9553TIP3   OH250149   3.987   0.043   2.895 -0.6620  0.7004  0.2926
 9553TIP3    H150150   4.014  -0.029   2.952 -2.6509  0.5537  1.0888
 9553TIP3    H250151   3.901   0.017   2.862 -0.7913  2.0839 -0.5130
 9554TIP3   OH250152   2.886   5.020   5.864  0.1685  0.0111 -0.0848
 9554TIP3    H150153   2.938   4.986   5.937 -1.3219  1.2869  1.6178
 9554TIP3    H250154   2.910   5.112   5.858  0.1120 -0.0293 -1.0810
 9555TIP3   OH250155   6.676   0.261  16.497  0.3694 -0.0553 -0.5245
 9555TIP3    H150156   6.690   0.213  16.578 -0.6628  1.6581  0.6980
 9555TIP3    H250157   6.757   0.310  16.484 -0.3145  1.4446  0.7256
 9556TIP3   OH250158   4.266   5.140   2.907 -0.0616  0.7673 -0.4017
 9556TIP3    H150159   4.349   5.183   2.884  0.3113  0.9051  1.1956
 9556TIP3    H250160   4.220   5.205   2.960 -1.3480  0.8120 -1.5605
 9557TIP3   OH250161   0.781   2.046  15.242  0.2762  0.3791  0.1814
 9557TIP3    H150162   0.789   2.041  15.147  1.3178  1.9335  0.1822
 9557TIP3    H250163   0.871   2.057  15.273 -0.0160 -0.4808  1.3862
 9558TIP3   OH250164   5.855   1.813  14.953  0.1733 -0.6635  0.1534
 9558TIP3    H150165   5.799   1.835  14.878  1.4304  0.2749 -0.5326
 9558TIP3    H250166   5.848   1.890  15.010 -0.4780 -1.2153  0.8234
 9559TIP3   OH250167   2.273   2.696  12.709  0.1159  0.2071  0.3529
 9559TIP3    H150168   2.353   2.683  12.758  0.5956  0.3211 -0.3911
 9559TIP3    H250169   2.239   2.608  12.693 -0.2930  0.1951  1.3034
 9560TIP3   OH250170   1.005   0.869   0.952 -0.2444 -0.3916 -0.0496
 9560TIP3    H150171   1.022   0.820   1.033 -2.4725 -0.7530  0.2368
 9560TIP3    H250172   0.933   0.928   0.974 -0.3442  0.0700 -1.5424
 9561TIP3   OH250173   0.363   3.306  13.652  0.1590  0.0798  0.0807
 9561TIP3    H150174   0.386   3.214  13.653  0.3977  0.1287 -0.5306
 9561TIP3    H250175   0.440   3.350  13.616  0.1362  0.5385  0.5846
 9562TIP3   OH250176   0.726   3.481  11.254 -0.3339 -0.2063 -0.6808
 9562TIP3    H150177   0.805   3.432  11.276 -0.8569 -0.5070  0.5360
 9562TIP3    H250178   0.734   3.498  11.160  0.1853 -2.0500 -0.9868
 9563TIP3   OH250179   5.056   3.988   0.969  0.0579 -0.0783  0.0707
 9563TIP3    H150180   5.148   3.980   0.944 -0.0355  0.2386 -0.3662
 9563TIP3    H250181   5.032   4.078   0.947  0.0004  0.2370  1.3642
 9564TIP3   OH250182   5.472   4.301  16.884  0.7938 -0.4662  0.3483
 9564TIP3    H150183   5.560   4.322  16.855  1.0294  1.8566  2.5513
 9564TIP3    H250184   5.484   4.243  16.960  0.3487 -1.6746 -0.4853
 9565TIP3   OH250185   4.209   3.391  16.229  0.3144  0.1425  0.2917
 9565TIP3    H150186   4.165   3.378  16.145 -1.0207  0.2516  0.9773
 9565TIP3    H250187   4.199   3.307  16.274 -3.0229  1.4837  2.2297
 9566TIP3   OH250188   0.318   4.738  12.241  0.2897  0.1885  0.3136
 9566TIP3    H150189   0.392   4.682  12.221  1.0305  0.7253  1.4933
 9566TIP3    H250190   0.356   4.825  12.252 -0.8370  0.9230 -1.4350
 9567TIP3   OH250191   2.587   3.394  17.183 -0.0196  0.2215  0.6483
 9567TIP3    H150192   2.668   3.344  17.172  0.1020  0.3098  1.1201
 9567TIP3    H250193   2.593   3.463  17.117 -0.8416 -1.2153 -0.9523
 9568TIP3   OH250194   2.401   3.771  16.583  0.4821  0.2187  0.1504
 9568TIP3    H150195   2.446   3.773  16.498 -1.0287 -0.8441 -0.6949
 9568TIP3    H250196   2.416   3.683  16.616 -0.2197  0.1431  0.2728
 9569TIP3   OH250197   2.514   4.140  15.412 -0.0334  0.2909 -0.0223
 9569TIP3    H150198   2.472   4.081  15.349  0.1876 -0.6607  0.7301
 9569TIP3    H250199   2.451   4.146  15.484  0.5102 -0.0468  0.4825
 9570TIP3   OH250200   6.014   5.993   0.025 -0.7544  0.0360 -0.1969
 9570TIP3    H150201   5.966   6.068   0.060 -0.6174 -0.1450  0.3858
 9570TIP3    H250202   5.947   5.937  -0.014 -0.8331  0.5592 -0.8102
 9571TIP3   OH250203   3.254   4.870   1.835 -0.3382  0.0276  0.2309
 9571TIP3    H150204   3.323   4.901   1.893  0.0821 -0.0503 -0.2238
 9571TIP3    H250205   3.224   4.789   1.874  0.4885 -0.4354 -0.0861
 9572TIP3   OH250206   5.671   2.574   2.187  0.5805  1.0862  0.0113
 9572TIP3    H150207   5.666   2.669   2.199  0.6441  1.1554 -0.5058
 9572TIP3    H250208   5.763   2.557   2.168  0.4461  1.0059 -0.5888
 9573TIP3   OH250209   5.988   4.234   4.989  0.0655 -0.0869 -0.2120
 9573TIP3    H150210   5.950   4.148   4.969 -1.4652  1.1713 -2.9520
 9573TIP3    H250211   5.923   4.275   5.047  0.7459 -0.6858  1.0086
 9574TIP3   OH250212   0.779   5.112  11.352 -0.9040 -0.0928 -0.6367
 9574TIP3    H150213   0.718   5.159  11.408  0.6713  1.3204 -0.0708
 9574TIP3    H250214   0.777   5.022  11.385  1.6291  1.1326  3.2595
 9575TIP3   OH250215   2.092   4.876  11.508  0.2856 -0.0441 -0.1236
 9575TIP3    H150216   2.072   4.946  11.445  1.2068 -0.2795 -0.6966
 9575TIP3    H250217   2.082   4.796  11.457 -0.4957 -0.3121  0.4571
 9576TIP3   OH250218   6.356   2.507  12.198 -0.1771 -0.4213 -0.4122
 9576TIP3    H150219   6.384   2.583  12.248 -0.4336 -1.0186  0.6481
 9576TIP3    H250220   6.412   2.507  12.120  0.3613  0.3902 -0.0232
 9577TIP3   OH250221   0.576   0.816  12.076  0.3057 -0.0758  0.3225
 9577TIP3    H150222   0.559   0.735  12.124 -0.0947  1.2867  2.5548
 9577TIP3    H250223   0.668   0.836  12.094 -0.1508  1.0398  1.5030
 9578TIP3   OH250224   1.089   4.119  16.725  0.3437  0.1179 -0.0131
 9578TIP3    H150225   1.052   4.174  16.656  0.1986  0.5119  0.3863
 9578TIP3    H250226   1.119   4.180  16.792 -1.1907 -0.3593  1.1214
 9579TIP3   OH250227   1.209   0.164   3.285 -0.1449  0.7043  0.0506
 9579TIP3    H150228   1.236   0.076   3.259 -2.3708  0.3553 -1.2310
 9579TIP3    H250229   1.259   0.222   3.227  0.9601  0.2685  0.5614
 9580TIP3   OH250230   1.827   4.538   4.947  0.9324 -0.1803 -0.0375
 9580TIP3    H150231   1.746   4.590   4.949  0.3101 -1.1602  2.3817
 9580TIP3    H250232   1.821   4.487   4.867  0.5753  1.9488 -1.4050
 9581TIP3   OH250233   1.513   6.794   0.509 -0.5918 -0.3356 -0.2702
 9581TIP3    H150234   1.419   6.808   0.507 -0.4631  0.5861 -0.2485
 9581TIP3    H250235   1.542   6.835   0.591 -0.6383 -3.7648  1.5479
 9582TIP3   OH250236   2.671   4.680   6.495 -0.5041  0.1855  0.1095
 9582TIP3    H150237   2.599   4.741   6.511 -0.9984  0.4050 -2.6891
 9582TIP3    H250238   2.750   4.733   6.510 -0.9372  0.9074 -0.1127
 9583TIP3   OH250239   1.165   2.146   3.147  0.4482  0.4393 -0.4595
 9583TIP3    H150240   1.251   2.109   3.127  0.2498 -1.1327  1.4018
 9583TIP3    H250241   1.182   2.239   3.162  2.2269 -0.2579  2.1559
 9584TIP3   OH250242   2.296   4.719   3.580  0.1423 -0.1160  0.0977
 9584TIP3    H150243   2.354   4.651   3.546 -1.3357 -1.3814  0.0520
 9584TIP3    H250244   2.236   4.737   3.507  0.2248  0.8905  0.2742
 9585TIP3   OH250245   5.275   0.054  14.389 -0.4644 -0.2641  0.4906
 9585TIP3    H150246   5.307  -0.036  14.397  0.0332 -0.0503  0.9547
 9585TIP3    H250247   5.218   0.067  14.465 -0.8325 -0.3043  0.2263
 9586TIP3   OH250248   5.622   4.214   1.991 -0.4088  0.7875 -0.3335
 9586TIP3    H150249   5.648   4.285   1.933 -0.7741  0.2560 -1.1469
 9586TIP3    H250250   5.584   4.147   1.934 -0.5423  0.1495  0.4759
 9587TIP3   OH250251   2.103   0.640  16.041 -0.2792  0.2172  0.3409
 9587TIP3    H150252   2.160   0.575  16.082 -1.4768 -1.1374 -0.1047
 9587TIP3    H250253   2.032   0.652  16.104 -1.0907 -0.3844 -0.4619
 9588TIP3   OH250254   0.220   6.358   5.135 -0.1717 -0.0378 -0.0825
 9588TIP3    H150255   0.208   6.293   5.065  1.0816 -0.5501  0.1563
 9588TIP3    H250256   0.292   6.413   5.104  0.1428 -0.0406  0.6347
 9589TIP3   OH250257   1.986   4.405   1.567  0.0329 -0.0532  0.1335
 9589TIP3    H150258   2.042   4.441   1.636 -2.5659 -0.3079  2.4755
 9589TIP3    H250259   1.986   4.311   1.584 -0.3633 -0.1529 -0.4235
 9590TIP3   OH250260   0.834   5.720  14.114 -0.5352  0.1812  0.1742
 9590TIP3    H150261   0.867   5.631  14.099 -0.8303  0.1435 -0.2790
 9590TIP3    H250262   0.863   5.769  14.037 -2.1408 -0.0256 -0.5865
 9591TIP3   OH250263   0.699   3.811   1.847  0.0968 -0.2028  0.0277
 9591TIP3    H150264   0.728   3.894   1.885  0.6959  0.7007 -2.2954
 9591TIP3    H250265   0.737   3.811   1.759 -0.6012 -2.5671 -0.3039
 9592TIP3   OH250266   3.824   6.423   2.721  0.1857 -0.2318  0.2100
 9592TIP3    H150267   3.882   6.427   2.645  0.3164 -0.4971  0.2958
 9592TIP3    H250268   3.853   6.494   2.777  0.1152 -0.0606  0.0308
 9593TIP3   OH250269   6.318   0.362   3.349 -0.2836  0.0324 -0.0821
 9593TIP3    H150270   6.371   0.384   3.425  2.0792 -1.6356 -1.1702
 9593TIP3    H250271   6.327   0.437   3.290 -0.9883  0.7238  0.6862
 9594TIP3   OH250272   0.094   3.879  11.767 -0.1313 -0.6664 -0.0171
 9594TIP3    H150273   0.055   3.956  11.808  1.7357 -0.1234  0.8082
 9594TIP3    H250274   0.028   3.849  11.706 -0.5617  2.1488 -1.0392
 9595TIP3   OH250275   1.229   0.529  15.429  0.2225 -0.7938 -0.0624
 9595TIP3    H150276   1.303   0.477  15.400 -0.6237 -2.3795  0.5781
 9595TIP3    H250277   1.153   0.494  15.382 -0.4740 -0.6802  0.9370
 9596TIP3   OH250278   4.788   1.885   2.085  0.0301 -0.4113 -0.1770
 9596TIP3    H150279   4.735   1.906   2.008  1.1977 -0.5463 -1.0326
 9596TIP3    H250280   4.818   1.796   2.070 -0.2492 -0.6676  0.7446
 9597TIP3   OH250281   5.119   4.313   1.135  0.1194 -0.2164  0.1304
 9597TIP3    H150282   5.186   4.254   1.099  0.9202  0.0230  1.2068
 9597TIP3    H250283   5.156   4.344   1.217 -1.3689 -0.1295  0.7741
 9598TIP3   OH250284   3.322   6.587  15.054  0.1356 -0.4052 -0.0726
 9598TIP3    H150285   3.292   6.677  15.058  1.0041 -0.1428  0.5768
 9598TIP3    H250286   3.372   6.582  14.973 -1.1117 -0.6903 -0.8487
 9599TIP3   OH250287   3.498   6.596  14.835  0.0959 -0.1065 -0.1077
 9599TIP3    H150288   3.526   6.568  14.748  0.5200 -0.1887  0.0550
 9599TIP3    H250289   3.518   6.689  14.838  1.2005 -0.3561  0.3429
 9600TIP3   OH250290   1.933   3.391   5.087  0.0821 -0.2360 -0.0850
 9600TIP3    H150291   2.019   3.394   5.128 -0.2486 -0.2026  0.6187
 9600TIP3    H250292   1.950   3.362   4.997  0.7698 -0.7514  0.2089
 9601TIP3   OH250293   3.725   1.193   3.876 -0.5364 -0.6996  0.7433
 9601TIP3    H150294   3.781   1.269   3.864 -1.2398 -0.2931 -0.0573
 9601TIP3    H250295   3.684   1.206   3.962 -0.1637 -0.5065  0.8925
 9602TIP3   OH250296   3.954   1.653   5.505  0.1406 -0.2772 -0.1221
 9602TIP3    H150297   3.950   1.724   5.441  0.0840  0.4107  0.6359
 9602TIP3    H250298   3.875   1.602   5.489 -1.0426  1.1989  0.8929
 9603TIP3   OH250299   2.012   2.404  14.994  0.3940 -0.3004 -0.0965
 9603TIP3    H150300   2.054   2.471  15.048  0.0393  0.8063 -1.1691
 9603TIP3    H250301   1.921   2.404  15.022  0.1577  0.4417 -0.8372
 9604TIP3   OH250302   5.063   5.254   3.061 -0.3659  0.1706  0.1181
 9604TIP3    H150303   4.995   5.307   3.102 -0.7097  1.3732 -1.9440
 9604TIP3    H250304   5.144   5.302   3.078 -0.3228 -0.0495  0.5509
 9605TIP3   OH250305   5.465   6.790  14.967 -0.2047 -0.3309 -0.1276
 9605TIP3    H150306   5.392   6.734  14.942 -0.5008 -0.6622  1.4164
 9605TIP3    H250307   5.487   6.762  15.056  2.2195 -0.6802 -0.7907
 9606TIP3   OH250308   4.605   0.350  13.702 -0.2259 -0.5269  0.1664
 9606TIP3    H150309   4.655   0.268  13.705  0.3069 -0.1932  0.5385
 9606TIP3    H250310   4.652   0.409  13.762 -0.5979  0.0549 -0.1088
 9607TIP3   OH250311   6.733   0.306   2.186 -0.3168  0.0634  0.2434
 9607TIP3    H150312   6.824   0.326   2.211 -0.7514  2.5375 -0.0101
 9607TIP3    H250313   6.685   0.385   2.210 -1.8808 -0.0371 -2.4739
 9608TIP3   OH250314   5.690   4.402  15.918  0.2262 -0.0939  0.4440
 9608TIP3    H150315   5.605   4.444  15.905 -0.3171 -0.6199  2.0799
 9608TIP3    H250316   5.754   4.471  15.905 -0.6247  1.0963  2.3263
 9609TIP3   OH250317   0.021   2.939   4.373 -0.0184  0.1893  0.2983
 9609TIP3    H150318  -0.074   2.950   4.362  0.1891  0.0276 -1.8431
 9609TIP3    H250319   0.029   2.872   4.441 -1.4680 -0.4672 -0.1538
 9610TIP3   OH250320   2.430   3.503   5.779  0.0395 -0.2559  0.4747
 9610TIP3    H150321   2.484   3.454   5.841 -1.4786 -4.2287 -1.1569
 9610TIP3    H250322   2.350   3.524   5.828  0.9020  1.0223  1.3400
 9611TIP3   OH250323   3.219   4.010  11.842  0.8052  0.2726  0.4351
 9611TIP3    H150324   3.250   3.952  11.912  0.2974 -1.9258 -1.0949
 9611TIP3    H250325   3.274   3.988  11.767 -1.3881 -0.4033 -1.0154
 9612TIP3   OH250326   5.559   0.341   1.871  0.0096  0.3690 -0.7674
 9612TIP3    H150327   5.507   0.295   1.937 -0.4839  3.6899  1.3024
 9612TIP3    H250328   5.650   0.326   1.899 -0.2119  2.2038  1.0567
 9613TIP3   OH250329   1.977   3.724   4.423 -0.0463 -0.5220 -0.4624
 9613TIP3    H150330   1.957   3.646   4.372 -0.7216  0.1352 -1.2094
 9613TIP3    H250331   2.004   3.789   4.358 -4.3198  1.4519 -0.4456
 9614TIP3   OH250332   1.405   2.291   2.274 -0.6005  0.3870  0.0720
 9614TIP3    H150333   1.445   2.370   2.311 -0.3621 -0.6029  1.9654
 9614TIP3    H250334   1.454   2.219   2.313  0.6775 -0.7082 -3.3559
 9615TIP3   OH250335   0.956   5.638  12.686 -0.6424  0.3179  0.1889
 9615TIP3    H150336   1.019   5.574  12.653 -0.8130  1.1574 -1.8221
 9615TIP3    H250337   0.985   5.721  12.649 -0.7302  1.3423  2.3602
 9616TIP3   OH250338   3.082   4.469  11.734 -1.1298 -0.0827  0.0845
 9616TIP3    H150339   3.162   4.456  11.683 -1.0152  2.5327 -0.4290
 9616TIP3    H250340   3.072   4.387  11.782  2.2759 -0.1988  0.7484
 9617TIP3   OH250341   3.757   6.348   3.816 -0.0836  0.5356 -0.4238
 9617TIP3    H150342   3.724   6.343   3.726 -1.2750  1.6941 -0.0635
 9617TIP3    H250343   3.828   6.412   3.811  1.5212 -1.2209 -0.9999
 9618TIP3   OH250344   5.771   5.239  15.456  0.0522  0.0940  0.5480
 9618TIP3    H150345   5.690   5.290  15.451  0.0540  0.4289  3.0632
 9618TIP3    H250346   5.766   5.178  15.382 -2.1500  0.6053  0.2393
 9619TIP3   OH250347   1.136   5.929  15.209 -0.2060 -0.0400 -0.0520
 9619TIP3    H150348   1.218   5.920  15.161  0.4300  1.6310  0.7131
 9619TIP3    H250349   1.099   6.012  15.179 -1.8988 -1.0402 -0.8080
 9620TIP3   OH250350   3.490   1.300   1.454 -0.1853  0.7051  0.3520
 9620TIP3    H150351   3.509   1.282   1.362  2.5347  0.0200  0.9890
 9620TIP3    H250352   3.566   1.349   1.485  0.4734 -1.7903  2.9820
 9621TIP3   OH250353   2.661   3.583  12.339 -0.0220  0.0072  0.2274
 9621TIP3    H150354   2.625   3.531  12.268 -0.4946 -0.9442  1.1391
 9621TIP3    H250355   2.673   3.520  12.411 -1.9434  1.3960  1.8356
 9622TIP3   OH250356   0.093   5.011   2.311  0.0854  0.5838 -0.1606
 9622TIP3    H150357   0.046   4.970   2.383 -0.5756  1.5617 -0.0264
 9622TIP3    H250358   0.043   5.090   2.292  0.6187  0.6635 -1.2649
 9623TIP3   OH250359   4.483   1.714   6.375  0.7209  0.0495  0.3151
 9623TIP3    H150360   4.424   1.671   6.436 -0.4104  0.3961 -0.5118
 9623TIP3    H250361   4.472   1.666   6.293  1.4456  0.2387  0.1010
 9624TIP3   OH250362   5.977   4.795   4.930  0.9192 -0.1658 -0.1686
 9624TIP3    H150363   5.987   4.870   4.870  0.3109  0.3448  0.3686
 9624TIP3    H250364   5.946   4.724   4.874 -4.1652  1.5102  0.2727
 9625TIP3   OH250365   6.309   3.317   2.900 -1.1895  0.0971 -0.0117
 9625TIP3    H150366   6.237   3.254   2.897 -1.8842  0.8749  0.2199
 9625TIP3    H250367   6.340   3.322   2.810 -0.9269 -0.8055  0.0220
 9626TIP3   OH250368   4.443   2.849  14.808 -0.2053  0.3471 -0.6347
 9626TIP3    H150369   4.430   2.828  14.716  0.0204  1.1603 -0.8494
 9626TIP3    H250370   4.471   2.940  14.809  1.1728 -0.0662  0.1447
 9627TIP3   OH250371   2.534   2.382  12.198  0.3149 -0.3279  0.2063
 9627TIP3    H150372   2.497   2.295  12.215  1.4611 -0.7165  0.8109
 9627TIP3    H250373   2.546   2.420  12.285  1.8201 -0.4383  0.0657
 9628TIP3   OH250374   3.928   4.558   3.103  0.4211 -0.5753  0.7917
 9628TIP3    H150375   4.004   4.544   3.046  0.7075 -0.1206  1.0583
 9628TIP3    H250376   3.861   4.500   3.068  0.4959 -0.0799 -0.2001
 9629TIP3   OH250377   5.581   1.473   1.352  0.6835  0.1960 -0.1502
 9629TIP3    H150378   5.520   1.437   1.288  1.6727 -0.0153 -0.9972
 9629TIP3    H250379   5.527   1.494   1.428 -0.1304 -1.7601 -0.1683
 9630TIP3   OH250380   3.564   0.441  11.116 -0.3414 -0.4971 -0.0518
 9630TIP3    H150381   3.646   0.395  11.135 -0.6678 -0.2285  2.1744
 9630TIP3    H250382   3.566   0.456  11.022  1.8370 -1.1403 -0.1371
 9631TIP3   OH250383   0.488   6.496   1.019 -0.1588  0.8918 -0.5389
 9631TIP3    H150384   0.570   6.454   0.993  0.2055 -0.5083  2.5805
 9631TIP3    H250385   0.422   6.426   1.014 -0.8184  1.5777 -1.4347
 9632TIP3   OH250386   2.759   4.064  15.499  0.0583 -0.1397  0.2477
 9632TIP3    H150387   2.732   3.979  15.464  1.1723 -0.8514  1.0881
 9632TIP3    H250388   2.686   4.122  15.478 -0.4655 -1.1595 -0.8591
 9633TIP3   OH250389   3.279   6.668   3.433 -0.2061  0.1647 -0.1245
 9633TIP3    H150390   3.242   6.706   3.513 -2.0463 -1.5107 -0.1455
 9633TIP3    H250391   3.374   6.673   3.446 -0.4723 -0.3191  2.2960
 9634TIP3   OH250392   2.748   6.429   2.581  0.0099  0.2733  0.3165
 9634TIP3    H150393   2.814   6.372   2.542  0.3526  0.3481  0.7766
 9634TIP3    H250394   2.759   6.513   2.537  1.4182  0.7951  1.6236
 9635TIP3   OH250395   2.872   1.779   4.631  0.5836  0.1262  0.6483
 9635TIP3    H150396   2.958   1.743   4.613  0.1392  0.1305 -1.6728
 9635TIP3    H250397   2.840   1.808   4.546 -1.7308  0.0972  1.4713
 9636TIP3   OH250398   6.565   0.717   4.894 -0.5691  0.5629  0.0187
 9636TIP3    H150399   6.562   0.793   4.836  0.0610  0.9232  0.4431
 9636TIP3    H250400   6.477   0.681   4.892 -0.9343  1.4405 -0.0165
 9637TIP3   OH250401   5.310   4.872  15.905  0.1962 -0.1225  0.0471
 9637TIP3    H150402   5.371   4.894  15.975 -1.4520 -0.1171  1.5272
 9637TIP3    H250403   5.364   4.865  15.826  1.9476  0.7666  1.1525
 9638TIP3   OH250404   6.309   5.273   3.732  0.3538 -0.0297 -0.1648
 9638TIP3    H150405   6.330   5.201   3.673 -1.4330 -1.3289  0.7131
 9638TIP3    H250406   6.251   5.330   3.681 -2.2763 -1.8472  0.6960
 9639TIP3   OH250407   1.589   2.893  10.158  0.1374  0.1048  0.2983
 9639TIP3    H150408   1.674   2.851  10.167 -0.1395 -0.4662  0.2765
 9639TIP3    H250409   1.527   2.832  10.198 -0.5668 -0.5515 -1.7427
 9640TIP3   OH250410   2.727   4.750   3.407  0.4779  0.2487  0.1727
 9640TIP3    H150411   2.757   4.779   3.321 -1.5146  0.6968 -0.3960
 9640TIP3    H250412   2.748   4.822   3.466  0.7414  0.4490 -0.1665
 9641TIP3   OH250413   3.414   0.890   4.901  0.0550 -0.5478  0.0813
 9641TIP3    H150414   3.390   0.840   4.823 -0.7967 -1.5744  0.9990
 9641TIP3    H250415   3.483   0.949   4.871 -1.4597  0.2929 -1.8712
 9642TIP3   OH250416   1.363   1.679  12.070 -0.6791 -0.1991  0.4651
 9642TIP3    H150417   1.349   1.632  11.988 -1.1989 -0.6239  0.7886
 9642TIP3    H250418   1.325   1.621  12.137 -1.5331  0.7817  0.8450
 9643TIP3   OH250419   4.361   5.600  11.196  0.0565  0.5678  0.1207
 9643TIP3    H150420   4.342   5.694  11.193  0.0241  0.5326 -1.2233
 9643TIP3    H250421   4.419   5.585  11.122 -0.4556 -0.5813 -0.0600
 9644TIP3   OH250422   2.819   6.060  14.236 -0.1925  0.7269 -0.1433
 9644TIP3    H150423   2.733   6.103  14.231 -0.6680 -0.1991 -0.0124
 9644TIP3    H250424   2.806   5.976  14.191  0.8008  0.8282 -0.6224
 9645TIP3   OH250425   3.985   1.730  12.750 -0.0611  0.1054  0.1302
 9645TIP3    H150426   3.916   1.793  12.767 -0.3114  0.4197 -1.9040
 9645TIP3    H250427   4.066   1.781  12.754 -0.1215  0.1807  0.3608
 9646TIP3   OH250428   0.786   5.847   5.308 -0.3995  0.3738 -0.3619
 9646TIP3    H150429   0.750   5.930   5.337 -2.1027 -0.3131 -0.4700
 9646TIP3    H250430   0.778   5.789   5.383 -1.4469 -0.3752 -1.0474
 9647TIP3   OH250431   2.329   2.404   5.832 -0.1776  0.3416 -0.0653
 9647TIP3    H150432   2.302   2.366   5.915  0.3902  0.8493  0.3564
 9647TIP3    H250433   2.292   2.346   5.765 -0.0434 -0.4538  0.5516
 9648TIP3   OH250434   6.568   4.300  17.021 -0.1768  0.4232 -0.0734
 9648TIP3    H150435   6.519   4.374  16.985 -0.0968  0.1558 -0.7196
 9648TIP3    H250436   6.660   4.327  17.016 -0.2344  0.9015  1.0863
 9649TIP3   OH250437   6.523   5.946  11.995  0.0281 -0.1973  0.3800
 9649TIP3    H150438   6.478   5.866  12.019 -0.1243 -0.1331  0.3072
 9649TIP3    H250439   6.604   5.916  11.953 -1.1684 -0.3557 -1.9061
 9650TIP3   OH250440   5.050   6.017   0.628 -0.3881  0.3544  0.4604
 9650TIP3    H150441   5.112   5.949   0.600  1.1017  1.3784  1.1522
 9650TIP3    H250442   4.977   6.010   0.566  0.2050 -1.1976 -0.0942
 9651TIP3   OH250443   4.666   6.570   5.052 -0.1266  0.3301 -0.2027
 9651TIP3    H150444   4.651   6.596   5.143 -0.5161  0.5058 -0.3161
 9651TIP3    H250445   4.681   6.476   5.056 -0.4802  0.2817  0.0046
 9652TIP3   OH250446   2.637   3.815  13.728 -0.2007  0.3504  0.4793
 9652TIP3    H150447   2.547   3.791  13.755 -0.4602  0.9522  0.1445
 9652TIP3    H250448   2.625   3.866  13.648  0.3706  1.3971  1.0549
 9653TIP3   OH250449   4.569   3.777  16.671  0.2954  0.3943  0.2802
 9653TIP3    H150450   4.529   3.843  16.613  0.3741  0.2904  0.1081
 9653TIP3    H250451   4.586   3.702  16.614 -1.0270 -0.2767  0.7668
 9654TIP3   OH250452   2.040   4.717  12.419  0.0211 -0.0818  0.4619
 9654TIP3    H150453   2.047   4.623  12.400  0.9517 -0.0003  0.4222
 9654TIP3    H250454   2.124   4.754  12.394 -0.2603  0.7367  0.6915
 9655TIP3   OH250455   0.812   0.682  15.086  0.4419  0.0378 -0.2445
 9655TIP3    H150456   0.767   0.733  15.019  0.2231 -0.4306 -0.4510
 9655TIP3    H250457   0.756   0.606  15.101 -0.4783  1.0950  1.8373
 9656TIP3   OH250458   6.245   0.872   2.945 -0.2561 -0.1059 -0.3502
 9656TIP3    H150459   6.340   0.861   2.948 -0.3256 -0.7989 -0.4193
 9656TIP3    H250460   6.220   0.887   3.036  0.2405  3.1964 -0.6951
 9657TIP3   OH250461   2.905   3.109  15.146  0.1669  0.8041 -0.3270
 9657TIP3    H150462   2.855   3.185  15.177  0.1016  0.6976 -0.1704
 9657TIP3    H250463   2.868   3.035  15.194 -0.5594  0.5018 -1.3510
 9658TIP3   OH250464   4.725   3.038   4.320 -0.5703 -0.0481 -0.4869
 9658TIP3    H150465   4.715   2.943   4.326  0.2668 -0.0358  1.6780
 9658TIP3    H250466   4.709   3.069   4.409 -1.1604  1.8771 -1.2454
 9659TIP3   OH250467   3.172   0.546   2.413 -0.0709  0.2940 -0.2631
 9659TIP3    H150468   3.214   0.556   2.499 -1.7626  0.2066  0.5924
 9659TIP3    H250469   3.088   0.591   2.422 -0.4283 -0.0608 -1.7453
 9660TIP3   OH250470   6.735   6.351   6.096  0.4195 -0.0935 -0.0742
 9660TIP3    H150471   6.797   6.329   6.027  0.6898 -1.2572  0.5139
 9660TIP3    H250472   6.653   6.366   6.051  0.7708 -0.0922 -0.7164
 9661TIP3   OH250473   1.929   6.183  12.121  0.2864 -0.5648 -0.8594
 9661TIP3    H150474   1.996   6.231  12.170 -0.2214 -1.0113  0.2892
 9661TIP3    H250475   1.944   6.092  12.143  0.0506 -0.7752 -1.5550
 9662TIP3   OH250476   4.005   5.525  14.954  0.4036 -0.6293 -1.1207
 9662TIP3    H150477   4.047   5.609  14.939 -1.3037  0.3010 -0.8349
 9662TIP3    H250478   4.073   5.460  14.936  1.6248  0.7976 -1.7197
 9663TIP3   OH250479   6.379   4.566  12.724 -0.6500  0.5519 -0.3711
 9663TIP3    H150480   6.348   4.648  12.686  0.5992  2.0088  1.6489
 9663TIP3    H250481   6.339   4.564  12.811  0.3334 -0.3757  0.0681
 9664TIP3   OH250482   3.097   0.470  13.501 -0.0975 -0.1512 -0.5362
 9664TIP3    H150483   3.119   0.558  13.531 -0.2692 -0.2915  0.0112
 9664TIP3    H250484   3.063   0.483  13.413 -0.2306  0.3489 -0.4170
 9665TIP3   OH250485   0.537   4.673   1.604 -0.5026  0.3755 -0.3990
 9665TIP3    H150486   0.495   4.588   1.596 -1.5409  0.8403  0.0943
 9665TIP3    H250487   0.573   4.674   1.693 -0.0382  0.2583 -0.5799
 9666TIP3   OH250488   2.280   2.133  16.455  0.2743  0.1623 -0.5141
 9666TIP3    H150489   2.252   2.047  16.423 -0.1299  0.3359 -0.6316
 9666TIP3    H250490   2.225   2.148  16.532  0.9957 -0.0962  0.0501
 9667TIP3   OH250491   4.570   1.280  11.809 -0.4301 -0.0764 -0.2373
 9667TIP3    H150492   4.620   1.203  11.836 -0.1998  0.5892  1.2703
 9667TIP3    H250493   4.608   1.305  11.724 -0.7421 -1.8194 -0.9031
 9668TIP3   OH250494   0.955   5.870   3.967  0.1646  0.3399 -0.2725
 9668TIP3    H150495   0.971   5.827   4.051  0.1286 -0.3719 -0.6312
 9668TIP3    H250496   1.035   5.919   3.950  0.3551  0.1038 -0.0585
 9669TIP3   OH250497   4.984   0.893  15.282 -0.0444  0.5591 -0.4895
 9669TIP3    H150498   4.892   0.868  15.274  0.4528 -1.8354  0.7849
 9669TIP3    H250499   4.994   0.917  15.374  0.7029  0.3637 -0.5146
 9670TIP3   OH250500   5.599   4.467  16.488  0.2538 -0.4675 -0.2822
 9670TIP3    H150501   5.504   4.462  16.504 -0.0776  0.8426 -1.8002
 9670TIP3    H250502   5.610   4.435  16.399  1.1958 -0.1339 -0.2896
 9671TIP3   OH250503   5.557   0.896  11.233 -0.1878  0.4766  0.0055
 9671TIP3    H150504   5.547   0.944  11.151  0.4107  2.4499  1.0523
 9671TIP3    H250505   5.467   0.875  11.259 -0.4428  0.7552 -0.6366
 9672TIP3   OH250506   1.518   2.815   1.654  0.3538 -0.3235  0.2712
 9672TIP3    H150507   1.440   2.760   1.643  1.9177 -2.4945 -0.1616
 9672TIP3    H250508   1.549   2.795   1.742 -0.0644  1.2319  0.7931
 9673TIP3   OH250509   5.813   2.648   3.893 -0.2366 -0.2329 -0.3785
 9673TIP3    H150510   5.873   2.706   3.846 -0.4980  1.2114  1.0037
 9673TIP3    H250511   5.742   2.630   3.831 -0.7717  1.9360 -0.4246
 9674TIP3   OH250512   6.711   1.520  16.530 -0.2387  0.0674  0.8357
 9674TIP3    H150513   6.663   1.595  16.565 -1.0160  0.1025 -0.2729
 9674TIP3    H250514   6.684   1.446  16.585 -1.7605  0.0410  0.0756
 9675TIP3   OH250515   5.462   2.477  13.273 -0.1911 -0.6283 -0.2323
 9675TIP3    H150516   5.462   2.415  13.200  1.4561  0.6237 -1.3400
 9675TIP3    H250517   5.393   2.540  13.250  0.8924  0.2406 -1.1457
 9676TIP3   OH250518   4.281   5.302   0.278 -0.0962 -0.1280 -0.5313
 9676TIP3    H150519   4.188   5.323   0.267 -0.0042  0.6222  0.0759
 9676TIP3    H250520   4.315   5.297   0.188 -0.6079  0.1248 -0.7407
 9677TIP3   OH250521   6.323   2.286   0.281  0.1477  0.0418  0.0102
 9677TIP3    H150522   6.312   2.318   0.191  0.6018  1.1259  0.3327
 9677TIP3    H250523   6.350   2.195   0.271 -1.1530 -0.2644 -0.9319
 9678TIP3   OH250524   1.561   3.271   5.671  0.3598 -0.3191  0.7349
 9678TIP3    H150525   1.521   3.357   5.659 -0.6578 -1.0051 -1.1110
 9678TIP3    H250526   1.537   3.245   5.759 -0.6899  0.5911  0.7318
 9679TIP3   OH250527   2.003   3.901  13.205  0.0009 -0.1742 -0.0684
 9679TIP3    H150528   2.008   3.937  13.116  1.4097 -0.4944 -0.1400
 9679TIP3    H250529   1.911   3.881  13.218 -0.5881  2.0123 -0.6036
 9680TIP3   OH250530   3.187   2.039  14.681 -0.9120  0.5132  0.5450
 9680TIP3    H150531   3.269   2.083  14.662 -0.4656  0.0090  1.2509
 9680TIP3    H250532   3.196   2.010  14.772 -1.4542 -0.4422  0.3060
 9681TIP3   OH250533   1.386   0.196   1.895  0.0970  0.6299  0.1294
 9681TIP3    H150534   1.386   0.272   1.953 -1.1615  1.2192 -0.6123
 9681TIP3    H250535   1.473   0.198   1.853 -0.1193  1.9793 -0.2887
 9682TIP3   OH250536   3.497   2.510  12.558 -0.3126  0.1328 -0.1384
 9682TIP3    H150537   3.450   2.572  12.615 -0.6766  0.3484 -0.6672
 9682TIP3    H250538   3.508   2.432  12.612  2.2062  1.4478  1.3324
 9683TIP3   OH250539   5.451   5.810   3.344 -0.0304  0.0169  0.1932
 9683TIP3    H150540   5.525   5.826   3.402  0.4257 -2.8787  0.4845
 9683TIP3    H250541   5.490   5.798   3.257 -0.1539 -1.4604  0.3368
 9684TIP3   OH250542   3.840   3.770   1.696 -0.4660  0.0934  0.1886
 9684TIP3    H150543   3.846   3.740   1.606  0.5041  0.2050  0.2173
 9684TIP3    H250544   3.875   3.697   1.748 -1.3000 -0.0947  0.5044
 9685TIP3   OH250545   6.450   4.281  15.832  0.9283  0.3669 -0.3954
 9685TIP3    H150546   6.410   4.343  15.772 -0.7415 -0.2955  0.0094
 9685TIP3    H250547   6.526   4.248  15.785  0.6268  1.1370 -1.4476
 9686TIP3   OH250548   2.444   5.191  14.764  0.4421 -0.0979  0.1052
 9686TIP3    H150549   2.404   5.109  14.734 -0.2233 -0.1785  1.1716
 9686TIP3    H250550   2.536   5.183  14.739  0.6804 -1.7822  1.3790
 9687TIP3   OH250551   5.853   4.577  13.143  0.2157  0.0076 -0.3132
 9687TIP3    H150552   5.790   4.512  13.111 -1.0016  0.9144  0.2005
 9687TIP3    H250553   5.883   4.543  13.227  0.2914 -0.3381 -0.4769
 9688TIP3   OH250554   3.723   2.859  12.583  0.1314  0.4746  0.0798
 9688TIP3    H150555   3.809   2.858  12.625  0.8629 -0.0004 -1.4096
 9688TIP3    H250556   3.735   2.918  12.508 -0.3491 -0.9725 -1.1438
 9689TIP3   OH250557   2.010   3.291  16.685  0.2732  0.3645 -0.7900
 9689TIP3    H150558   2.095   3.305  16.726  0.5133  1.6609 -1.6913
 9689TIP3    H250559   1.986   3.378  16.651 -2.2717  0.4738  1.1210
 9690TIP3   OH250560   5.970   2.619  16.931 -0.3186 -0.2384 -0.2336
 9690TIP3    H150561   5.951   2.565  17.008 -0.0364  0.2059  0.1532
 9690TIP3    H250562   5.961   2.709  16.962  2.7344  0.0235  0.0984
 9691TIP3   OH250563   4.818   4.436  12.014  0.3867  0.4591 -0.2197
 9691TIP3    H150564   4.908   4.440  12.046  0.7508 -1.1267 -0.9934
 9691TIP3    H250565   4.783   4.356  12.052 -0.3602  0.5104 -0.7919
 9692TIP3   OH250566   4.811   4.637   3.266 -0.1908 -0.1879 -0.1891
 9692TIP3    H150567   4.837   4.555   3.306  2.6021  0.8696  0.2483
 9692TIP3    H250568   4.884   4.661   3.209 -0.6423  2.2862  0.1858
 9693TIP3   OH250569   2.298   6.620  11.087  0.2547 -0.0053  0.0379
 9693TIP3    H150570   2.367   6.612  11.020  0.3947 -1.3969  0.3329
 9693TIP3    H250571   2.280   6.530  11.113 -2.0443  0.3069 -0.3887
 9694TIP3   OH250572   1.218   1.744   4.683  0.0853  0.4107  0.1939
 9694TIP3    H150573   1.308   1.744   4.715  0.2263 -0.1122 -0.1898
 9694TIP3    H250574   1.223   1.789   4.598 -0.3033  1.8842  0.9429
 9695TIP3   OH250575   0.718   6.330   6.074  0.0776  0.4213  0.1532
 9695TIP3    H150576   0.775   6.403   6.095  0.0098  0.7829 -0.9306
 9695TIP3    H250577   0.711   6.330   5.979 -0.9095 -0.2354  0.2097
 9696TIP3   OH250578   5.185   6.692   1.678  0.1751  0.2149  0.3160
 9696TIP3    H150579   5.204   6.606   1.715 -1.6031 -0.1689  0.3780
 9696TIP3    H250580   5.173   6.676   1.585 -0.4216  0.3436  0.3673
 9697TIP3   OH250581   4.335   4.897   5.400 -0.6751 -0.0313  0.3196
 9697TIP3    H150582   4.349   4.838   5.475  1.7248 -0.6591 -0.5760
 9697TIP3    H250583   4.352   4.984   5.435 -1.3045 -0.1478  0.9312
 9698TIP3   OH250584   6.780   5.650   5.394  0.4262  0.0991 -0.3760
 9698TIP3    H150585   6.736   5.583   5.342  2.0480 -0.8965 -0.5057
 9698TIP3    H250586   6.793   5.723   5.333 -0.5175  0.1846 -0.4870
 9699TIP3   OH250587   0.924   4.726  13.474  0.0789  0.7155 -0.5474
 9699TIP3    H150588   0.841   4.773  13.475 -0.0381  0.5658 -2.1074
 9699TIP3    H250589   0.902   4.639  13.507  0.2308  1.6011  2.0043
 9700TIP3   OH250590   4.537   0.380  12.527  0.1386  0.0701 -0.1137
 9700TIP3    H150591   4.472   0.395  12.458 -0.0220 -0.9497 -0.1919
 9700TIP3    H250592   4.526   0.454  12.587  0.3793  1.0562 -1.2491
 9701TIP3   OH250593   4.748   3.762  11.030 -0.3553  0.0572 -0.3149
 9701TIP3    H150594   4.790   3.716  11.103  1.0762  0.7208 -0.6811
 9701TIP3    H250595   4.721   3.693  10.970 -0.4732 -0.4304  0.2944
 9702TIP3   OH250596   0.802   2.001  16.731  0.4469  0.3943  0.5854
 9702TIP3    H150597   0.840   2.000  16.643  0.8146  1.7622  0.7120
 9702TIP3    H250598   0.716   1.962  16.721 -0.3257  2.3493 -0.7853
 9703TIP3   OH250599   1.830   4.486   2.827 -0.4391 -0.2664  0.0126
 9703TIP3    H150600   1.774   4.445   2.761  0.9063 -0.4431 -1.0390
 9703TIP3    H250601   1.831   4.423   2.900  1.2080 -1.9147 -1.3866
 9704TIP3   OH250602   2.497   2.306  14.416  0.0185 -0.2551  0.0376
 9704TIP3    H150603   2.459   2.225  14.449 -0.0747 -1.1183 -2.0906
 9704TIP3    H250604   2.571   2.277  14.362  1.4504  1.2037  1.1844
 9705TIP3   OH250605   1.296   4.141   4.416  0.1937 -0.4678 -0.8169
 9705TIP3    H150606   1.257   4.074   4.472 -0.5047  1.3351  0.9106
 9705TIP3    H250607   1.381   4.159   4.455 -1.7298  3.3659  1.9358
 9706TIP3   OH250608   3.144   3.168  15.719  0.0585 -0.4878 -0.3070
 9706TIP3    H150609   3.225   3.130  15.753  0.3875 -1.4198 -2.0703
 9706TIP3    H250610   3.085   3.093  15.712 -0.5615 -0.0106 -0.1617
 9707TIP3   OH250611   1.176   5.376  16.733  0.4074 -0.2032 -0.3786
 9707TIP3    H150612   1.203   5.377  16.825 -0.1052 -2.9408 -0.1740
 9707TIP3    H250613   1.081   5.364  16.736  0.2640  0.6968 -1.2599
 9708TIP3   OH250614   3.214   6.036   2.217 -0.1208  0.2390  0.1625
 9708TIP3    H150615   3.221   6.103   2.285  0.2019 -0.0635  0.4296
 9708TIP3    H250616   3.166   5.964   2.259 -1.5786  0.7977 -0.5083
 9709TIP3   OH250617   0.440   4.848   0.159 -0.1085 -0.5163 -0.2841
 9709TIP3    H150618   0.485   4.843   0.243 -0.0332 -0.1785 -0.3028
 9709TIP3    H250619   0.359   4.800   0.172  0.3337 -1.2753 -0.3015
 9710TIP3   OH250620   0.773   5.933   0.101 -0.5372  0.4095 -0.1026
 9710TIP3    H150621   0.748   5.841   0.089  0.0654  0.6681 -4.1114
 9710TIP3    H250622   0.868   5.932   0.101 -0.5310  0.9980  0.1921
 9711TIP3   OH250623   1.752   2.198  12.112  0.5904 -0.0069 -0.0924
 9711TIP3    H150624   1.748   2.266  12.179 -0.6140  0.8550 -1.0038
 9711TIP3    H250625   1.732   2.117  12.158  1.0792  0.3793  0.8238
 9712TIP3   OH250626   2.306   3.825  15.663 -0.1697 -0.1555 -0.3487
 9712TIP3    H150627   2.351   3.852  15.583 -1.4854  0.0968 -1.0165
 9712TIP3    H250628   2.229   3.881  15.668 -0.3926 -0.5359  0.8192
 9713TIP3   OH250629   4.166   5.397  12.447  0.0291 -0.8006 -0.0199
 9713TIP3    H150630   4.132   5.401  12.357  0.3668  0.5577 -0.1051
 9713TIP3    H250631   4.135   5.313  12.481  2.2849 -2.6155 -2.3406
 9714TIP3   OH250632   3.022   2.339   3.381  0.1581  0.0768 -0.1147
 9714TIP3    H150633   3.024   2.243   3.370 -0.4564  0.0880 -0.2872
 9714TIP3    H250634   2.931   2.359   3.402 -0.0599  0.8167 -1.7582
 9715TIP3   OH250635   3.813   4.031  15.017 -0.0415 -0.1831 -0.0050
 9715TIP3    H150636   3.737   3.974  15.030 -0.7103  0.6216 -0.3954
 9715TIP3    H250637   3.776   4.118  15.004  0.9330  0.1444 -0.5874
 9716TIP3   OH250638   5.028   2.397  12.569 -0.4876  0.4749 -0.4845
 9716TIP3    H150639   4.946   2.393  12.520 -0.7645 -1.0074  0.0642
 9716TIP3    H250640   5.096   2.387  12.502 -0.8817 -2.3142 -0.5602
 9717TIP3   OH250641   3.735   3.136   5.239  0.0769 -0.2288 -0.2735
 9717TIP3    H150642   3.683   3.111   5.163  0.9831 -1.3685 -0.5361
 9717TIP3    H250643   3.728   3.061   5.298  0.5233  0.0676  0.1563
 9718TIP3   OH250644   3.144   0.564   0.626 -0.0490  0.1976  0.0484
 9718TIP3    H150645   3.214   0.500   0.638 -1.2462 -1.1928 -0.2737
 9718TIP3    H250646   3.149   0.587   0.534  0.0944  0.2398  0.0657
 9719TIP3   OH250647   3.262   5.382  12.462  0.0180 -0.3802  0.5221
 9719TIP3    H150648   3.276   5.304  12.517  1.1424 -1.0945 -0.7704
 9719TIP3    H250649   3.288   5.355  12.374 -1.8707  0.7269 -0.4068
 9720TIP3   OH250650   4.390   5.497   3.392 -0.7278 -0.0970 -0.2986
 9720TIP3    H150651   4.325   5.505   3.321  1.3044 -0.6220 -2.2801
 9720TIP3    H250652   4.456   5.563   3.371  0.1654 -0.6279  0.8106
 9721TIP3   OH250653   4.409   5.159   5.508  0.3056  0.4106 -0.5154
 9721TIP3    H150654   4.384   5.251   5.509  1.1822  0.6497  0.0435
 9721TIP3    H250655   4.483   5.154   5.569 -0.6542 -0.9115  0.5847
 9722TIP3   OH250656   2.749   5.825   0.172 -0.3240 -0.3219  0.0449
 9722TIP3    H150657   2.797   5.889   0.119  0.9572  1.1045  2.7940
 9722TIP3    H250658   2.748   5.746   0.119  2.8878  0.3622 -1.1876
 9723TIP3   OH250659   1.673   4.581   6.217  0.4771  0.8306  0.1723
 9723TIP3    H150660   1.614   4.516   6.254  0.5565  0.1276 -0.9267
 9723TIP3    H250661   1.759   4.539   6.219  0.3559  0.4378 -1.5800
 9724TIP3   OH250662   6.535   5.337   2.939  0.0444 -0.2830 -0.5321
 9724TIP3    H150663   6.505   5.390   2.866  0.0414  0.9895  0.3706
 9724TIP3    H250664   6.614   5.382   2.970 -0.9113  0.1929  1.3124
 9725TIP3   OH250665   4.180   4.552  12.242  0.2442 -0.0553 -0.5786
 9725TIP3    H150666   4.219   4.492  12.178  2.8694 -0.2915  1.1230
 9725TIP3    H250667   4.178   4.501  12.324  0.5090  1.4429  0.3867
 9726TIP3   OH250668   6.511   5.066   6.285  0.9791 -0.4956  0.1662
 9726TIP3    H150669   6.568   5.137   6.314 -0.0749  0.7881 -0.8203
 9726TIP3    H250670   6.424   5.106   6.278  0.1131 -2.1936  0.7887
 9727TIP3   OH250671   5.929   1.031   3.408  0.4982  0.0074  0.1076
 9727TIP3    H150672   5.986   0.954   3.409  0.7269  0.1814  0.8268
 9727TIP3    H250673   5.927   1.058   3.316  2.1202  0.3896  0.1573
 9728TIP3   OH250674   3.346   5.289  14.343 -0.6083  1.0772 -0.4255
 9728TIP3    H150675   3.275   5.329  14.393 -0.1802  1.6763 -0.2823
 9728TIP3    H250676   3.306   5.216  14.297 -0.5863 -0.8323  2.4803
 9729TIP3   OH250677   1.377   2.670   5.844 -0.1439 -0.3586  0.2968
 9729TIP3    H150678   1.360   2.576   5.851  0.7342 -0.4400  1.6042
 9729TIP3    H250679   1.305   2.711   5.891  0.3906 -0.4711  1.2400
 9730TIP3   OH250680   4.308   3.662   6.305 -0.2829 -0.1344 -0.0459
 9730TIP3    H150681   4.359   3.584   6.327  1.4907  0.6212 -1.3544
 9730TIP3    H250682   4.241   3.631   6.244  1.2326 -0.4415 -1.5984
 9731TIP3   OH250683   4.066   6.258  11.942 -0.2126 -0.1247  0.1901
 9731TIP3    H150684   4.108   6.180  11.906 -1.8132 -0.3238 -1.2852
 9731TIP3    H250685   3.987   6.226  11.984 -0.5189  0.6334  0.2059
 9732TIP3   OH250686   1.108   3.827  15.098 -0.3168 -0.6540 -0.4618
 9732TIP3    H150687   1.154   3.889  15.042  1.6556 -1.0716  0.6426
 9732TIP3    H250688   1.015   3.845  15.083  0.2041  1.1800 -1.6618
 9733TIP3   OH250689   6.729   4.917  13.413 -0.5851  0.2451 -0.2116
 9733TIP3    H150690   6.732   4.859  13.337  2.1347 -0.8033  0.6632
 9733TIP3    H250691   6.805   4.893  13.465 -0.5587  3.2172  1.2096
 9734TIP3   OH250692   3.384   0.048  15.029 -0.1650  0.2899  0.6498
 9734TIP3    H150693   3.396   0.142  15.015 -0.3920  0.2157 -0.1009
 9734TIP3    H250694   3.446   0.025  15.097 -1.3492  1.3301  2.1255
 9735TIP3   OH250695   3.574   3.337   1.900  0.1664 -1.1402 -0.0254
 9735TIP3    H150696   3.615   3.291   1.973  0.2891 -0.8686  0.0772
 9735TIP3    H250697   3.625   3.417   1.891 -0.0574 -1.0179 -0.1935
 9736TIP3   OH250698   0.261   0.455  15.398 -0.2000  0.5426 -0.2456
 9736TIP3    H150699   0.251   0.550  15.407 -1.7031  0.7254 -3.4213
 9736TIP3    H250700   0.353   0.439  15.419  0.2587  2.7939 -0.3857
 9737TIP3   OH250701   0.356   1.844  11.383 -0.1922  0.3458 -0.3620
 9737TIP3    H150702   0.409   1.880  11.454 -0.6631  1.4921 -0.5939
 9737TIP3    H250703   0.400   1.872  11.303  0.1165 -0.6224 -0.5481
 9738TIP3   OH250704   4.358   6.653   4.257  0.3719 -0.6491 -0.4880
 9738TIP3    H150705   4.265   6.656   4.282  0.6917  1.1877  0.5968
 9738TIP3    H250706   4.358   6.611   4.171 -1.5217 -0.2353 -0.7265
 9739TIP3   OH250707   6.175   0.096  17.288  0.1924 -0.4671  0.1898
 9739TIP3    H150708   6.209   0.066  17.372  2.2613  0.3113 -0.3366
 9739TIP3    H250709   6.241   0.157  17.256 -0.9269 -0.1958 -1.6698
 9740TIP3   OH250710   3.932   0.289  12.523  0.7241  0.2107 -0.1282
 9740TIP3    H150711   3.992   0.239  12.578 -0.9131 -2.4857 -0.7004
 9740TIP3    H250712   3.987   0.329  12.456  1.9286 -2.0280 -0.5197
 9741TIP3   OH250713   2.073   4.273   4.674 -0.2969  0.1835 -0.3038
 9741TIP3    H150714   2.132   4.297   4.603  0.6442 -0.3425  0.2919
 9741TIP3    H250715   2.127   4.279   4.753 -1.5974  1.7408  0.4932
 9742TIP3   OH250716   1.208   5.202  13.052 -0.5674  0.0735 -0.3493
 9742TIP3    H150717   1.288   5.207  13.105 -0.5612 -0.8934 -0.2671
 9742TIP3    H250718   1.201   5.289  13.011 -0.3720  0.7066  0.9392
 9743TIP3   OH250719   6.176   2.167   5.473  0.3920 -0.8381 -0.2928
 9743TIP3    H150720   6.093   2.178   5.520  1.2272 -3.2040  1.8308
 9743TIP3    H250721   6.152   2.121   5.393 -0.7750  1.4983 -1.3393
 9744TIP3   OH250722   6.190   0.192   5.564  0.5671  0.3937 -0.7545
 9744TIP3    H150723   6.181   0.127   5.495 -0.0297 -0.0237 -0.2973
 9744TIP3    H250724   6.281   0.219   5.560  1.1736 -1.4515 -0.1001
 9745TIP3   OH250725   5.999   5.016   3.403 -0.2555 -0.4049 -0.0203
 9745TIP3    H150726   5.958   4.970   3.476 -2.0889 -1.1352 -1.4747
 9745TIP3    H250727   6.018   4.948   3.339 -1.4872  0.5835 -1.5028
 9746TIP3   OH250728   6.037   3.418  14.669  0.1235 -0.6450 -0.0119
 9746TIP3    H150729   6.050   3.387  14.758 -0.3878 -2.3261 -0.4957
 9746TIP3    H250730   6.008   3.341  14.621 -0.0635  0.3437 -1.5328
 9747TIP3   OH250731   5.246   4.392   3.409  0.0559  0.2626 -0.3370
 9747TIP3    H150732   5.339   4.394   3.432 -0.1565  0.1330  0.5332
 9747TIP3    H250733   5.244   4.418   3.317  0.8972  0.8820 -0.1844
 9748TIP3   OH250734   5.121   5.671   1.106  0.0704 -0.1578 -0.0331
 9748TIP3    H150735   5.065   5.730   1.157 -0.6278 -0.9571  0.1377
 9748TIP3    H250736   5.189   5.643   1.167 -0.0620 -0.1632  0.1122
 9749TIP3   OH250737   5.507   5.483  13.766 -0.7078  0.2050  0.3286
 9749TIP3    H150738   5.578   5.422  13.786 -0.5538 -0.1709 -1.3558
 9749TIP3    H250739   5.551   5.565  13.742 -0.9031  0.7835  1.8682
 9750TIP3   OH250740   0.057   2.480  14.304  0.4951  0.6191  0.3664
 9750TIP3    H150741   0.067   2.409  14.368 -2.4246 -0.7734 -0.6625
 9750TIP3    H250742  -0.014   2.533  14.339 -0.2907  0.5407 -1.1142
 9751TIP3   OH250743   0.157   3.293  13.425 -0.1634 -0.8688  0.3617
 9751TIP3    H150744   0.091   3.227  13.446 -1.9717  1.2343  1.4800
 9751TIP3    H250745   0.222   3.285  13.494 -1.4848 -0.0590  1.7255
 9752TIP3   OH250746   2.546   0.702  12.946 -0.4041 -0.4709 -0.4423
 9752TIP3    H150747   2.535   0.691  12.851  0.0360  0.6869 -0.6484
 9752TIP3    H250748   2.638   0.681  12.962 -0.0205  1.0250 -0.5667
 9753TIP3   OH250749   5.620   3.246   1.984 -0.4549 -0.1499 -0.2314
 9753TIP3    H150750   5.580   3.213   2.064 -0.0148 -1.2470 -0.4508
 9753TIP3    H250751   5.571   3.325   1.963  1.5575  2.0156  2.9317
 9754TIP3   OH250752   5.159   5.136  15.922 -0.2260 -0.3978 -0.4957
 9754TIP3    H150753   5.208   5.194  15.981 -1.1124  0.5781 -0.6846
 9754TIP3    H250754   5.206   5.053  15.924  0.2423 -0.1138  0.9297
 9755TIP3   OH250755   5.930   4.851   3.028  0.1186 -0.5129  0.8620
 9755TIP3    H150756   5.961   4.874   2.941  2.0958 -1.0793  1.3848
 9755TIP3    H250757   5.849   4.901   3.039  1.5598  2.1135 -0.0294
 9756TIP3   OH250758   3.578   1.237   3.524 -0.2576  0.3246  0.6050
 9756TIP3    H150759   3.501   1.192   3.560 -0.0324  0.2446  0.9883
 9756TIP3    H250760   3.596   1.192   3.441 -0.6220  0.3427  0.5143
 9757TIP3   OH250761   5.664   0.754   3.456  0.2694 -0.0323  0.5676
 9757TIP3    H150762   5.751   0.757   3.415  0.1875 -0.3191  0.3762
 9757TIP3    H250763   5.603   0.750   3.382  0.2311 -3.6784  0.7425
 9758TIP3   OH250764   3.820   5.212   1.314  1.0145  0.1930  0.1037
 9758TIP3    H150765   3.753   5.188   1.378  1.8693 -0.6637  0.7032
 9758TIP3    H250766   3.774   5.216   1.230  0.3316 -0.9863  0.4141
 9759TIP3   OH250767   4.354   1.313   5.390 -0.4562 -0.4775  0.7556
 9759TIP3    H150768   4.287   1.367   5.432  1.0564  0.2565  2.2608
 9759TIP3    H250769   4.391   1.260   5.462  0.1970 -1.2829 -0.1577
 9760TIP3   OH250770   3.262   1.429  11.403 -0.1613 -0.2742 -0.0794
 9760TIP3    H150771   3.241   1.464  11.317  3.6055  0.4811 -0.7874
 9760TIP3    H250772   3.272   1.335  11.389 -0.3430 -0.2626 -0.2894
 9761TIP3   OH250773   3.241   1.010   1.457 -0.5577  0.1708 -0.3508
 9761TIP3    H150774   3.302   0.948   1.416 -0.2782  1.9750 -2.7828
 9761TIP3    H250775   3.179   1.031   1.388 -0.2037  3.1747  0.1697
 9762TIP3   OH250776   1.858   6.528   2.870 -0.5386  0.1118  0.4625
 9762TIP3    H150777   1.775   6.559   2.833 -0.9377 -1.0549  0.3474
 9762TIP3    H250778   1.855   6.433   2.857  0.2927 -0.0647  1.5308
 9763TIP3   OH250779   3.497   6.287  17.085  0.0409 -0.1553  0.1952
 9763TIP3    H150780   3.551   6.209  17.083 -1.0769 -0.9173 -1.1036
 9763TIP3    H250781   3.408   6.254  17.101 -0.0810  1.0665  2.2775
 9764TIP3   OH250782   4.546   4.738   3.756  0.0165 -0.5403  0.3271
 9764TIP3    H150783   4.602   4.785   3.819  1.4098 -0.6904 -0.7766
 9764TIP3    H250784   4.600   4.666   3.725 -1.3702 -1.6305  0.4024
 9765TIP3   OH250785   2.569   0.126   4.805  0.8396  0.4125 -0.2964
 9765TIP3    H150786   2.498   0.170   4.853  0.2107 -0.6870 -0.2131
 9765TIP3    H250787   2.599   0.192   4.743 -0.2140  0.9217 -0.2899
 9766TIP3   OH250788   0.357   2.794   1.904  0.3867  0.6693 -0.8203
 9766TIP3    H150789   0.432   2.843   1.870  0.8255  1.2473  0.9540
 9766TIP3    H250790   0.283   2.854   1.894  0.6183  1.0564 -0.2348
 9767TIP3   OH250791   5.163   0.781  10.775 -0.0739 -0.1787  0.3928
 9767TIP3    H150792   5.190   0.864  10.735  0.4171 -0.0477  1.0043
 9767TIP3    H250793   5.163   0.719  10.702  0.3128  0.1827  0.0824
 9768TIP3   OH250794   4.055   2.475  17.205 -0.0647 -0.3518  0.7717
 9768TIP3    H150795   4.073   2.569  17.206 -0.3650 -0.2114 -2.1139
 9768TIP3    H250796   4.141   2.435  17.191 -0.2864 -0.3102 -0.8894
 9769TIP3   OH250797   5.408   5.092   4.501 -0.1863 -0.6470  0.2164
 9769TIP3    H150798   5.435   5.173   4.546  0.2574 -1.0776  0.7296
 9769TIP3    H250799   5.434   5.106   4.410  2.0775 -1.1572  0.7368
 9770TIP3   OH250800   1.420   0.636  16.295 -0.2089  0.3071 -0.4140
 9770TIP3    H150801   1.334   0.675  16.285 -0.0136  1.1235  0.9753
 9770TIP3    H250802   1.403   0.548  16.327 -0.5745 -0.0432 -1.5568
 9771TIP3   OH250803   0.447   1.842  15.673 -0.3090  0.3529  0.0703
 9771TIP3    H150804   0.488   1.763  15.707  0.1101  0.4649 -0.1648
 9771TIP3    H250805   0.362   1.813  15.640 -0.3174  0.0725  0.3423
 9772TIP3   OH250806   1.531   5.475   1.782 -0.4446 -0.7454 -0.0998
 9772TIP3    H150807   1.541   5.380   1.770  0.2746 -0.3308 -3.1961
 9772TIP3    H250808   1.437   5.487   1.799 -0.6825 -1.9502 -0.4999
 9773TIP3   OH250809   2.066   0.524  10.973  0.5618  0.6224  0.0751
 9773TIP3    H150810   2.035   0.447  11.022 -1.6840  0.9514 -0.7962
 9773TIP3    H250811   2.162   0.517  10.976  0.4215 -0.8112  2.2077
 9774TIP3   OH250812   2.713   3.450  13.873 -0.2305 -0.1416  0.2996
 9774TIP3    H150813   2.751   3.373  13.917  0.9745 -0.2902 -0.9773
 9774TIP3    H250814   2.723   3.431  13.780 -2.5492  0.2780 -0.0815
 9775TIP3   OH250815   0.335   0.806   1.738 -0.0526 -0.7012 -0.3691
 9775TIP3    H150816   0.275   0.879   1.724 -1.9001 -1.7217  1.8510
 9775TIP3    H250817   0.381   0.796   1.655 -2.2875  0.7081 -1.8176
 9776TIP3   OH250818   1.877   5.006   5.194 -0.0611  0.1204  0.3628
 9776TIP3    H150819   1.868   4.951   5.272 -0.9413  0.4412  0.4926
 9776TIP3    H250820   1.789   5.007   5.156 -0.1005  1.6608  0.4988
 9777TIP3   OH250821   1.513   6.819  13.097  0.1150 -0.2693 -0.3008
 9777TIP3    H150822   1.450   6.793  13.164  0.9563 -1.7445 -0.0620
 9777TIP3    H250823   1.461   6.830  13.018 -0.3285 -2.3657 -0.3177
 9778TIP3   OH250824   3.450   2.728  14.477 -0.3347  0.7046  0.1625
 9778TIP3    H150825   3.363   2.748  14.512 -1.0035  1.5404 -1.8318
 9778TIP3    H250826   3.444   2.637  14.448 -0.6718  0.8715 -0.3000
 9779TIP3   OH250827   3.809   0.502  12.965 -0.0464 -0.0659 -0.0183
 9779TIP3    H150828   3.737   0.489  13.027 -0.2765  0.0696 -0.2556
 9779TIP3    H250829   3.767   0.540  12.888  0.0310 -1.5406 -0.7942
 9780TIP3   OH250830   3.763   1.292  14.874 -0.6059  0.2119 -0.3306
 9780TIP3    H150831   3.764   1.199  14.849 -0.5821  0.0624  0.2207
 9780TIP3    H250832   3.838   1.329  14.828  0.8131 -0.5508  1.2920
 9781TIP3   OH250833   1.378   6.179  11.961 -0.0500  0.0172 -0.6109
 9781TIP3    H150834   1.348   6.193  12.051 -0.7050  1.0956 -0.9792
 9781TIP3    H250835   1.452   6.239  11.951  1.2935 -1.5287 -0.1876
 9782TIP3   OH250836   5.566   1.345   4.193 -0.8848  0.6985  0.1053
 9782TIP3    H150837   5.492   1.358   4.252 -0.3415 -2.4166  1.5735
 9782TIP3    H250838   5.526   1.325   4.108 -1.6988  1.5443  0.2805
 9783TIP3   OH250839   4.200   5.340   4.662 -0.1413  0.1559 -0.1049
 9783TIP3    H150840   4.293   5.363   4.660  0.2074 -1.1324  0.6568
 9783TIP3    H250841   4.196   5.260   4.715 -1.7819  0.6933  0.6222
 9784TIP3   OH250842   0.656   1.372  12.220 -0.1394 -0.7497 -0.4601
 9784TIP3    H150843   0.671   1.377  12.126 -0.5496  1.4336 -0.4409
 9784TIP3    H250844   0.587   1.437  12.236 -0.4468 -1.4846  1.2720
 9785TIP3   OH250845   5.760   3.229   4.085 -0.3241 -0.2785  0.1972
 9785TIP3    H150846   5.747   3.223   4.180 -0.4253  0.8594  0.2616
 9785TIP3    H250847   5.678   3.196   4.047 -0.6762  0.2298  0.5144
 9786TIP3   OH250848   4.242   4.129  16.071  0.1825  0.0870 -0.4772
 9786TIP3    H150849   4.172   4.163  16.015 -0.1338  0.6117  0.2310
 9786TIP3    H250850   4.321   4.137  16.017 -0.1283  0.5018 -0.8790
 9787TIP3   OH250851   2.031   6.420  12.431 -0.6466 -0.0270 -0.3958
 9787TIP3    H150852   2.097   6.353  12.416 -0.4340  0.5929 -2.3023
 9787TIP3    H250853   1.962   6.375  12.480  0.5354 -1.0319  0.3742
 9788TIP3   OH250854   1.851   2.372  10.760 -0.8465 -0.2520  0.1491
 9788TIP3    H150855   1.934   2.370  10.712 -0.8397 -2.4961  0.2210
 9788TIP3    H250856   1.785   2.346  10.695 -1.3260  0.1632  0.4585
 9789TIP3   OH250857   2.441   4.853  12.803  0.0844  0.9046 -0.0866
 9789TIP3    H150858   2.373   4.921  12.804 -0.2424  0.6678 -2.5976
 9789TIP3    H250859   2.483   4.863  12.717  0.3740 -1.7086 -0.2759
 9790TIP3   OH250860   6.014   5.964  14.571  0.2816  0.0599 -0.1368
 9790TIP3    H150861   6.026   5.881  14.525 -0.6084  0.5286 -1.2402
 9790TIP3    H250862   5.983   6.025  14.504 -2.7383  0.3313  1.4323
 9791TIP3   OH250863   2.875   1.456   2.501  0.5182 -0.0101 -0.2813
 9791TIP3    H150864   2.833   1.370   2.507 -1.3331  0.7843 -1.5077
 9791TIP3    H250865   2.924   1.453   2.419 -0.1405  0.3361 -0.6966
 9792TIP3   OH250866   1.997   3.371   4.774  0.4080  0.0922  0.7245
 9792TIP3    H150867   1.992   3.383   4.679 -0.4036 -1.4845  0.5438
 9792TIP3    H250868   2.082   3.407   4.799 -0.2434  2.3730 -0.2962
 9793TIP3   OH250869   6.259   1.327   4.910 -0.3699 -0.2466  0.0933
 9793TIP3    H150870   6.338   1.380   4.896 -0.1184 -0.7919 -0.5754
 9793TIP3    H250871   6.206   1.341   4.831  0.1215 -1.7154 -0.5231
 9794TIP3   OH250872   0.004   4.379  16.987  0.4510 -0.1521 -0.6494
 9794TIP3    H150873   0.061   4.327  16.930  0.4918 -1.1355  0.2698
 9794TIP3    H250874   0.064   4.426  17.044  0.3908  0.1841 -0.8636
 9795TIP3   OH250875   6.111   4.028   3.340  0.3888  0.0501 -0.0383
 9795TIP3    H150876   6.032   3.975   3.328  0.4798  0.2521 -1.6067
 9795TIP3    H250877   6.100   4.069   3.426 -0.2113 -1.6111  0.6846
 9796TIP3   OH250878   4.436   4.842   2.107 -0.0519  0.0626 -0.1350
 9796TIP3    H150879   4.479   4.803   2.031  1.1533  1.0397  0.0299
 9796TIP3    H250880   4.477   4.928   2.116  0.8948 -0.6132  2.5040
 9797TIP3   OH250881   0.631   1.823   2.850  0.6134  0.5099  0.6824
 9797TIP3    H150882   0.552   1.822   2.905 -1.9223  1.4818 -2.7309
 9797TIP3    H250883   0.686   1.754   2.885 -2.1651 -0.8199  2.6210
 9798TIP3   OH250884   0.814   2.594  12.848  0.4438 -0.0128  0.0747
 9798TIP3    H150885   0.868   2.661  12.890 -2.0676  2.7248 -0.8953
 9798TIP3    H250886   0.814   2.618  12.755  0.0085 -1.7417 -0.3878
 9799TIP3   OH250887   2.129   2.571   1.265 -0.4136 -0.2272  0.0196
 9799TIP3    H150888   2.066   2.593   1.334  0.5687  1.3117  0.4522
 9799TIP3    H250889   2.206   2.623   1.286  0.5980 -1.2183 -1.1631
 9800TIP3   OH250890   5.632   3.653   1.863  0.0614  0.3522 -0.5600
 9800TIP3    H150891   5.727   3.662   1.859 -0.0527  1.5695 -0.6100
 9800TIP3    H250892   5.603   3.662   1.772  0.0960 -2.5767 -0.9150
 9801TIP3   OH250893   3.174   3.185  12.890 -0.1676  0.0850 -0.3666
 9801TIP3    H150894   3.169   3.278  12.913 -1.3384 -0.2138  0.6545
 9801TIP3    H250895   3.152   3.181  12.797 -2.1493  0.6379  0.0536
 9802TIP3   OH250896   3.908   6.635   0.625  0.5541 -0.3673 -0.3754
 9802TIP3    H150897   3.911   6.645   0.720  0.2328  0.4987 -0.4539
 9802TIP3    H250898   3.816   6.618   0.605  0.4283  0.5946 -0.6408
 9803TIP3   OH250899   4.600   6.679  11.594 -0.4732  0.0965  0.3454
 9803TIP3    H150900   4.652   6.656  11.517  2.3909 -1.4545  2.5781
 9803TIP3    H250901   4.513   6.645  11.576  0.0991 -0.0738 -2.2697
 9804TIP3   OH250902   5.282   5.392  15.931 -0.3985 -0.0990  0.1964
 9804TIP3    H150903   5.374   5.365  15.926 -0.7042 -1.0425 -0.4423
 9804TIP3    H250904   5.285   5.485  15.954  0.7244  0.0737 -0.6515
 9805TIP3   OH250905   5.492   5.702   3.829  0.4062  0.1469  0.7491
 9805TIP3    H150906   5.415   5.708   3.885 -0.5896  1.9080 -0.7156
 9805TIP3    H250907   5.564   5.736   3.882 -0.3524  0.9447  1.2832
 9806TIP3   OH250908   4.702   2.323   1.951 -0.0996  0.4869  0.2645
 9806TIP3    H150909   4.706   2.348   1.858  2.5817 -1.6980 -0.2744
 9806TIP3    H250910   4.762   2.385   1.994 -1.2145  1.3918  0.5401
 9807TIP3   OH250911   4.577   1.103   2.691 -0.4417  0.1283  0.1958
 9807TIP3    H150912   4.650   1.085   2.750 -1.2613  2.9577  2.1849
 9807TIP3    H250913   4.543   1.017   2.667  1.3239 -1.1257  2.0722
 9808TIP3   OH250914   2.624   2.290   4.111  0.1981 -0.0468  0.1062
 9808TIP3    H150915   2.694   2.341   4.070  0.4068 -1.5843 -1.4569
 9808TIP3    H250916   2.554   2.288   4.046  0.5852 -2.6097 -0.2603
 9809TIP3   OH250917   6.349   5.606  16.370 -0.5673  0.4610 -0.2081
 9809TIP3    H150918   6.328   5.514  16.355 -1.8424  0.6488  0.4230
 9809TIP3    H250919   6.273   5.642  16.415 -0.3845  1.9994 -1.0761
 9810TIP3   OH250920   1.957   1.088   3.215 -0.1560 -0.4854  0.1326
 9810TIP3    H150921   1.911   1.121   3.292  2.7508  1.1588  1.2571
 9810TIP3    H250922   1.991   1.003   3.241  1.3778  0.3529  0.9339
 9811TIP3   OH250923   0.824   2.565  11.807 -0.2604 -0.0864 -0.4513
 9811TIP3    H150924   0.790   2.538  11.892  0.1759 -0.9539 -0.5427
 9811TIP3    H250925   0.857   2.484  11.768  0.9884  0.5672 -0.7728
 9812TIP3   OH250926   4.678   4.122   0.764  0.5072 -0.0117  0.0071
 9812TIP3    H150927   4.669   4.046   0.821 -1.7276 -0.6863 -1.1647
 9812TIP3    H250928   4.707   4.086   0.680 -1.0002  0.3399 -0.6868
 9813TIP3   OH250929   4.207   0.059  13.150  0.2051  0.1271 -0.1083
 9813TIP3    H150930   4.205   0.026  13.240 -4.3450  0.3865 -0.0345
 9813TIP3    H250931   4.190   0.153  13.158  0.6481  0.3047 -1.1828
 9814TIP3   OH250932   3.213   6.535   2.472  0.5679 -0.6786  0.0577
 9814TIP3    H150933   3.213   6.449   2.514 -0.2013 -0.5036  0.4134
 9814TIP3    H250934   3.288   6.531   2.412 -1.0971 -2.5953 -1.9875
 9815TIP3   OH250935   2.098   0.543  13.702 -0.4764 -0.8200 -0.1799
 9815TIP3    H150936   2.053   0.621  13.670  0.6753  0.5489  1.4052
 9815TIP3    H250937   2.088   0.478  13.632 -1.3538  0.7876 -1.5747
 9816TIP3   OH250938   4.592   3.343  17.104  0.1035  0.1728 -0.0939
 9816TIP3    H150939   4.597   3.392  17.022 -0.2421  0.0607 -0.1832
 9816TIP3    H250940   4.582   3.410  17.172  1.4054  0.3214 -0.0385
 9817TIP3   OH250941   1.667   0.027  14.130  0.0935  0.6526 -0.4022
 9817TIP3    H150942   1.726   0.050  14.202  0.2271  0.7062 -0.5281
 9817TIP3    H250943   1.649   0.110  14.087 -0.2643  0.6685 -0.2201
 9818TIP3   OH250944   2.334   0.775  12.512 -0.5520  0.2039 -0.3687
 9818TIP3    H150945   2.251   0.822  12.519  0.3335  1.7053  0.1035
 9818TIP3    H250946   2.336   0.745  12.421 -1.3238  0.7002 -0.5587
 9819TIP3   OH250947   3.531   0.188  14.427 -0.2745 -0.4516  0.8678
 9819TIP3    H150948   3.623   0.213  14.435 -0.4183  0.5404 -0.3280
 9819TIP3    H250949   3.508   0.153  14.513 -0.2393  4.1566  2.9451
 9820TIP3   OH250950   3.097   6.249  12.936  0.2645 -0.6711 -0.4995
 9820TIP3    H150951   3.145   6.225  13.015 -1.0772  0.9458  0.8559
 9820TIP3    H250952   3.010   6.275  12.968 -0.3584 -0.1648 -2.5209
 9821TIP3   OH250953   0.211   2.153   1.910  0.6027 -0.1566 -0.1890
 9821TIP3    H150954   0.261   2.072   1.898  0.9193 -0.2239  1.4622
 9821TIP3    H250955   0.223   2.175   2.003  0.1209  1.5243 -0.5166
 9822TIP3   OH250956   2.510   4.606  13.747 -0.5418 -0.0693  0.2536
 9822TIP3    H150957   2.485   4.546  13.676 -1.6892 -0.3608  0.9060
 9822TIP3    H250958   2.596   4.573  13.775 -0.5494 -0.5862 -0.2989
 9823TIP3   OH250959   0.471   3.808  15.525  0.4406 -0.5036  0.0556
 9823TIP3    H150960   0.488   3.798  15.619  0.6902 -2.0709 -0.1437
 9823TIP3    H250961   0.508   3.893  15.503 -1.5539  0.8979  1.8221
 9824TIP3   OH250962   5.479   6.277   6.217  0.3313 -0.0961  0.4560
 9824TIP3    H150963   5.540   6.351   6.221 -0.6539  0.6675  1.7383
 9824TIP3    H250964   5.448   6.267   6.307 -1.8110 -0.1630 -0.2706
 9825TIP3   OH250965   4.604   5.543  16.586 -0.1449  0.3599 -0.4736
 9825TIP3    H150966   4.655   5.594  16.649 -1.5237  1.2555 -0.0554
 9825TIP3    H250967   4.522   5.523  16.632 -0.5972 -0.1756 -1.4889
 9826TIP3   OH250968   6.750   4.682  12.571  0.2805 -0.1153 -0.6810
 9826TIP3    H150969   6.829   4.712  12.526  1.5804 -0.7300  1.1876
 9826TIP3    H250970   6.754   4.587  12.567  0.6216 -0.1794  1.1183
 9827TIP3   OH250971   5.690   4.211  14.039  0.1055 -0.4226  0.3580
 9827TIP3    H150972   5.633   4.263  14.096  2.2966  0.7358  1.5659
 9827TIP3    H250973   5.715   4.135  14.092 -0.7900 -1.2399 -0.3818
 9828TIP3   OH250974   0.923   0.486   3.234 -0.2196  0.2996  0.1164
 9828TIP3    H150975   0.976   0.559   3.203 -0.3452  0.6516  0.7381
 9828TIP3    H250976   0.835   0.505   3.202  0.0517 -0.3778 -1.0752
 9829TIP3   OH250977   6.506   1.484   1.433 -0.0739  0.1151 -0.1180
 9829TIP3    H150978   6.554   1.486   1.516 -3.3625  1.6040  1.8069
 9829TIP3    H250979   6.542   1.408   1.387  3.6525  0.7650  1.4704
 9830TIP3   OH250980   6.443   5.412   0.675  0.8229  0.7467 -0.0943
 9830TIP3    H150981   6.487   5.439   0.594 -0.4778  1.5094 -0.5595
 9830TIP3    H250982   6.513   5.411   0.741  1.5794  1.7361 -0.8586
 9831TIP3   OH250983   6.814   3.463  13.253 -0.0357 -0.4366  0.4241
 9831TIP3    H150984   6.872   3.414  13.310 -0.7934 -0.8251  0.8693
 9831TIP3    H250985   6.867   3.536  13.221  0.5446 -0.5082  1.2161
 9832TIP3   OH250986   2.891   2.410  16.220 -0.6204 -0.6640 -0.7432
 9832TIP3    H150987   2.860   2.357  16.293 -0.3530 -0.5141 -0.5184
 9832TIP3    H250988   2.853   2.370  16.142 -0.0124 -1.4797 -0.6219
 9833TIP3   OH250989   2.283   5.575   3.918  0.0079  0.0156 -0.1583
 9833TIP3    H150990   2.344   5.506   3.943 -0.3676  0.0908  0.9818
 9833TIP3    H250991   2.337   5.654   3.910  0.1697 -0.0610  0.1714
 9834TIP3   OH250992   4.959   0.873  11.991 -0.3850 -0.3067 -0.0469
 9834TIP3    H150993   5.036   0.872  11.935 -0.6919  0.0507 -0.4795
 9834TIP3    H250994   4.885   0.865  11.931 -0.7408  0.7052  0.2514
 9835TIP3   OH250995   6.578   2.894  12.700 -0.1721 -0.2431 -0.5016
 9835TIP3    H150996   6.503   2.899  12.758 -0.9884  0.0762 -1.5624
 9835TIP3    H250997   6.653   2.916  12.755 -0.9164 -0.0981  0.4555
 9836TIP3   OH250998   2.118   0.928  12.376  0.3187  0.4040 -0.3485
 9836TIP3    H150999   2.099   1.021  12.361 -2.3293 -0.2755 -1.4814
 9836TIP3    H251000   2.043   0.882  12.339  1.7989 -2.2301 -0.1752
 9837TIP3   OH251001   5.679   2.881  11.708  0.0546  0.1477 -0.1335
 9837TIP3    H151002   5.755   2.833  11.676  0.4499  0.6219  0.0761
 9837TIP3    H251003   5.711   2.924  11.788 -0.9513 -1.1382  0.9735
 9838TIP3   OH251004   0.639   1.309   0.004  0.3692  0.0642  0.7807
 9838TIP3    H151005   0.580   1.257  -0.050  2.1271 -1.5342  0.3242
 9838TIP3    H251006   0.639   1.396  -0.037 -0.8817 -0.1999  0.2042
 9839TIP3   OH251007   1.351   1.926  11.893 -0.6548  0.2295 -0.1612
 9839TIP3    H151008   1.398   1.845  11.910 -0.6968 -0.2141 -2.0669
 9839TIP3    H251009   1.391   1.990  11.952  2.1706 -0.2155 -1.5287
 9840TIP3   OH251010   3.511   5.452   3.246 -0.1221  0.1803 -0.2391
 9840TIP3    H151011   3.488   5.394   3.318  1.1839  2.0128  1.7266
 9840TIP3    H251012   3.593   5.415   3.212  0.5137  0.6641  0.7635
 9841TIP3   OH251013   2.296   6.305   2.848  0.1443 -0.2987 -0.5160
 9841TIP3    H151014   2.350   6.290   2.925 -0.3807  3.1375  0.6113
 9841TIP3    H251015   2.350   6.359   2.790 -0.4812 -0.5021 -1.2999
 9842TIP3   OH251016   0.324   3.297  16.971 -0.5076 -0.1037 -0.0999
 9842TIP3    H151017   0.348   3.389  16.983 -0.4357 -0.1973  0.4646
 9842TIP3    H251018   0.406   3.249  16.976 -0.6970 -0.3333  0.9602
 9843TIP3   OH251019   3.201   4.344  13.985 -0.8707 -0.3791  0.5788
 9843TIP3    H151020   3.194   4.380  14.073  0.2427  0.8417  0.1968
 9843TIP3    H251021   3.282   4.383  13.949 -2.6580  1.2300 -1.8916
 9844TIP3   OH251022   0.638   5.570  16.678  0.1081  0.2465  0.0806
 9844TIP3    H151023   0.586   5.649  16.692 -0.1419  0.3363 -1.3399
 9844TIP3    H251024   0.723   5.602  16.647  0.1145 -0.0334 -0.1910
 9845TIP3   OH251025   4.286   0.122  15.163  0.3625  0.4249  0.1449
 9845TIP3    H151026   4.289   0.102  15.257  0.4231  2.8240  0.7088
 9845TIP3    H251027   4.362   0.077  15.126 -0.4299 -1.6472  1.0038
 9846TIP3   OH251028   4.550   1.640   5.658 -0.5733  0.3835 -0.2527
 9846TIP3    H151029   4.466   1.665   5.619 -0.4166  2.0272  0.4137
 9846TIP3    H251030   4.614   1.654   5.588 -0.5779  1.2230 -0.0936
 9847TIP3   OH251031   6.280   6.336  14.100 -0.0011 -0.5232  0.7161
 9847TIP3    H151032   6.359   6.387  14.083 -1.3834  1.0118 -1.3188
 9847TIP3    H251033   6.310   6.245  14.106  2.0734  0.1830  1.3719
 9848TIP3   OH251034   3.600   5.539   0.399 -0.8526 -0.0916 -0.5145
 9848TIP3    H151035   3.612   5.633   0.403 -3.2318  0.2108  0.6880
 9848TIP3    H251036   3.591   5.519   0.306 -0.9975  0.9744 -0.7305
 9849TIP3   OH251037   6.039   3.666   3.864 -0.0043 -0.1507 -0.0350
 9849TIP3    H151038   5.982   3.665   3.787  1.0776  1.2353 -0.9043
 9849TIP3    H251039   6.107   3.601   3.844 -0.3334 -0.5816  0.2429
 9850TIP3   OH251040   4.640   0.042  12.453 -0.2806  0.0742 -0.1036
 9850TIP3    H151041   4.730   0.021  12.431 -0.3132  0.6423 -0.8366
 9850TIP3    H251042   4.643   0.075  12.543  0.3298  0.6338 -0.3244
 9851TIP3   OH251043   2.216   5.538   4.289  0.0048 -0.2591 -0.2814
 9851TIP3    H151044   2.247   5.489   4.365  1.0435  1.2933  0.3386
 9851TIP3    H251045   2.293   5.584   4.257 -1.0354  1.4194 -0.4642
 9852TIP3   OH251046   2.193   4.208  16.940  0.6446  0.0733  0.5045
 9852TIP3    H151047   2.116   4.258  16.967  0.8940 -0.1695  1.7140
 9852TIP3    H251048   2.218   4.246  16.856 -0.0730  0.9719  0.6856
 9853TIP3   OH251049   3.465   5.615  10.794 -0.0807  0.0009 -0.1717
 9853TIP3    H151050   3.386   5.599  10.742 -0.4134  0.0045  0.3262
 9853TIP3    H251051   3.519   5.672  10.740  0.4814 -1.6158 -1.3689
 9854TIP3   OH251052   1.761   6.701  16.324  0.1695 -0.4162  0.6129
 9854TIP3    H151053   1.774   6.734  16.413 -2.6283 -0.6070  1.1370
 9854TIP3    H251054   1.724   6.775  16.277  1.2458 -0.4493 -0.3013
 9855TIP3   OH251055   6.512   6.522  12.968 -0.3490 -0.3838  0.3902
 9855TIP3    H151056   6.488   6.540  13.059 -0.8866  0.0874  0.1558
 9855TIP3    H251057   6.429   6.520  12.921  0.0751  1.6634 -0.4940
 9856TIP3   OH251058   0.060   3.216   4.840 -0.0970 -1.0536 -0.3850
 9856TIP3    H151059  -0.019   3.230   4.892 -0.2877 -0.2918 -0.8787
 9856TIP3    H251060   0.082   3.124   4.855 -3.0537 -2.2675 -2.9589
 9857TIP3   OH251061   4.290   6.414   2.459 -0.2779  0.2773  0.1080
 9857TIP3    H151062   4.300   6.432   2.553 -0.9375 -0.3787  0.3146
 9857TIP3    H251063   4.322   6.324   2.449 -0.1163  0.3819 -0.3080
 9858TIP3   OH251064   3.049   2.600  11.085 -0.6638 -0.5102  0.2876
 9858TIP3    H151065   3.090   2.514  11.084  0.3196 -0.0750 -2.5484
 9858TIP3    H251066   2.955   2.582  11.082 -0.4734 -1.4976  0.0657
 9859TIP3   OH251067   1.469   4.628   6.013  0.7500 -0.3336  0.2066
 9859TIP3    H151068   1.538   4.613   6.078  0.1574 -0.4271  0.8236
 9859TIP3    H251069   1.424   4.706   6.045  2.0002  1.0941 -1.4315
 9860TIP3   OH251070   1.028   4.420   5.382 -0.0449  0.3981 -0.0037
 9860TIP3    H151071   0.969   4.354   5.346  1.3954 -0.5426 -0.7163
 9860TIP3    H251072   1.100   4.424   5.318  1.3636  0.4698  1.5613
 9861TIP3   OH251073   3.580   0.090  14.098  0.5384 -0.4830  0.0883
 9861TIP3    H151074   3.639   0.116  14.168 -0.4231  0.5385  0.5243
 9861TIP3    H251075   3.574   0.167  14.041  0.0746 -0.7759 -0.2649
 9862TIP3   OH251076   6.240   5.531  16.073 -0.3985 -0.5967 -0.2201
 9862TIP3    H151077   6.164   5.559  16.125 -0.8037 -0.0805 -1.0758
 9862TIP3    H251078   6.248   5.437  16.091 -1.7079 -0.8142 -0.6932
 9863TIP3   OH251079   6.599   5.642   6.249 -0.5993 -0.2995  0.0763
 9863TIP3    H151080   6.529   5.598   6.200 -1.0130  2.0263 -1.4772
 9863TIP3    H251081   6.566   5.730   6.264  1.5716  0.5102  0.2346
 9864TIP3   OH251082   1.718   1.978  11.227 -0.1900  0.2841  0.2992
 9864TIP3    H151083   1.772   2.056  11.239  0.2732  0.2869 -1.6123
 9864TIP3    H251084   1.668   1.995  11.147 -0.8141 -0.9651  0.4093
 9865TIP3   OH251085   1.372   3.005   5.036 -0.2774 -0.0288 -0.2804
 9865TIP3    H151086   1.370   2.926   4.982  0.3974  0.4063 -0.9531
 9865TIP3    H251087   1.300   2.995   5.097 -0.3515 -1.0498 -0.5380
 9866TIP3   OH251088   6.366   2.711   2.152 -0.1483 -0.3999  0.7807
 9866TIP3    H151089   6.290   2.752   2.111 -0.7271  0.2021  2.4319
 9866TIP3    H251090   6.426   2.783   2.169 -0.2259 -0.5269  1.6367
 9867TIP3   OH251091   3.915   4.772  14.342  0.1625  0.0676 -0.3128
 9867TIP3    H151092   3.971   4.842  14.307  0.8644 -0.6756 -0.7035
 9867TIP3    H251093   3.929   4.776  14.436 -1.0603  1.5133 -0.1792
 9868TIP3   OH251094   2.700   2.034   5.425  0.4759  0.4730  0.3772
 9868TIP3    H151095   2.714   2.084   5.505  2.5064  1.3006 -0.4433
 9868TIP3    H251096   2.789   2.008   5.397 -0.4270 -2.7393  0.2365
 9869TIP3   OH251097   0.430   3.669  13.371 -0.3911  0.1340  0.5005
 9869TIP3    H151098   0.444   3.659  13.465  0.8135  3.0242  0.6920
 9869TIP3    H251099   0.375   3.747  13.364 -0.3573  0.0264 -1.2113
 9870TIP3   OH251100   4.557   3.135   1.799  0.7885  0.2271  0.2241
 9870TIP3    H151101   4.534   3.194   1.727 -1.2558  0.2699  0.8870
 9870TIP3    H251102   4.644   3.164   1.826  1.6948  0.0536 -2.3621
 9871TIP3   OH251103   0.558   5.527  14.141 -0.1862 -0.0165 -0.5721
 9871TIP3    H151104   0.631   5.571  14.099 -0.7912  1.6264  0.0627
 9871TIP3    H251105   0.498   5.506  14.069  0.8122 -1.2090 -1.0675
 9872TIP3   OH251106   3.683   4.551  14.839  0.3336 -0.1820  0.1126
 9872TIP3    H151107   3.660   4.633  14.796 -1.2127 -0.1611  0.9382
 9872TIP3    H251108   3.733   4.577  14.917  0.3453 -0.0533  0.0613
 9873TIP3   OH251109   6.506   2.573   3.159 -0.0802  0.3274  0.1051
 9873TIP3    H151110   6.502   2.666   3.179 -0.9082  0.2052  0.5717
 9873TIP3    H251111   6.597   2.548   3.176 -0.2898  0.6571  1.8312
 9874TIP3   OH251112   5.014   5.844   1.288 -0.2303  0.0780 -0.4902
 9874TIP3    H151113   5.024   5.936   1.261  0.7339 -0.1907 -1.0895
 9874TIP3    H251114   4.922   5.836   1.313 -0.5453  0.9845 -1.3126
 9875TIP3   OH251115   6.548   2.096  15.604  0.1568  0.0347 -0.1025
 9875TIP3    H151116   6.526   2.063  15.517 -0.4842 -2.5001  0.9840
 9875TIP3    H251117   6.463   2.111  15.646  0.4691  0.8545  0.2464
 9876TIP3   OH251118   4.923   5.477  15.203 -0.3020  0.4919 -0.1339
 9876TIP3    H151119   4.888   5.495  15.290 -1.2883 -0.3524 -0.3504
 9876TIP3    H251120   4.893   5.389  15.183  0.8210  0.2729 -0.8901
 9877TIP3   OH251121   0.167   2.649  12.684 -0.2675  0.1714  0.3739
 9877TIP3    H151122   0.079   2.612  12.681  0.3029 -1.1943  0.2060
 9877TIP3    H251123   0.221   2.581  12.725  0.8703  0.6551 -0.2937
 9878TIP3   OH251124   6.546   1.993   6.317 -0.0231 -0.1073 -0.1977
 9878TIP3    H151125   6.589   1.990   6.232 -1.3514  1.2076 -0.9207
 9878TIP3    H251126   6.553   2.084   6.345 -2.0272  0.0473 -0.1597
 9879TIP3   OH251127   0.073   3.841  10.562  0.2298  0.3805 -0.0244
 9879TIP3    H151128   0.107   3.769  10.509  0.0427  1.1379 -1.1970
 9879TIP3    H251129   0.144   3.863  10.622  0.9916  0.4727 -0.9498
 9880TIP3   OH251130   5.779   0.136   1.968  0.5206  0.3838  0.4330
 9880TIP3    H151131   5.715   0.159   2.036 -0.4697  0.1078 -0.3981
 9880TIP3    H251132   5.815   0.052   1.996  0.1084  0.2663  0.6165
 9881TIP3   OH251133   1.804   6.720   0.641 -0.2717 -0.3213 -0.0128
 9881TIP3    H151134   1.810   6.624   0.637  1.5275 -0.1681 -1.6594
 9881TIP3    H251135   1.889   6.748   0.675 -0.0081  0.7629 -1.4931
 9882TIP3   OH251136   1.359   5.727   4.169 -0.2386 -0.6420 -0.0097
 9882TIP3    H151137   1.351   5.742   4.075 -1.4754  0.9341  0.3134
 9882TIP3    H251138   1.452   5.738   4.188 -0.2522  0.9834 -0.7702
 9883TIP3   OH251139   0.032   1.912   1.954  0.0757  0.1654 -0.2059
 9883TIP3    H151140   0.108   1.859   1.978  0.5685  0.6849 -0.6053
 9883TIP3    H251141   0.069   1.997   1.931 -0.5672  0.2149 -1.0517
 9884TIP3   OH251142   6.130   2.953   0.174  0.1515 -0.0012 -0.0339
 9884TIP3    H151143   6.035   2.964   0.168  0.4896  2.3690 -1.5447
 9884TIP3    H251144   6.149   2.958   0.268 -1.1429  0.0001  0.2385
 9885TIP3   OH251145   2.373   0.469   3.911  0.5700  0.2420 -0.1849
 9885TIP3    H151146   2.386   0.553   3.867 -0.0734 -0.1453 -1.1201
 9885TIP3    H251147   2.279   0.467   3.932  0.9722  0.7021  1.7916
 9886TIP3   OH251148   2.573   2.117  15.120  0.2941  0.8843 -0.1760
 9886TIP3    H151149   2.562   2.083  15.209  0.2654  1.8088  0.1833
 9886TIP3    H251150   2.657   2.081  15.092  0.2215  0.4444  0.1627
 9887TIP3   OH251151   0.089   2.964  13.612 -0.1918  0.2229  0.6138
 9887TIP3    H151152   0.005   2.997  13.579  0.5996  0.4688 -1.1693
 9887TIP3    H251153   0.065   2.887  13.665 -1.3418 -1.4111 -2.1779
 9888TIP3   OH251154   5.182   0.710  12.901 -0.3227  0.6540 -0.3235
 9888TIP3    H151155   5.134   0.782  12.942  0.7256  0.9311  0.4383
 9888TIP3    H251156   5.137   0.695  12.818 -0.6557  2.0679 -0.4017
 9889TIP3   OH251157   5.622   1.412   2.216  0.0446  0.7099  0.1631
 9889TIP3    H151158   5.676   1.474   2.167 -1.8891  1.5190 -1.0534
 9889TIP3    H251159   5.567   1.370   2.150  1.5869 -2.6604  0.9295
 9890TIP3   OH251160   6.236   2.554   5.076  0.3147 -0.2576  0.0749
 9890TIP3    H151161   6.320   2.567   5.120  1.6126 -1.5030 -1.9506
 9890TIP3    H251162   6.201   2.642   5.063  1.3040  0.2673  0.9335
 9891TIP3   OH251163   4.611   2.681  13.817  0.5090 -0.6647 -0.1790
 9891TIP3    H151164   4.659   2.628  13.753  1.3734 -0.9434  0.6840
 9891TIP3    H251165   4.535   2.629  13.840 -0.0274 -0.3826 -1.2904
 9892TIP3   OH251166   0.244   2.637  13.850 -0.7056  0.0695 -0.0076
 9892TIP3    H151167   0.192   2.624  13.930 -3.4983  0.4383 -1.7095
 9892TIP3    H251168   0.278   2.550  13.830 -0.2558 -0.0939  1.3821
 9893TIP3   OH251169   1.424   3.189  16.488 -0.1854  0.0553  0.2560
 9893TIP3    H151170   1.464   3.254  16.430 -0.1769  0.5474  0.8071
 9893TIP3    H251171   1.417   3.110  16.434  0.4736  0.3007 -0.1989
 9894TIP3   OH251172   6.090   1.063  11.846  0.5166 -0.6568 -0.2162
 9894TIP3    H151173   6.088   1.151  11.884 -0.5508 -0.4441 -0.7604
 9894TIP3    H251174   6.166   1.022  11.887  1.9240  1.0106 -1.0683
 9895TIP3   OH251175   3.912   1.556   2.993  0.3854  0.1593 -0.1543
 9895TIP3    H151176   3.866   1.630   3.032  1.3049 -0.2139  1.7309
 9895TIP3    H251177   3.928   1.497   3.067 -1.2325 -2.4133 -1.8087
 9896TIP3   OH251178   3.366   3.112   0.694 -0.0881 -0.2144  0.1934
 9896TIP3    H151179   3.435   3.050   0.671 -0.6020 -0.1544 -1.5207
 9896TIP3    H251180   3.354   3.165   0.616  0.5973  2.3304  1.7594
 9897TIP3   OH251181   1.534   2.179   3.428 -1.4606  0.6272  0.2291
 9897TIP3    H151182   1.584   2.147   3.503 -0.2964 -1.6841 -1.4780
 9897TIP3    H251183   1.597   2.231   3.379 -1.3279 -0.4751 -0.7818
 9898TIP3   OH251184   6.620   5.404   1.807  0.1154  0.1630  0.2008
 9898TIP3    H151185   6.545   5.385   1.864 -1.2889  0.4715 -1.4782
 9898TIP3    H251186   6.656   5.318   1.786  0.0426 -0.0107  0.7675
 9899TIP3   OH251187   0.918   6.194   5.614  0.5809 -0.3805 -0.0635
 9899TIP3    H151188   0.992   6.255   5.603  0.2407  0.5056  2.3585
 9899TIP3    H251189   0.946   6.135   5.684 -0.6744 -0.5589  0.2911
 9900TIP3   OH251190   1.128   1.338   2.683  0.0178 -0.7521  0.1627
 9900TIP3    H151191   1.096   1.315   2.596  1.5627  0.7286 -0.8456
 9900TIP3    H251192   1.213   1.294   2.690  0.8127  0.7210  0.0956
 9901TIP3   OH251193   5.726   4.431  13.875 -0.5410  0.1631  0.1242
 9901TIP3    H151194   5.773   4.395  13.800  1.3500  1.3661  0.7219
 9901TIP3    H251195   5.710   4.355  13.932 -0.4344 -0.4484 -0.6481
 9902TIP3   OH251196   5.754   3.867  14.200 -0.1228  0.2967 -0.2471
 9902TIP3    H151197   5.681   3.811  14.226  1.0535 -0.2238  2.0091
 9902TIP3    H251198   5.822   3.806  14.170 -0.5560  0.7755 -2.3053
 9903TIP3   OH251199   5.163   4.599  14.473 -0.3608  0.0236 -0.4005
 9903TIP3    H151200   5.075   4.571  14.497  0.0629 -1.1636 -0.1956
 9903TIP3    H251201   5.170   4.578  14.380  0.1776 -1.1503 -0.1027
 9904TIP3   OH251202   0.303   0.208   1.368  0.0740 -0.4566  0.2756
 9904TIP3    H151203   0.210   0.195   1.385  0.1589 -0.2802  0.8756
 9904TIP3    H251204   0.346   0.140   1.420  0.3103 -0.2446  0.3522
 9905TIP3   OH251205   4.944   5.087   3.392 -0.0516 -0.1226  0.1252
 9905TIP3    H151206   4.925   5.173   3.428 -0.4409  0.0968 -0.5966
 9905TIP3    H251207   4.868   5.033   3.417 -0.5909  0.1806 -0.8713
 9906TIP3   OH251208   2.779   2.925  16.147 -0.2339  0.0981  0.0210
 9906TIP3    H151209   2.700   2.877  16.122 -1.6537  2.9976 -1.2537
 9906TIP3    H251210   2.748   2.995  16.204  1.2576  1.8307 -1.2300
 9907TIP3   OH251211   3.995   2.911  11.294  0.2002 -0.0852  0.2518
 9907TIP3    H151212   3.949   2.927  11.212 -0.2232  0.4148  0.5872
 9907TIP3    H251213   4.088   2.916  11.271  0.0790  0.5167 -0.1062
 9908TIP3   OH251214   0.542   6.067  13.483  0.1577  0.0275 -0.3637
 9908TIP3    H151215   0.511   6.089  13.395 -0.2613 -0.9775 -0.4741
 9908TIP3    H251216   0.480   6.001  13.514  0.7081 -0.1238  0.4230
 9909TIP3   OH251217   0.879   3.413  17.044  0.2234 -0.6013  0.5269
 9909TIP3    H151218   0.839   3.494  17.012  1.4340  0.2098  1.0407
 9909TIP3    H251219   0.898   3.362  16.965  1.2109  0.4473  0.0886
 9910TIP3   OH251220   3.615   0.088   1.433  0.0206  0.8949 -0.0419
 9910TIP3    H151221   3.681   0.028   1.468  0.8829  1.1919 -1.1101
 9910TIP3    H251222   3.666   0.158   1.393 -0.9688  1.6685  0.0345
 9911TIP3   OH251223   2.758   0.009  12.359  0.0514 -0.3526 -0.7152
 9911TIP3    H151224   2.749  -0.009  12.452  1.7935 -1.0048 -0.6515
 9911TIP3    H251225   2.761   0.105  12.354 -1.8997 -0.2584 -0.3044
 9912TIP3   OH251226   1.737   1.359  11.274 -0.0678 -0.7469 -0.0024
 9912TIP3    H151227   1.686   1.422  11.223  1.2571 -1.1581 -1.8765
 9912TIP3    H251228   1.678   1.332  11.345 -1.6165  0.5147 -0.7771
 9913TIP3   OH251229   5.140   0.850  16.942 -0.1541  0.1659  0.2407
 9913TIP3    H151230   5.130   0.807  16.856  0.3641  0.7733 -0.1278
 9913TIP3    H251231   5.050   0.870  16.969 -0.2776  0.7409 -0.5580
 9914TIP3   OH251232   3.411   1.206   3.842 -0.1497 -0.7431  0.2769
 9914TIP3    H151233   3.505   1.186   3.843  0.0015 -0.1818 -0.8308
 9914TIP3    H251234   3.373   1.151   3.910  0.6387 -2.6842 -0.8062
 9915TIP3   OH251235   0.325   1.394   0.878  0.3312 -0.0457 -0.0790
 9915TIP3    H151236   0.393   1.350   0.928 -0.4507  0.5695  1.5528
 9915TIP3    H251237   0.355   1.485   0.872 -0.8782  0.4962  1.6618
 9916TIP3   OH251238   2.023   2.654  11.308  0.2782 -0.2659  0.8204
 9916TIP3    H151239   2.062   2.666  11.222  2.6867 -0.0681  1.9080
 9916TIP3    H251240   2.097   2.651  11.368 -1.3873  0.1525  2.9599
 9917TIP3   OH251241   6.304   4.002   4.076 -0.0854 -0.2734 -0.2882
 9917TIP3    H151242   6.360   3.953   4.016 -3.6482 -1.6357 -2.6687
 9917TIP3    H251243   6.324   4.094   4.057  0.9759 -0.7321 -1.4642
 9918TIP3   OH251244   1.656   0.175   0.344  0.3232 -0.7913 -0.0828
 9918TIP3    H151245   1.570   0.132   0.341  1.2085 -2.5269 -0.9590
 9918TIP3    H251246   1.653   0.227   0.424 -0.9320 -2.1570  0.7931
 9919TIP3   OH251247   2.625   1.369  15.339 -0.5358 -0.2232 -0.1134
 9919TIP3    H151248   2.563   1.433  15.375  0.1085  0.6979 -0.6068
 9919TIP3    H251249   2.614   1.376  15.244 -0.0975 -0.4749 -0.1817
 9920TIP3   OH251250   2.905   3.560   1.228 -0.0326  0.0728 -0.2052
 9920TIP3    H151251   2.870   3.555   1.139 -0.6066  1.6362 -0.0851
 9920TIP3    H251252   2.998   3.538   1.219  0.3917  2.2565 -1.5445
 9921TIP3   OH251253   4.119   3.045  12.292  0.0417 -0.6543 -0.2124
 9921TIP3    H151254   4.189   3.053  12.356 -0.2583  1.4492 -0.0823
 9921TIP3    H251255   4.158   3.075  12.210 -1.1595  2.3689  0.2456
 9922TIP3   OH251256   0.784   6.072  15.749 -0.0608  0.2826  0.2609
 9922TIP3    H151257   0.818   6.049  15.663  0.8314  0.6832  0.5103
 9922TIP3    H251258   0.692   6.096  15.732  0.5345  1.8879 -0.8174
 9923TIP3   OH251259   6.695   6.659  14.819 -0.2777  0.8633 -0.0315
 9923TIP3    H151260   6.748   6.587  14.786 -0.3463  1.5648 -1.6918
 9923TIP3    H251261   6.759   6.717  14.862 -0.0785  0.3344  0.3896
 9924TIP3   OH251262   1.931   2.248   6.489 -0.1383  0.1625  0.1820
 9924TIP3    H151263   1.948   2.313   6.421 -2.0436 -0.9643 -1.4291
 9924TIP3    H251264   1.838   2.256   6.507  0.2612  0.0987  2.3190
 9925TIP3   OH251265   6.064   3.395   5.346  0.2725 -0.7210 -0.1708
 9925TIP3    H151266   5.982   3.389   5.396 -1.8147  1.5118 -3.1330
 9925TIP3    H251267   6.115   3.463   5.390 -0.8799  0.1201 -0.1026
 9926TIP3   OH251268   3.596   4.208   4.357  0.5035  0.6760  0.1132
 9926TIP3    H151269   3.691   4.224   4.357  0.4405  1.1092  1.1295
 9926TIP3    H251270   3.583   4.142   4.288  1.6728 -0.1369  0.6387
 9927TIP3   OH251271   3.246   6.719  17.253 -0.1900 -0.3400  0.2385
 9927TIP3    H151272   3.257   6.642  17.308  0.2118 -2.4786 -2.7518
 9927TIP3    H251273   3.297   6.700  17.174 -1.5017  2.2329 -1.2810
 9928TIP3   OH251274   5.821   1.799   4.572  0.1280 -0.4325 -0.4256
 9928TIP3    H151275   5.809   1.742   4.649 -3.0994 -1.7293 -1.8168
 9928TIP3    H251276   5.806   1.887   4.606 -0.1708 -0.8904  0.6726
 9929TIP3   OH251277   3.046   1.782  12.900  0.1116 -0.0763  0.1262
 9929TIP3    H151278   3.048   1.814  12.810  0.0594  0.8819  0.4588
 9929TIP3    H251279   2.968   1.727  12.904 -0.4068  0.6213 -0.1707
 9930TIP3   OH251280   5.030   6.043   0.155  0.6601  0.1762 -0.2714
 9930TIP3    H151281   5.006   6.131   0.184  2.4033  0.5331  0.1733
 9930TIP3    H251282   5.005   6.040   0.062 -0.1693  0.8441 -0.0723
 9931TIP3   OH251283   1.267   0.177  14.177  0.0177 -0.2277  0.1524
 9931TIP3    H151284   1.185   0.176  14.128 -0.7570 -0.6369  1.4343
 9931TIP3    H251285   1.308   0.260  14.154 -1.5219  0.7128  0.7455
 9932TIP3   OH251286   3.106   3.722   1.698  0.3931 -0.0203 -0.1422
 9932TIP3    H151287   3.047   3.679   1.636 -0.1333  0.4267  0.0461
 9932TIP3    H251288   3.160   3.779   1.644 -0.1534  0.4677 -0.1795
 9933TIP3   OH251289   5.455   0.053  16.174  0.4436 -0.2091 -0.3756
 9933TIP3    H151290   5.530   0.103  16.205 -0.0529  0.0317  0.4694
 9933TIP3    H251291   5.465  -0.033  16.215 -0.8423  0.4753  1.4673
 9934TIP3   OH251292   3.946   4.742  14.624 -0.6320 -0.6312  0.1306
 9934TIP3    H151293   3.964   4.781  14.710  1.0337 -1.3564  0.1435
 9934TIP3    H251294   4.012   4.673  14.616 -0.8354 -0.6201 -1.7001
 9935TIP3   OH251295   5.540   1.196  12.612 -0.4205  0.2443 -0.4136
 9935TIP3    H151296   5.546   1.116  12.560 -0.1703  0.2801 -0.4427
 9935TIP3    H251297   5.512   1.264  12.551 -0.0782  0.2970 -0.5145
 9936TIP3   OH251298   5.190   4.799  11.803  0.2280 -0.1219  0.1104
 9936TIP3    H151299   5.170   4.816  11.895  0.8079 -1.2155  0.4509
 9936TIP3    H251300   5.257   4.864  11.781  1.2172 -0.8639  0.9094
 9937TIP3   OH251301   3.717   1.802  15.119  0.1426  0.0947 -0.1644
 9937TIP3    H151302   3.778   1.875  15.129 -1.3887  1.3793 -0.0031
 9937TIP3    H251303   3.695   1.801  15.026  1.4037 -1.2126 -0.4703
 9938TIP3   OH251304   4.410   5.256  10.821 -0.5840 -0.1806 -0.6003
 9938TIP3    H151305   4.342   5.227  10.759 -1.3476  0.1773  0.0528
 9938TIP3    H251306   4.415   5.185  10.885  2.1249 -1.8025 -2.5237
 9939TIP3   OH251307   3.405   2.231   5.401  0.2724 -0.6895  0.2319
 9939TIP3    H151308   3.358   2.167   5.455  1.0530 -0.7318  0.8797
 9939TIP3    H251309   3.414   2.308   5.458  0.8454 -0.6254  0.0590
 9940TIP3   OH251310   0.143   1.756  14.348 -0.3837  0.1717  0.3160
 9940TIP3    H151311   0.056   1.718  14.352 -0.4233  0.2661  0.3428
 9940TIP3    H251312   0.129   1.847  14.320 -0.4939  0.9260  2.7465
 9941TIP3   OH251313   2.146   4.734   2.997  0.0480 -0.0513 -0.2422
 9941TIP3    H151314   2.188   4.649   2.985  1.1962  0.5171 -0.2715
 9941TIP3    H251315   2.200   4.779   3.062  0.0396  1.0474 -0.9828
 9942TIP3   OH251316   0.062   6.196   1.947 -0.2969 -0.1751  0.0723
 9942TIP3    H151317   0.009   6.225   2.021 -0.1918  0.9942 -0.3042
 9942TIP3    H251318   0.125   6.267   1.933 -0.3230 -0.3827 -1.1328
 9943TIP3   OH251319   2.383   5.981  14.638 -0.3695 -0.0298  0.2650
 9943TIP3    H151320   2.342   5.898  14.613 -1.3653  0.6366 -0.3469
 9943TIP3    H251321   2.341   6.047  14.583  2.4665  0.5143 -1.3668
 9944TIP3   OH251322   5.294   0.796   1.028  0.1642 -0.5171 -0.0339
 9944TIP3    H151323   5.257   0.736   1.093 -0.5645 -0.1210 -0.0801
 9944TIP3    H251324   5.327   0.870   1.079 -1.3727  0.2906 -0.1948
 9945TIP3   OH251325   1.774   3.254   1.510 -0.1039  0.5118 -0.9237
 9945TIP3    H151326   1.739   3.284   1.594 -0.0142 -2.3498  0.1852
 9945TIP3    H251327   1.701   3.263   1.449 -0.4737  1.6549 -0.3345
 9946TIP3   OH251328   5.941   6.729   1.510 -0.0707  0.2147  0.3957
 9946TIP3    H151329   6.018   6.785   1.521  0.2401 -0.4691  1.8324
 9946TIP3    H251330   5.955   6.687   1.425  0.3883  1.2384 -0.0456
 9947TIP3   OH251331   6.769   6.373  14.286 -0.1010 -0.3591 -0.5776
 9947TIP3    H151332   6.688   6.351  14.240 -0.3919 -0.7494  0.1160
 9947TIP3    H251333   6.837   6.364  14.219 -0.4435 -1.5769 -0.7780
 9948TIP3   OH251334   4.186   1.772  15.674 -0.0813  0.2244  0.0307
 9948TIP3    H151335   4.212   1.780  15.583  1.7162  1.1652  0.5983
 9948TIP3    H251336   4.253   1.716  15.714  0.5431  1.8151  1.2843
 9949TIP3   OH251337   2.100   1.624  16.236 -0.4098  0.7076  0.3957
 9949TIP3    H151338   2.103   1.536  16.273  0.8651  0.6403  0.1564
 9949TIP3    H251339   2.006   1.646  16.233 -0.7473 -0.7226  0.2346
 9950TIP3   OH251340   0.714   6.776   0.508  0.4627  0.5711 -0.2579
 9950TIP3    H151341   0.740   6.861   0.474 -1.3513  1.0673 -0.4618
 9950TIP3    H251342   0.632   6.756   0.462  1.7818 -2.1278 -1.5739
 9951TIP3   OH251343   4.110   2.820   2.014 -0.4779  0.0958 -0.6278
 9951TIP3    H151344   4.194   2.776   2.003  0.9271  2.2913  1.0659
 9951TIP3    H251345   4.085   2.801   2.104 -0.0746  2.3537 -0.0232
 9952TIP3   OH251346   3.588   6.436  12.231  0.0226 -0.1893  0.5613
 9952TIP3    H151347   3.600   6.351  12.188  0.5719 -0.6173  1.5408
 9952TIP3    H251348   3.494   6.439  12.252  0.4906 -1.8657  3.1609
 9953TIP3   OH251349   3.309   3.783   4.082 -0.1822 -0.7129  0.0034
 9953TIP3    H151350   3.224   3.822   4.103  0.9769  1.8589  0.0667
 9953TIP3    H251351   3.307   3.774   3.986 -0.8131 -1.3969  0.0725
 9954TIP3   OH251352   5.647   2.789  13.497 -0.2043 -0.3140 -0.1509
 9954TIP3    H151353   5.572   2.774  13.553  0.5218  0.8020  1.1486
 9954TIP3    H251354   5.712   2.830  13.554  1.3506 -1.1710 -1.2783
 9955TIP3   OH251355   6.674   4.817   1.754  0.5034  0.1446  0.1308
 9955TIP3    H151356   6.599   4.790   1.808  0.9592  1.2649  1.3524
 9955TIP3    H251357   6.751   4.787   1.803  0.9439  1.8582  0.5085
 9956TIP3   OH251358   1.911   6.787   1.196  0.3111  0.0913 -0.5151
 9956TIP3    H151359   1.939   6.867   1.241 -0.1083 -1.0360  1.8159
 9956TIP3    H251360   1.966   6.718   1.233 -1.6530 -1.2261  0.0214
 9957TIP3   OH251361   1.123   2.125   0.973 -0.1016  0.1245 -0.2974
 9957TIP3    H151362   1.114   2.158   1.062  1.5829 -0.0665 -0.0334
 9957TIP3    H251363   1.176   2.191   0.928  0.4209 -0.5684 -0.7112
 9958TIP3   OH251364   4.936   1.711  16.908  0.2514  0.0045  0.7665
 9958TIP3    H151365   4.953   1.618  16.893 -0.4285 -0.1696  1.0537
 9958TIP3    H251366   4.841   1.718  16.908  0.3131  0.9126 -0.4614
 9959TIP3   OH251367   0.663   5.221  14.186  0.1552 -0.1643  0.0350
 9959TIP3    H151368   0.670   5.313  14.163  1.3218 -0.2866 -0.1329
 9959TIP3    H251369   0.578   5.194  14.152 -1.0177  1.3160  1.7708
 9960TIP3   OH251370   2.398   0.746  14.460  0.1683  0.1570  0.1612
 9960TIP3    H151371   2.457   0.812  14.424 -1.2716  2.3771  1.7527
 9960TIP3    H251372   2.339   0.724  14.388  0.5974  0.6782 -0.3558
 9961TIP3   OH251373   5.852   2.984  13.012  0.1578  0.2590 -0.0909
 9961TIP3    H151374   5.772   3.009  12.965  1.5061  2.0515 -1.5150
 9961TIP3    H251375   5.847   3.033  13.094  0.2354  1.1275 -0.5945
 9962TIP3   OH251376   2.433   3.562   6.528  0.1483  0.5697  0.1798
 9962TIP3    H151377   2.484   3.499   6.477  1.4674 -0.1914  2.3770
 9962TIP3    H251378   2.361   3.510   6.564  0.7559  0.4838  1.2969
 9963TIP3   OH251379   0.331   6.809  16.306 -0.2728 -0.1561  0.2281
 9963TIP3    H151380   0.298   6.761  16.230 -0.8023  1.1739 -0.4131
 9963TIP3    H251381   0.414   6.847  16.276 -0.9285  1.1198  0.0078
 9964TIP3   OH251382   2.051   0.803  14.844 -0.1771 -0.1781 -1.1734
 9964TIP3    H151383   2.139   0.814  14.809  0.2221  0.8886  0.1425
 9964TIP3    H251384   2.000   0.872  14.803  0.6432  2.0595  1.4652
 9965TIP3   OH251385   0.175   4.238   5.900  0.4413 -0.8011  0.0655
 9965TIP3    H151386   0.176   4.188   5.982 -0.3427 -1.0152 -0.0580
 9965TIP3    H251387   0.267   4.260   5.885  0.5969 -0.7860  0.9900
 9966TIP3   OH251388   1.709   4.726   0.686  0.8623  0.5081  0.1714
 9966TIP3    H151389   1.614   4.724   0.699  1.0161  0.1272  1.2715
 9966TIP3    H251390   1.732   4.636   0.663  1.0141  0.5160  0.2963
 9967TIP3   OH251391   0.394   6.357  11.959 -0.4000 -0.1702 -0.1188
 9967TIP3    H151392   0.448   6.347  11.880  0.1637 -0.0406  0.2500
 9967TIP3    H251393   0.330   6.286  11.953 -0.4209 -0.0989 -0.7446
 9968TIP3   OH251394   4.179   3.728  14.848  0.1098  0.5474  0.6957
 9968TIP3    H151395   4.231   3.728  14.928 -1.4866  0.3425  1.7730
 9968TIP3    H251396   4.091   3.753  14.877 -0.3509  1.0812 -1.0943
 9969TIP3   OH251397   0.467   5.264   6.866 -0.0684  0.4355  1.1338
 9969TIP3    H151398   0.451   5.357   6.881  1.0376  0.4580  2.1604
 9969TIP3    H251399   0.555   5.259   6.829 -0.8568 -0.0516 -0.7714
 9970TIP3   OH251400   0.174   4.136  11.120  0.3127 -0.2876  0.5160
 9970TIP3    H151401   0.154   4.161  11.030  1.4873  1.3066  0.6646
 9970TIP3    H251402   0.265   4.106  11.116  0.0047 -1.3059  0.9752
 9971TIP3   OH251403   3.569   0.406  14.750 -0.0709 -0.5427 -0.3057
 9971TIP3    H151404   3.632   0.374  14.685 -0.2301  0.1327 -0.7943
 9971TIP3    H251405   3.560   0.499  14.730  0.0259 -0.2960  0.8080
 9972TIP3   OH251406   2.433   6.155   3.264 -0.4116  0.7176  0.4125
 9972TIP3    H151407   2.445   6.211   3.187 -0.8137  1.3940  0.8348
 9972TIP3    H251408   2.437   6.066   3.230  1.2949  0.9810 -0.1136
 9973TIP3   OH251409   5.396   4.827   4.935  0.0412 -0.1508 -0.2789
 9973TIP3    H151410   5.351   4.792   4.859  0.1582 -0.4552 -0.2062
 9973TIP3    H251411   5.483   4.788   4.933  0.1179  0.0070 -0.1099
 9974TIP3   OH251412   0.136   0.523   6.167  0.3088 -0.3928 -0.0199
 9974TIP3    H151413   0.161   0.579   6.240 -0.1203  3.0299 -2.3985
 9974TIP3    H251414   0.040   0.516   6.174 -0.1956  2.9453 -2.1796
 9975TIP3   OH251415   6.806   4.927   0.727  0.2503 -0.4616 -0.0755
 9975TIP3    H151416   6.857   4.940   0.647  0.9514  1.1276  0.6130
 9975TIP3    H251417   6.782   4.834   0.725  1.5111 -0.7808 -1.3833
 9976TIP3   OH251418   1.423   2.720  15.857 -0.3934  0.2395 -0.1666
 9976TIP3    H151419   1.472   2.796  15.888  0.5208 -0.9405  1.3689
 9976TIP3    H251420   1.462   2.700  15.772 -0.4354  1.2808 -0.4474
 9977TIP3   OH251421   4.913   4.022  14.178 -0.1069 -0.2345  0.2095
 9977TIP3    H151422   4.936   4.112  14.202  1.1253 -0.4513 -0.1476
 9977TIP3    H251423   4.836   4.002  14.232 -0.4655  1.0680  0.2061
 9978TIP3   OH251424   6.182   5.529  14.041 -0.0386  0.6397 -0.3778
 9978TIP3    H151425   6.183   5.611  14.091  0.4200  1.2663 -1.3920
 9978TIP3    H251426   6.159   5.462  14.105 -0.0575  1.5130  0.5445
 9979TIP3   OH251427   2.437   3.499  15.329 -0.7299 -0.5478 -0.2731
 9979TIP3    H151428   2.381   3.512  15.253  1.1842  0.6417 -1.5244
 9979TIP3    H251429   2.523   3.532  15.302 -0.2000  0.6916  2.6727
 9980TIP3   OH251430   1.216   0.650  13.722 -0.4102  0.1835 -0.6654
 9980TIP3    H151431   1.175   0.696  13.649 -1.5198 -0.5077 -0.4919
 9980TIP3    H251432   1.300   0.619  13.688 -0.6975  0.3022 -1.4843
 9981TIP3   OH251433   1.886   0.653  12.285  0.5624 -0.0126  0.2107
 9981TIP3    H151434   1.819   0.585  12.277 -0.3589  0.9714 -0.5477
 9981TIP3    H251435   1.949   0.633  12.215 -0.0938  0.3246 -0.4911
 9982TIP3   OH251436   3.686   4.356  16.583  0.2406 -0.4864 -0.0142
 9982TIP3    H151437   3.780   4.349  16.566  0.6101 -1.2778  2.0707
 9982TIP3    H251438   3.671   4.297  16.657 -1.9969 -0.7422 -0.6251
 9983TIP3   OH251439   4.963   4.142   1.539 -0.1179  0.0005  0.3813
 9983TIP3    H151440   5.036   4.104   1.491 -0.3244 -0.9722  0.8181
 9983TIP3    H251441   4.902   4.171   1.471  0.4373  0.3537  0.0281
 9984TIP3   OH251442   3.727   6.122   1.059 -0.1042 -0.2242  0.1899
 9984TIP3    H151443   3.752   6.055   0.996 -0.9533 -0.9889  0.6474
 9984TIP3    H251444   3.731   6.204   1.011 -1.5588 -0.8892 -1.1041
 9985TIP3   OH251445   1.448   5.420   2.455 -0.3869 -0.5269  0.0923
 9985TIP3    H151446   1.468   5.454   2.368  1.5753  1.6572  1.3773
 9985TIP3    H251447   1.365   5.461   2.478  0.1371  0.5303  0.1125
 9986TIP3   OH251448   6.736   6.677  17.230 -0.5786  0.3359 -0.5193
 9986TIP3    H151449   6.806   6.654  17.292 -0.4800  2.3826  0.1576
 9986TIP3    H251450   6.657   6.681  17.284 -1.4757 -3.0812 -1.4720
 9987TIP3   OH251451   1.774   1.806   2.673 -0.2046 -0.5402 -0.0611
 9987TIP3    H151452   1.792   1.712   2.674 -1.2767 -0.7406  1.6991
 9987TIP3    H251453   1.694   1.814   2.621 -0.3816 -0.6478  0.1961
 9988TIP3   OH251454   2.022   0.886   0.071  0.1880 -0.2983  0.5259
 9988TIP3    H151455   2.005   0.933   0.153 -1.3948  1.0301 -0.5165
 9988TIP3    H251456   2.091   0.936   0.028  0.2785 -0.3866  0.5679
 9989TIP3   OH251457   3.529   3.672   1.633 -0.6651 -0.0762 -0.3283
 9989TIP3    H151458   3.616   3.681   1.594 -0.6386 -1.8715 -0.6978
 9989TIP3    H251459   3.540   3.702   1.723 -0.7336  4.1880 -1.6005
 9990TIP3   OH251460   2.744   4.649   2.470 -0.3116  0.0507 -0.1986
 9990TIP3    H151461   2.722   4.562   2.437 -0.2191 -0.3804  0.8676
 9990TIP3    H251462   2.801   4.686   2.402 -0.0338 -0.8677 -0.4756
 9991TIP3   OH251463   4.784   2.165  16.740  0.0834  0.6454 -0.0133
 9991TIP3    H151464   4.775   2.125  16.827 -1.5442 -0.6638 -0.7521
 9991TIP3    H251465   4.876   2.153  16.717 -0.0418 -1.2651  0.4552
 9992TIP3   OH251466   4.970   4.756  12.434 -0.4176  0.2439  0.3180
 9992TIP3    H151467   4.997   4.765  12.525  1.2108  0.6535 -0.1944
 9992TIP3    H251468   5.048   4.727  12.388 -1.3652 -0.4814 -0.8669
 9993TIP3   OH251469   5.120   6.061  12.820  0.4137  0.3038  0.5154
 9993TIP3    H151470   5.046   6.016  12.779  0.2258 -0.5697  1.7912
 9993TIP3    H251471   5.197   6.027  12.773 -0.0787  2.6721 -2.1519
 9994TIP3   OH251472   5.450   0.192  15.743 -0.0156 -0.4152 -0.0875
 9994TIP3    H151473   5.359   0.196  15.771 -0.2347 -2.1605 -0.4997
 9994TIP3    H251474   5.492   0.134  15.806  1.0667  1.2128  0.7255
 9995TIP3   OH251475   1.905   6.070  16.718 -0.1527  0.3856 -0.0796
 9995TIP3    H151476   1.996   6.048  16.697 -0.1978  0.3738 -0.2644
 9995TIP3    H251477   1.863   6.084  16.633 -0.5807 -0.6222 -0.0433
 9996TIP3   OH251478   4.858   1.906   1.705 -0.1345 -0.0550 -0.1399
 9996TIP3    H151479   4.917   1.860   1.765 -1.6081  0.2535  1.5675
 9996TIP3    H251480   4.775   1.860   1.712 -1.3524  2.2375  0.8551
 9997TIP3   OH251481   3.115   5.360   5.683 -0.2569  0.1427 -0.3222
 9997TIP3    H151482   3.108   5.439   5.737  2.0549  1.9661 -2.5406
 9997TIP3    H251483   3.092   5.389   5.595 -0.5868 -1.9496 -0.9415
 9998TIP3   OH251484   6.438   0.086  16.225  0.1401  0.3323  0.0550
 9998TIP3    H151485   6.441  -0.010  16.228  3.0606  0.3158 -1.4460
 9998TIP3    H251486   6.442   0.107  16.132 -2.6366  1.9283  0.2360
 9999TIP3   OH251487   1.298   2.825  11.312 -0.0290  0.0716  0.0588
 9999TIP3    H151488   1.272   2.854  11.399  0.4121 -0.0546  0.2307
 9999TIP3    H251489   1.390   2.800  11.321  0.1763  0.5823 -0.5673
10000TIP3   OH251490   5.684   5.281  13.815 -0.2909  0.0119  0.5839
10000TIP3    H151491   5.701   5.208  13.876  0.5786  1.6571  2.3567
10000TIP3    H251492   5.768   5.300  13.775 -1.1395 -2.0204 -2.3062
10001TIP3   OH251493   4.677   4.872  16.178  0.4331  0.2058  0.0534
10001TIP3    H151494   4.719   4.835  16.100  1.0104  1.1087 -0.0742
10001TIP3    H251495   4.639   4.955  16.148 -1.4815 -0.6147  0.1656
10002TIP3   OH251496   3.939   5.284   2.700  0.3096  0.1487  0.7731
10002TIP3    H151497   3.894   5.359   2.738 -0.6463 -0.7805  1.5007
10002TIP3    H251498   3.920   5.289   2.606  0.3988  0.8978  0.7902
10003TIP3   OH251499   2.962   5.602  13.425  0.0688 -0.3889  0.3302
10003TIP3    H151500   2.975   5.512  13.397 -0.1893 -0.6102  0.9137
10003TIP3    H251501   2.983   5.602  13.519 -1.4243 -0.1690  0.6754
10004TIP3   OH251502   0.765   1.664  15.177  0.4515 -0.2615  0.0939
10004TIP3    H151503   0.797   1.588  15.128 -0.4558  0.1004 -1.0725
10004TIP3    H251504   0.839   1.688  15.233  0.8877 -1.7595  0.1918
10005TIP3   OH251505   4.508   3.654   1.697 -0.3784 -0.1059 -0.3279
10005TIP3    H151506   4.459   3.682   1.774 -0.1220 -0.6814  0.0493
10005TIP3    H251507   4.595   3.633   1.730 -0.3770 -0.7107 -0.7070
10006TIP3   OH251508   3.324   3.958  15.076  0.7844  0.1068  0.1411
10006TIP3    H151509   3.263   3.941  15.004 -3.1455  1.8909  2.8251
10006TIP3    H251510   3.334   3.874  15.119  0.9986 -0.4034 -0.8876
10007TIP3   OH251511   5.854   6.734   1.075  0.5288  0.0931 -0.4994
10007TIP3    H151512   5.922   6.756   1.011 -0.3432  1.5622 -0.9481
10007TIP3    H251513   5.818   6.651   1.043  1.9698 -0.5997 -0.3600
10008TIP3   OH251514   2.977   4.541   3.162 -0.2050  0.2808  0.7021
10008TIP3    H151515   3.065   4.568   3.135 -0.4279 -0.4934 -0.8333
10008TIP3    H251516   2.919   4.591   3.105 -0.7482  0.6060  1.5509
10009TIP3   OH251517   1.543   0.575   5.749  0.4699 -0.0818 -0.1409
10009TIP3    H151518   1.575   0.491   5.716  1.0425  0.7341 -1.6929
10009TIP3    H251519   1.549   0.567   5.844 -1.5509 -2.6138 -0.1673
10010TIP3   OH251520   3.348   2.995   2.358 -0.1228  0.0012  0.0867
10010TIP3    H151521   3.319   2.927   2.297  0.2512 -1.0241  1.0253
10010TIP3    H251522   3.394   2.947   2.427  1.0622  1.3184  0.2291
10011TIP3   OH251523   4.932   3.798  12.377 -0.4075 -0.0630 -0.1286
10011TIP3    H151524   4.978   3.873  12.338 -1.6030  2.3082  2.8338
10011TIP3    H251525   4.904   3.829  12.462 -2.8534 -3.2407  0.3105
10012TIP3   OH251526   4.072   3.821  13.787  0.0237  0.2630  0.2159
10012TIP3    H151527   4.043   3.730  13.781  1.0677 -0.1394  1.0282
10012TIP3    H251528   4.029   3.855  13.865 -0.3348  0.4599 -0.0641
10013TIP3   OH251529   2.252   2.670   0.328  0.5132  0.0014 -0.6795
10013TIP3    H151530   2.251   2.666   0.424  0.0842  1.4119 -0.6051
10013TIP3    H251531   2.255   2.764   0.308 -0.6247 -0.2334 -2.0461
10014TIP3   OH251532   4.463   3.629   1.967 -0.8226  0.6717 -0.5907
10014TIP3    H151533   4.421   3.680   2.035 -1.2060 -0.7484  0.2499
10014TIP3    H251534   4.399   3.563   1.943  0.2572 -0.4300 -0.5234
10015TIP3   OH251535   4.377   1.999  14.607 -0.1727  0.4853 -0.7544
10015TIP3    H151536   4.455   1.977  14.556  0.1609  0.2718 -0.1683
10015TIP3    H251537   4.304   1.984  14.548  0.1231 -1.1173 -0.7351
10016TIP3   OH251538   0.056   6.467   2.206  0.3020  0.3062  0.3041
10016TIP3    H151539   0.071   6.420   2.124  0.4334 -0.9707  1.0540
10016TIP3    H251540   0.132   6.446   2.260  0.4622  1.5501  0.5765
10017TIP3   OH251541   4.368   2.175  13.868  0.3521  0.1270  0.3747
10017TIP3    H151542   4.290   2.218  13.832  0.5769  0.0802 -0.1638
10017TIP3    H251543   4.434   2.244  13.874  0.4967  0.0067  0.1563
10018TIP3   OH251544   5.392   5.581  16.196 -0.9454 -0.1741 -0.3030
10018TIP3    H151545   5.366   5.616  16.282  0.4341 -1.4671  0.6599
10018TIP3    H251546   5.323   5.611  16.137 -1.0804  2.0958  0.9360
10019TIP3   OH251547   1.752   2.646   4.864  0.8356  0.0670  0.0684
10019TIP3    H151548   1.820   2.662   4.799 -0.7561 -0.6060 -1.8024
10019TIP3    H251549   1.767   2.556   4.893  1.2630  0.2114  0.2980
10020TIP3   OH251550   0.255   5.727  12.792  0.4156  0.4770  0.4367
10020TIP3    H151551   0.337   5.723  12.743  0.4672  1.5647  0.4355
10020TIP3    H251552   0.220   5.814  12.775 -1.4839 -0.4787 -0.7412
10021TIP3   OH251553   6.513   4.225   1.278 -0.6277 -0.3944 -0.0231
10021TIP3    H151554   6.488   4.311   1.309 -1.2418  0.4365 -2.6745
10021TIP3    H251555   6.595   4.206   1.323 -2.4951 -0.2081  3.6083
10022TIP3   OH251556   1.821   3.734   2.957  0.7446  0.1714 -0.1564
10022TIP3    H151557   1.740   3.707   2.915  0.6823 -0.0172  0.0812
10022TIP3    H251558   1.843   3.661   3.016  1.3302  0.0169 -0.5560
10023TIP3   OH251559   4.233   4.110  16.604  0.2400 -0.3300 -0.4698
10023TIP3    H151560   4.280   4.190  16.627 -1.5956  0.5021  0.4993
10023TIP3    H251561   4.205   4.123  16.514 -0.4382  0.3119 -0.1696
10024TIP3   OH251562   1.654   0.852   5.133 -0.3253 -0.3003  0.1874
10024TIP3    H151563   1.578   0.862   5.076  0.8710 -1.6447 -1.7153
10024TIP3    H251564   1.716   0.801   5.081  1.5894  0.1406  1.9741
10025TIP3   OH251565   1.943   0.467  13.205 -0.0944  0.2156  0.5240
10025TIP3    H151566   2.008   0.537  13.215 -0.3404  0.4185  0.7021
10025TIP3    H251567   1.906   0.456  13.293  0.1695 -0.3542  0.5616
10026TIP3   OH251568   2.869   6.673  16.236 -0.4301 -0.8894 -0.6793
10026TIP3    H151569   2.807   6.640  16.301 -0.9455  3.4945  1.1807
10026TIP3    H251570   2.822   6.663  16.153 -2.3051 -0.7232  0.3258
10027TIP3   OH251571   3.915   1.277  12.936  0.1907  0.2242  0.0766
10027TIP3    H151572   3.907   1.237  12.850  1.5992 -1.5623  0.7374
10027TIP3    H251573   4.001   1.320  12.935  0.5761 -0.5082  0.8521
10028TIP3   OH251574   0.375   2.136   4.173 -0.0599  0.3963 -0.3933
10028TIP3    H151575   0.421   2.157   4.254  1.2645 -0.8215 -0.8247
10028TIP3    H251576   0.350   2.222   4.137  2.0531  1.1020 -0.2597
10029TIP3   OH251577   1.964   2.463   3.296 -0.6421 -0.5903  0.1854
10029TIP3    H151578   2.008   2.383   3.324 -0.9533  0.1576  2.9724
10029TIP3    H251579   1.872   2.437   3.286 -0.2075 -1.3222 -2.1645
10030TIP3   OH251580   1.203   6.018   0.258 -0.0733  0.4064 -0.1592
10030TIP3    H151581   1.242   6.105   0.255  0.4075  0.1437 -1.7529
10030TIP3    H251582   1.127   6.024   0.200 -0.7231  0.0988  0.6546
10031TIP3   OH251583   5.159   6.423  13.495 -0.2151  0.8685 -0.1733
10031TIP3    H151584   5.087   6.416  13.557 -1.8329  0.6715 -2.0108
10031TIP3    H251585   5.120   6.463  13.417  1.0190 -1.5779 -2.1535
10032TIP3   OH251586   1.665   2.001   1.721 -0.2739  0.5170  0.4791
10032TIP3    H151587   1.654   1.950   1.801 -0.7701  0.8165  0.6002
10032TIP3    H251588   1.717   1.944   1.664  1.1000  0.7564  1.4467
10033TIP3   OH251589   1.084   4.078   5.446 -0.5601  0.0172 -0.9041
10033TIP3    H151590   0.993   4.070   5.417  0.0020 -1.9866 -2.2300
10033TIP3    H251591   1.135   4.080   5.364  0.8508 -2.9245 -0.1674
10034TIP3   OH251592   2.949   0.706  11.671  0.2360 -0.3369 -0.1328
10034TIP3    H151593   2.896   0.740  11.599  1.5323 -0.9111 -1.3881
10034TIP3    H251594   2.887   0.695  11.743 -0.9098  1.1305 -0.8504
10035TIP3   OH251595   6.147   2.606  15.038  0.1057 -0.5470  0.3851
10035TIP3    H151596   6.213   2.596  14.970 -0.1740  0.6955 -0.0645
10035TIP3    H251597   6.197   2.610  15.120  0.6272  0.8937  0.0065
10036TIP3   OH251598   2.143   6.744  13.614  0.2529 -0.4851  0.4945
10036TIP3    H151599   2.219   6.735  13.671  0.6481 -0.7755 -0.0643
10036TIP3    H251600   2.172   6.805  13.546  0.4318 -1.6170 -0.4594
10037TIP3   OH251601   5.520   6.193  15.757 -0.1201 -0.0928  0.3974
10037TIP3    H151602   5.593   6.132  15.757  0.0181  0.0620  1.1266
10037TIP3    H251603   5.467   6.167  15.832 -2.2889 -1.9221 -1.6960
10038TIP3   OH251604   3.054   4.298   5.546 -0.0190 -0.4029 -0.6506
10038TIP3    H151605   3.001   4.294   5.466 -0.6709 -1.1300 -0.1857
10038TIP3    H251606   3.093   4.386   5.544  0.2665 -0.5444 -1.9441
10039TIP3   OH251607   1.608   4.423  16.755 -0.3260 -0.3193 -0.3863
10039TIP3    H151608   1.540   4.409  16.688 -0.4825 -2.1852  0.1347
10039TIP3    H251609   1.566   4.398  16.837 -0.2243  2.2244  0.4854
10040TIP3   OH251610   0.184   1.308  12.418 -0.3128 -1.0021 -0.0187
10040TIP3    H151611   0.246   1.238  12.395 -1.5588 -1.8764 -0.8463
10040TIP3    H251612   0.184   1.365  12.341 -0.5100 -1.0037 -0.0208
10041TIP3   OH251613   6.712   1.995  16.813 -0.3768  0.2348 -0.6311
10041TIP3    H151614   6.621   1.979  16.838 -0.7795  1.1119 -1.4869
10041TIP3    H251615   6.721   1.952  16.728  0.2684 -0.6166 -0.1386
10042TIP3   OH251616   5.306   5.065   2.262 -0.2583  0.7709  0.1946
10042TIP3    H151617   5.372   5.101   2.203  0.5094  0.7538  1.0245
10042TIP3    H251618   5.272   4.988   2.217  0.5306  0.5915 -0.0906
10043TIP3   OH251619   2.447   4.981  16.679  0.4712  0.2341 -0.2970
10043TIP3    H151620   2.374   5.039  16.658 -1.3676 -1.6624  0.6095
10043TIP3    H251621   2.468   4.937  16.596  0.1273  0.2949 -0.4131
10044TIP3   OH251622   4.320   3.432  11.121  0.5267 -0.3142  0.1279
10044TIP3    H151623   4.313   3.511  11.174 -2.0473 -0.2978 -0.2175
10044TIP3    H251624   4.371   3.458  11.044 -0.8915  1.1920 -0.3168
10045TIP3   OH251625   6.592   2.097  14.055  0.6729  0.3820  0.0304
10045TIP3    H151626   6.521   2.090  14.118  1.1636  1.4246  0.7138
10045TIP3    H251627   6.672   2.082  14.106  1.0795  1.3734 -0.2977
10046TIP3   OH251628   5.102   4.615   3.491 -0.0049  0.0106 -1.1664
10046TIP3    H151629   5.120   4.521   3.484  2.0011  0.2996 -0.2594
10046TIP3    H251630   5.182   4.657   3.461  0.9471  1.3819  2.9740
10047TIP3   OH251631   6.263   0.586   0.754  0.4897  0.1738 -0.1162
10047TIP3    H151632   6.240   0.661   0.698  1.6718  0.2420 -0.5131
10047TIP3    H251633   6.191   0.582   0.818  0.5093  1.7831  0.0398
10048TIP3   OH251634   2.500   2.364  16.622 -0.0053 -0.2790  0.0724
10048TIP3    H151635   2.542   2.278  16.624 -0.0903 -0.3329 -0.3946
10048TIP3    H251636   2.406   2.345  16.620 -0.0095 -0.1912 -0.7890
10049TIP3   OH251637   3.132   4.947   3.858 -0.1546  0.1211  0.6789
10049TIP3    H151638   3.149   4.941   3.764 -0.4701  0.2861  0.6110
10049TIP3    H251639   3.078   5.026   3.867 -0.4040 -0.0842  0.9618
10050TIP3   OH251640   0.515   5.409  14.491 -0.5547  0.0819  0.0064
10050TIP3    H151641   0.543   5.318  14.480  1.4853  0.6453  0.3070
10050TIP3    H251642   0.545   5.454  14.413 -0.7644  0.6876  0.2682
10051TIP3   OH251643   5.067   4.800   0.584  0.1539  0.5901  0.2355
10051TIP3    H151644   5.012   4.879   0.584  0.2360  0.6481  0.4632
10051TIP3    H251645   5.092   4.788   0.492  1.7382  1.9473  0.4610
10052TIP3   OH251646   2.821   3.602  11.291 -0.2765  0.1442 -0.0611
10052TIP3    H151647   2.741   3.653  11.299 -0.6643 -0.4351 -0.1948
10052TIP3    H251648   2.862   3.632  11.210  0.4401  1.5419  0.7988
10053TIP3   OH251649   6.354   6.361  10.596  0.3591 -0.5680 -0.3687
10053TIP3    H151650   6.325   6.322  10.678 -0.0400 -1.4324 -0.9164
10053TIP3    H251651   6.437   6.319  10.576  0.5038 -0.2893 -0.3592
10054TIP3   OH251652   0.958   2.329  11.672 -0.1525 -0.3683  0.2636
10054TIP3    H151653   0.913   2.331  11.588  0.2966  0.6175  0.0440
10054TIP3    H251654   0.994   2.240  11.678  0.3539 -0.2430 -0.8661
10055TIP3   OH251655   0.783   1.056   2.391 -0.0375 -0.0734 -0.0271
10055TIP3    H151656   0.760   0.973   2.349  2.7940 -0.7509 -0.3692
10055TIP3    H251657   0.817   1.110   2.320  0.5258  0.4396  0.6250
10056TIP3   OH251658   5.015   3.470  11.271 -0.4112  0.3723  0.4773
10056TIP3    H151659   5.099   3.459  11.316  0.8463  2.4994 -1.2499
10056TIP3    H251660   5.023   3.416  11.192 -0.2361  1.3826 -0.2091
10057TIP3   OH251661   2.736   5.979  15.003 -0.6799  0.3079  1.0235
10057TIP3    H151662   2.790   6.040  14.952  0.5925 -0.1465  1.8088
10057TIP3    H251663   2.648   6.017  15.000 -0.9412 -0.4628 -2.7042
10058TIP3   OH251664   2.726   3.824   0.827  0.2010 -0.6052 -0.0869
10058TIP3    H151665   2.764   3.898   0.780  1.6498 -1.4956 -0.3148
10058TIP3    H251666   2.735   3.750   0.767 -3.7096 -0.4616 -0.9970
10059TIP3   OH251667   2.566   0.527  13.977  0.5065  0.1294 -0.2430
10059TIP3    H151668   2.650   0.494  13.947  1.1656  0.8333  0.7618
10059TIP3    H251669   2.587   0.580  14.054 -0.6510  1.7960 -1.0289
10060TIP3   OH251670   0.676   0.387   0.075 -0.1269  0.0607 -0.5694
10060TIP3    H151671   0.751   0.376   0.017 -0.2282  0.9506 -0.8674
10060TIP3    H251672   0.704   0.450   0.141 -0.3812 -0.1271 -0.2744
10061TIP3   OH251673   0.095   1.392  16.849 -0.0225  0.1803 -0.0691
10061TIP3    H151674   0.101   1.368  16.942 -0.5351 -0.7130 -0.2580
10061TIP3    H251675   0.178   1.362  16.811  0.1931  0.5577  0.0958
10062TIP3   OH251676   0.549   0.135   2.475 -0.3944  0.0444 -0.2266
10062TIP3    H151677   0.479   0.095   2.424  0.0272  0.1897 -0.9326
10062TIP3    H251678   0.618   0.154   2.411 -0.2354  1.1011  0.2392
10063TIP3   OH251679   0.143   0.246   1.911 -0.2602  0.0236 -0.1704
10063TIP3    H151680   0.179   0.189   1.979 -0.3739  0.5915  0.3702
10063TIP3    H251681   0.175   0.334   1.933 -1.3429  0.4179 -0.1167
10064TIP3   OH251682   0.413   3.738  14.517 -0.6275 -0.3335 -0.2791
10064TIP3    H151683   0.398   3.826  14.552  0.5948 -0.7146  1.2548
10064TIP3    H251684   0.371   3.739  14.431  0.4016  2.1400 -0.7943
10065TIP3   OH251685   2.864   3.445  15.204 -0.3914 -0.0803  0.1732
10065TIP3    H151686   2.911   3.476  15.281 -1.4313 -0.2489  0.8845
10065TIP3    H251687   2.776   3.479  15.214  0.1297  2.1284 -2.2963
10066TIP3   OH251688   0.237   3.955   3.157 -0.0289 -0.3201  0.3551
10066TIP3    H151689   0.251   3.886   3.222 -1.7097 -1.2956 -0.2655
10066TIP3    H251690   0.313   3.949   3.098  0.9861 -0.0924  1.6336
10067TIP3   OH251691   2.728   5.237   2.633  0.1736  0.1273 -0.0897
10067TIP3    H151692   2.691   5.205   2.551  0.2467 -0.3350  0.0593
10067TIP3    H251693   2.665   5.303   2.664 -0.5099 -0.6211  0.1389
10068TIP3   OH251694   2.378   0.412   5.179  0.2472  0.3743  0.6981
10068TIP3    H151695   2.349   0.410   5.088  0.5437 -1.3782  0.6295
10068TIP3    H251696   2.413   0.501   5.191 -0.4584  0.8567 -0.6649
10069TIP3   OH251697   1.318   5.429  16.019  0.3341 -0.4218  0.6457
10069TIP3    H151698   1.233   5.471  16.028  1.2033  1.2147  1.4819
10069TIP3    H251699   1.381   5.501  16.022  1.9107 -1.8176  3.1073
10070TIP3   OH251700   4.145   6.687   2.037 -0.4122  0.0797  0.3283
10070TIP3    H151701   4.130   6.780   2.021 -0.0920  0.1714  0.5611
10070TIP3    H251702   4.183   6.683   2.125 -0.5323 -0.2787  0.3667
10071TIP3   OH251703   4.423   6.117  11.018  0.1308  0.2637  0.3803
10071TIP3    H151704   4.500   6.132  10.963 -0.1395 -2.0893 -0.6761
10071TIP3    H251705   4.425   6.189  11.081  1.7210  1.7202 -1.2735
10072TIP3   OH251706   5.061   4.180   3.228 -0.3128  0.2796 -0.4293
10072TIP3    H151707   5.075   4.085   3.227 -1.7434  0.0542 -0.1649
10072TIP3    H251708   5.145   4.217   3.202  0.0762 -1.0852 -1.1536
10073TIP3   OH251709   1.354   6.004  15.032  0.1289 -0.1063  0.3716
10073TIP3    H151710   1.429   6.055  15.062 -0.9724  1.1034  1.1133
10073TIP3    H251711   1.372   5.985  14.940  0.7627  1.2265  0.2189
10074TIP3   OH251712   4.696   3.998  10.902 -0.2648 -0.4351  0.0383
10074TIP3    H151713   4.697   3.922  10.960  0.4809 -0.8709 -0.5289
10074TIP3    H251714   4.684   3.961  10.814  0.5156  0.0632 -0.2873
10075TIP3   OH251715   4.243   3.289   2.849 -0.2100  0.1466 -0.3064
10075TIP3    H151716   4.215   3.229   2.919 -0.9698  0.8596  0.0028
10075TIP3    H251717   4.214   3.375   2.878 -1.1927  0.3433 -1.8578
10076TIP3   OH251718   0.212   6.700   1.667  0.0623  0.4625 -0.2736
10076TIP3    H151719   0.147   6.673   1.602 -0.0050 -1.4700  0.5529
10076TIP3    H251720   0.163   6.753   1.730 -0.5287 -0.2301 -0.1482
10077TIP3   OH251721   5.786   6.177   0.231  0.5297  0.2565 -0.2085
10077TIP3    H151722   5.692   6.161   0.217  0.7426 -0.5674 -0.7491
10077TIP3    H251723   5.809   6.121   0.305  0.6250  0.3427 -0.1737
10078TIP3   OH251724   3.872   0.073   2.405 -0.1756  0.7121 -0.4729
10078TIP3    H151725   3.819   0.004   2.446 -0.7011  0.2275 -1.9383
10078TIP3    H251726   3.897   0.130   2.478 -0.9993 -0.1895  0.5387
10079TIP3   OH251727   3.574   6.152  12.340  1.0009  0.2702  0.8163
10079TIP3    H151728   3.524   6.195  12.409  0.0134 -3.1318  2.3329
10079TIP3    H251729   3.621   6.081  12.384  3.2698  0.2670 -1.4290
10080TIP3   OH251730   6.154   1.282   0.246 -0.4441 -0.4183 -0.0567
10080TIP3    H151731   6.085   1.226   0.211 -0.6259 -0.4638  0.3617
10080TIP3    H251732   6.155   1.358   0.189 -1.3017 -0.1082  0.3280
10081TIP3   OH251733   6.346   6.451   3.281  0.1849 -0.2126  0.8829
10081TIP3    H151734   6.362   6.400   3.360  1.4296 -0.5599  0.4160
10081TIP3    H251735   6.350   6.542   3.311 -0.3671 -0.3601  1.4104
10082TIP3   OH251736   4.001   0.576  12.155 -0.4688 -0.7197  0.8421
10082TIP3    H151737   4.056   0.620  12.219 -0.9577  0.7947  0.2564
10082TIP3    H251738   3.967   0.647  12.100 -0.4070 -1.9460 -0.8159
10083TIP3   OH251739   5.164   4.428   1.676 -0.3598 -0.1871  0.0823
10083TIP3    H151740   5.135   4.518   1.695 -0.8179 -0.0683 -1.1438
10083TIP3    H251741   5.201   4.398   1.758 -1.2617  0.7187  0.8462
10084TIP3   OH251742   5.795   5.899   6.117  0.7416 -0.6688 -0.8265
10084TIP3    H151743   5.716   5.927   6.071  0.3345  1.0547  0.8439
10084TIP3    H251744   5.866   5.944   6.073  0.7162 -1.5629 -1.7994
10085TIP3   OH251745   6.000   6.023  15.462 -0.2057  0.0100  0.1741
10085TIP3    H151746   6.021   6.087  15.530 -0.6647 -0.9789  1.2622
10085TIP3    H251747   6.028   6.064  15.380  0.5104  1.1379  0.9813
10086TIP3   OH251748   0.702   3.676  15.370  0.1691 -0.2404 -0.0566
10086TIP3    H151749   0.665   3.697  15.285 -0.8766  0.6317  0.6063
10086TIP3    H251750   0.635   3.702  15.433  0.0137 -2.8921  0.9340
10087TIP3   OH251751   5.732   6.663  16.039  0.9143  0.2772 -0.4385
10087TIP3    H151752   5.738   6.638  16.131 -1.4466  0.1446 -0.2843
10087TIP3    H251753   5.785   6.599  15.993  0.0639 -1.2001  0.5996
10088TIP3   OH251754   3.823   6.778  13.758 -0.3217  0.1636  0.4356
10088TIP3    H151755   3.864   6.767  13.843 -0.6751  2.3255  0.9119
10088TIP3    H251756   3.730   6.784  13.776 -0.2413  3.0041  0.2063
10089TIP3   OH251757   5.050   4.345   2.880 -0.1206  0.5749 -0.2241
10089TIP3    H151758   5.117   4.346   2.811  0.2387 -2.6494  0.0160
10089TIP3    H251759   4.970   4.318   2.835  0.3032 -2.3917  0.7292
10090TIP3   OH251760   6.166   2.374  11.521  0.1943  0.2997  0.4014
10090TIP3    H151761   6.226   2.441  11.488  0.1589  1.4135  2.4819
10090TIP3    H251762   6.086   2.384  11.469  0.4553  1.3727  0.2084
10091TIP3   OH251763   2.084   5.121   2.521  0.5551  0.3787  0.4772
10091TIP3    H151764   2.076   5.189   2.454 -1.2928 -0.6529 -0.3870
10091TIP3    H251765   2.168   5.080   2.503  1.0557  1.5257  0.1460
10092TIP3   OH251766   3.450   2.446   2.278  0.3315 -0.0961  0.1191
10092TIP3    H151767   3.410   2.359   2.276 -0.4915  0.2183  1.6415
10092TIP3    H251768   3.532   2.435   2.231 -0.5278 -1.2922 -1.1502
10093TIP3   OH251769   6.600   0.309   3.064 -0.2670  0.2013  0.3673
10093TIP3    H151770   6.683   0.284   3.024 -1.8794 -1.6962 -1.8899
10093TIP3    H251771   6.569   0.230   3.108 -0.3514  1.2132  2.1652
10094TIP3   OH251772   0.358   0.205  17.238 -0.0387 -0.1661 -0.1349
10094TIP3    H151773   0.265   0.201  17.217 -0.0526 -1.5505  0.1322
10094TIP3    H251774   0.360   0.203  17.334  0.2405  0.5613 -0.1228
10095TIP3   OH251775   2.584   3.413  12.154 -0.1141  0.3731  0.0800
10095TIP3    H151776   2.559   3.321  12.159  0.0478  0.3341  0.1660
10095TIP3    H251777   2.599   3.429  12.061 -1.6747  0.7193 -0.1293
10096TIP3   OH251778   5.411   3.414   1.180 -0.2600 -0.0014  0.5832
10096TIP3    H151779   5.334   3.373   1.219 -1.7713  1.2517 -0.9902
10096TIP3    H251780   5.409   3.384   1.089 -0.4234  2.1594 -0.1470
10097TIP3   OH251781   3.476   5.612  12.568 -0.0851 -0.0025  0.2531
10097TIP3    H151782   3.459   5.695  12.524  1.6498  1.0696  1.5593
10097TIP3    H251783   3.430   5.547  12.515  0.6731  1.4604 -2.2815
10098TIP3   OH251784   3.216   3.981  15.826  0.0813 -0.0747 -0.2801
10098TIP3    H151785   3.277   4.026  15.768 -1.8492  0.5874 -1.8399
10098TIP3    H251786   3.154   3.938  15.767 -0.6310 -1.2051  1.2597
10099TIP3   OH251787   5.521   1.703   5.301  0.3159 -0.1804  0.4337
10099TIP3    H151788   5.508   1.795   5.324  0.3279 -0.5992  2.2311
10099TIP3    H251789   5.452   1.657   5.348  0.1750 -1.0754 -0.6332
10100TIP3   OH251790   0.481   0.559  12.142  0.9145  0.2173 -0.8887
10100TIP3    H151791   0.428   0.519  12.211  0.9669  0.5450 -0.6570
10100TIP3    H251792   0.429   0.547  12.062  0.8599 -0.1747 -0.7982
10101TIP3   OH251793   0.050   3.686   5.845  0.0020  0.3547  0.0078
10101TIP3    H151794   0.025   3.595   5.861  1.6854 -0.1828 -0.3279
10101TIP3    H251795   0.104   3.710   5.920  1.5938  0.2705 -1.0874
10102TIP3   OH251796   3.526   1.190   5.967  0.0417 -0.0797  0.1870
10102TIP3    H151797   3.552   1.136   6.041 -2.1533 -0.1113  0.9628
10102TIP3    H251798   3.566   1.276   5.985 -1.7205  0.3540  2.2163
10103TIP3   OH251799   4.538   5.503  16.113  0.4142 -0.2566 -0.2738
10103TIP3    H151800   4.546   5.566  16.185  1.7586  0.3321 -0.9108
10103TIP3    H251801   4.628   5.480  16.092  0.0403 -0.2005 -1.9598
10104TIP3   OH251802   1.698   1.114  15.381 -0.0660 -0.5443 -0.0392
10104TIP3    H151803   1.756   1.048  15.344  0.8230 -1.4264  2.7704
10104TIP3    H251804   1.740   1.198  15.361 -0.2492 -0.9097 -2.0201
10105TIP3   OH251805   3.812   2.490   6.124  0.2299 -0.3610 -0.3944
10105TIP3    H151806   3.747   2.424   6.148  0.5431 -0.8426 -0.8703
10105TIP3    H251807   3.897   2.448   6.139  0.4265 -0.3967 -1.6105
10106TIP3   OH251808   5.219   0.775  16.020  0.3418 -0.2350  0.5415
10106TIP3    H151809   5.189   0.866  16.016  1.8835  0.2641 -0.0924
10106TIP3    H251810   5.156   0.726  15.968 -0.8158  0.3857  1.3562
10107TIP3   OH251811   0.890   2.398  13.323  0.6710  0.4871  0.0353
10107TIP3    H151812   0.868   2.346  13.247  1.1836  3.0019 -1.9186
10107TIP3    H251813   0.975   2.437  13.301  0.5421  1.7264  1.6259
10108TIP3   OH251814   4.629   4.764   6.024  0.3391  0.0758 -0.5402
10108TIP3    H151815   4.702   4.776   6.085 -1.5968 -2.4028  2.4100
10108TIP3    H251816   4.650   4.682   5.978 -1.2078 -1.4283  1.3541
10109TIP3   OH251817   5.722   6.212   1.165  0.2685  0.0495 -0.2165
10109TIP3    H151818   5.642   6.172   1.199  0.0611  0.5265 -0.1538
10109TIP3    H251819   5.769   6.241   1.243 -0.8252  2.3481 -0.3841
10110TIP3   OH251820   2.124   6.386  15.872  0.3698 -0.0640 -0.0144
10110TIP3    H151821   2.135   6.462  15.929  1.5262 -1.7003  1.9967
10110TIP3    H251822   2.031   6.385  15.851  0.1559  1.2686  0.8356
10111TIP3   OH251823   6.533   3.261   4.389  0.6458  0.3145  0.2107
10111TIP3    H151824   6.559   3.311   4.312  1.8129 -1.8155 -0.8122
10111TIP3    H251825   6.556   3.317   4.463  2.1779  1.1545 -0.8856
10112TIP3   OH251826   2.029   2.845  16.382  0.3971  0.1175 -0.4338
10112TIP3    H151827   2.041   2.784  16.455 -1.0077 -0.4185 -0.6198
10112TIP3    H251828   2.026   2.931  16.423  0.3932 -0.1163  0.0656
10113TIP3   OH251829   4.070   0.687   0.709  0.1072  0.0632  0.5569
10113TIP3    H151830   4.157   0.648   0.702  0.1607  0.3603 -0.5956
10113TIP3    H251831   4.020   0.626   0.763  0.7857 -0.5403  0.5118
10114TIP3   OH251832   6.138   6.714   4.344  0.7183  0.0256  0.2301
10114TIP3    H151833   6.165   6.712   4.252  2.7417 -1.8082  0.8288
10114TIP3    H251834   6.095   6.630   4.359 -1.9951  1.3578  0.3329
10115TIP3   OH251835   1.680   3.496   5.009 -0.9726  0.0051 -0.5827
10115TIP3    H151836   1.757   3.444   5.033 -0.7267 -0.1583 -1.6894
10115TIP3    H251837   1.664   3.552   5.085  0.3575  0.1764 -0.4180
10116TIP3   OH251838   5.855   1.710   4.887 -0.2584  0.1864 -0.7616
10116TIP3    H151839   5.764   1.690   4.866 -1.0963  2.3277  0.6641
10116TIP3    H251840   5.877   1.650   4.958 -0.4669 -0.4980 -1.2662
10117TIP3   OH251841   3.404   3.282   0.492 -0.1356  0.1225  0.0628
10117TIP3    H151842   3.320   3.327   0.501 -0.4945 -0.7515  1.3261
10117TIP3    H251843   3.450   3.329   0.423 -1.3556  1.0918 -0.1031
10118TIP3   OH251844   4.316   1.676   0.733 -0.1617  0.0755  0.1873
10118TIP3    H151845   4.239   1.710   0.687  0.0101 -0.0897 -0.2195
10118TIP3    H251846   4.357   1.754   0.771  1.0969  0.5399 -2.0260
10119TIP3   OH251847   1.644   0.014  12.710 -0.1927  0.1567  0.3128
10119TIP3    H151848   1.634  -0.054  12.643  1.5164  0.8918 -0.7205
10119TIP3    H251849   1.561   0.013  12.757 -0.3838 -2.3322  0.0183
10120TIP3   OH251850   5.087   1.300  16.516  0.2847  0.1383 -0.4227
10120TIP3    H151851   5.018   1.239  16.545 -0.8331  0.1134 -2.9882
10120TIP3    H251852   5.041   1.381  16.497  1.0923  0.3910 -1.3429
10121TIP3   OH251853   3.752   0.181   5.889 -0.4572  0.0991  0.2832
10121TIP3    H151854   3.817   0.114   5.908 -1.1223 -0.1708  1.6693
10121TIP3    H251855   3.764   0.201   5.796  1.3963 -0.1428  0.4643
10122TIP3   OH251856   5.747   5.099   4.411  0.3571  0.9031  0.1440
10122TIP3    H151857   5.843   5.089   4.413  0.1510 -3.0338 -2.8207
10122TIP3    H251858   5.733   5.183   4.369  2.5862  0.2506 -2.0732
10123TIP3   OH251859   4.675   5.314  14.774  0.8233 -0.6036  0.7628
10123TIP3    H151860   4.619   5.389  14.755  1.4979 -0.0265  1.0251
10123TIP3    H251861   4.721   5.296  14.692  1.0593 -0.3906  0.8478
10124TIP3   OH251862   1.072   3.610  17.074 -0.5319  0.3182  0.1209
10124TIP3    H151863   1.001   3.673  17.085 -0.7321  0.1415 -0.1235
10124TIP3    H251864   1.027   3.526  17.063 -0.2751  0.1632  0.2665
10125TIP3   OH251865   6.028   2.572  13.819 -0.0024  0.0171  0.0797
10125TIP3    H151866   5.997   2.484  13.797  0.3970  0.0053 -0.4370
10125TIP3    H251867   5.956   2.611  13.869  0.1707 -0.9183  1.0780
10126TIP3   OH251868   4.013   6.627   2.572 -0.3642  0.4075 -0.1719
10126TIP3    H151869   4.043   6.711   2.609 -2.0628  1.3219 -0.8388
10126TIP3    H251870   4.086   6.567   2.587  0.9589  2.0641  0.1265
10127TIP3   OH251871   3.908   5.990  11.980 -0.2142 -0.6252 -0.1142
10127TIP3    H151872   3.884   6.017  11.892  2.0640 -0.3237 -0.6815
10127TIP3    H251873   3.979   5.927  11.967  1.0272  0.3792  1.5283
10128TIP3   OH251874   1.575   6.104   5.040  0.1012  0.0182 -1.0126
10128TIP3    H151875   1.657   6.129   4.997  0.8239  0.9915  0.8767
10128TIP3    H251876   1.596   6.107   5.134 -2.1392  0.4435 -0.5140
10129TIP3   OH251877   3.929   2.860  15.357 -0.0263  0.8771 -0.8457
10129TIP3    H151878   3.862   2.918  15.394  0.6820  2.4544 -1.9707
10129TIP3    H251879   4.009   2.881  15.404 -0.0690 -0.1807 -0.3017
10130TIP3   OH251880   3.472   5.902   2.575  0.3086 -0.0392 -0.6489
10130TIP3    H151881   3.423   5.949   2.642 -0.0173 -0.1506 -0.8047
10130TIP3    H251882   3.563   5.910   2.601 -0.0110 -2.5903  1.4271
10131TIP3   OH251883   3.775   2.388   5.205  0.2823 -0.2843  0.1357
10131TIP3    H151884   3.870   2.383   5.194  0.2892  0.3610 -0.1425
10131TIP3    H251885   3.762   2.449   5.278  0.0945 -0.8547  0.5866
10132TIP3   OH251886   0.027   2.914  14.297 -0.7678  0.4539  0.5081
10132TIP3    H151887   0.034   2.988  14.357 -1.0021 -0.1228  1.2420
10132TIP3    H251888   0.007   2.955  14.212  0.5723  1.3395  0.5974
10133TIP3   OH251889   1.337   5.848   6.330 -0.1020  0.0259  0.2148
10133TIP3    H151890   1.340   5.764   6.283  0.2387  0.2557 -0.1732
10133TIP3    H251891   1.418   5.849   6.382 -0.3071 -0.0684  0.5382
10134TIP3   OH251892   4.657   5.266  16.266  0.2880  0.3121 -0.1040
10134TIP3    H151893   4.578   5.270  16.319 -1.5040  0.3112 -2.7109
10134TIP3    H251894   4.644   5.191  16.208  1.9596  0.6421 -0.9480
10135TIP3   OH251895   5.835   4.559  14.496 -0.2076  0.7060 -0.2387
10135TIP3    H151896   5.810   4.642  14.456 -1.8160  0.2829 -0.1658
10135TIP3    H251897   5.837   4.578  14.590 -1.0472  0.5562 -0.1857
10136TIP3   OH251898   3.671   3.109   1.755 -0.1824  0.0962  0.3395
10136TIP3    H151899   3.738   3.176   1.766 -0.4759  0.2777  1.0730
10136TIP3    H251900   3.644   3.087   1.844 -0.9894 -0.0815  0.0607
10137TIP3   OH251901   2.654   0.373   3.646  0.2822 -0.6775  0.4816
10137TIP3    H151902   2.587   0.416   3.593  1.1325  1.0258  0.7439
10137TIP3    H251903   2.710   0.328   3.584  1.1096  1.0758 -0.0892
10138TIP3   OH251904   4.712   0.451  16.981 -0.3919  0.8016  0.0506
10138TIP3    H151905   4.666   0.449  16.897 -0.4804 -3.0598  0.1194
10138TIP3    H251906   4.805   0.450  16.958 -0.4155  0.1489 -0.0391
10139TIP3   OH251907   6.517   5.042   0.633 -0.1757 -0.2384 -0.5136
10139TIP3    H151908   6.581   5.073   0.569 -0.5692  1.9625  0.1186
10139TIP3    H251909   6.568   4.994   0.697  0.6444  0.2421 -0.8032
10140TIP3   OH251910   3.229   3.620   3.021  0.1366  0.1377 -0.1650
10140TIP3    H151911   3.162   3.605   2.954 -1.7909 -0.3745  1.8583
10140TIP3    H251912   3.255   3.533   3.050  0.0549  0.3816  0.6578
10141TIP3   OH251913   3.998   2.798  16.100 -0.5041  0.1300  0.4392
10141TIP3    H151914   3.963   2.709  16.085  1.1933 -0.3554 -0.7497
10141TIP3    H251915   3.922   2.848  16.129 -1.0425 -2.2817  3.5881
10142TIP3   OH251916   0.461   2.675   1.057  0.1210  0.6305  0.0205
10142TIP3    H151917   0.410   2.742   1.102  0.9307  1.0044  0.3678
10142TIP3    H251918   0.529   2.723   1.011 -2.2189  0.5552 -3.7932
10143TIP3   OH251919   3.449   0.276   4.123  0.6632  0.5751 -0.5059
10143TIP3    H151920   3.453   0.326   4.041 -0.6811  0.5645 -0.5843
10143TIP3    H251921   3.434   0.186   4.095 -3.2501  1.0558 -0.1647
10144TIP3   OH251922   4.363   2.675  13.302 -0.4639 -0.1489  0.6236
10144TIP3    H151923   4.391   2.647  13.389  2.7880  1.6459  0.2479
10144TIP3    H251924   4.297   2.743  13.320  0.2473  0.2786  1.6879
10145TIP3   OH251925   0.164   0.565   5.589  0.1085  0.0993  0.4420
10145TIP3    H151926   0.255   0.567   5.562 -0.0562  1.7921  0.0038
10145TIP3    H251927   0.115   0.552   5.508 -0.0506 -0.7606  0.6708
10146TIP3   OH251928   3.523   4.223  11.441  0.1415 -0.8561 -0.1887
10146TIP3    H151929   3.460   4.152  11.456 -0.2624 -0.4585 -0.0082
10146TIP3    H251930   3.472   4.303  11.452  0.6087 -0.5358 -0.3605
10147TIP3   OH251931   1.099   3.363  17.224  0.0076 -0.0084  0.6000
10147TIP3    H151932   1.129   3.272  17.234 -0.2566 -0.1617  0.0247
10147TIP3    H251933   1.023   3.357  17.166 -1.5316  0.3134  2.5390
10148TIP3   OH251934   4.595   3.938  14.848 -0.3209  0.6010  0.3216
10148TIP3    H151935   4.625   3.849  14.865 -0.2842  0.3469 -0.9980
10148TIP3    H251936   4.547   3.963  14.927  0.1631 -0.3736  0.9279
10149TIP3   OH251937   3.046   2.853  12.160 -1.0459  0.1229  0.1575
10149TIP3    H151938   3.123   2.821  12.205  0.1359  2.4331 -0.1304
10149TIP3    H251939   3.010   2.920  12.218 -2.4059 -0.4222 -0.0413
10150TIP3   OH251940   2.535   4.231   2.046 -0.1652 -0.2980  0.3744
10150TIP3    H151941   2.506   4.157   2.099  1.3535 -1.9386 -1.0183
10150TIP3    H251942   2.604   4.272   2.098 -1.0595  0.1928  1.1832
10151TIP3   OH251943   1.530   4.656   3.803 -0.0836  0.4814 -0.1134
10151TIP3    H151944   1.588   4.731   3.788 -0.3906  0.4717 -1.4353
10151TIP3    H251945   1.588   4.584   3.825  0.1325  1.4126  2.5044
10152TIP3   OH251946   2.131   5.367   2.861  0.0221 -0.5851  0.4687
10152TIP3    H151947   2.226   5.377   2.869  0.1244 -1.3654  0.3105
10152TIP3    H251948   2.109   5.412   2.779  0.6968 -2.9398 -1.0689
10153TIP3   OH251949   0.765   1.081   0.496  0.1410  0.1677 -0.7186
10153TIP3    H151950   0.687   1.134   0.511  2.0777  2.9557 -0.1816
10153TIP3    H251951   0.837   1.143   0.497  2.3549 -2.2929 -1.6624
10154TIP3   OH251952   2.347   0.331  15.321 -0.1187 -0.4677 -0.3098
10154TIP3    H151953   2.422   0.382  15.351 -1.3432 -1.2720  4.5089
10154TIP3    H251954   2.281   0.397  15.297  0.0906  0.2457  1.0535
10155TIP3   OH251955   1.961   1.634  12.260 -0.2330  0.2461 -0.1346
10155TIP3    H151956   1.914   1.661  12.339 -0.2198 -0.5285  0.1421
10155TIP3    H251957   2.016   1.709  12.238 -2.0907  1.4321 -0.8584
10156TIP3   OH251958   3.023   3.648   3.228  0.2787 -0.4156  0.2041
10156TIP3    H151959   3.079   3.655   3.151 -0.5971 -0.6598 -0.4558
10156TIP3    H251960   3.008   3.554   3.239 -1.8266 -0.2307 -0.9473
10157TIP3   OH251961   2.491   5.519  12.844  0.6511  0.5234 -0.4968
10157TIP3    H151962   2.476   5.490  12.934 -0.3797  2.9599  0.1738
10157TIP3    H251963   2.582   5.497  12.826  0.7978 -0.1922  1.0550
10158TIP3   OH251964   2.607   0.543   2.234 -0.0991 -0.5924  0.7549
10158TIP3    H151965   2.672   0.506   2.174 -1.0053 -1.6066  0.3896
10158TIP3    H251966   2.575   0.622   2.189  2.6094  1.3100  2.0090
10159TIP3   OH251967   1.355   4.410  16.595  0.1040  0.0676 -0.6428
10159TIP3    H151968   1.267   4.412  16.559 -0.1164 -2.2123 -0.3034
10159TIP3    H251969   1.411   4.390  16.521 -0.1058 -2.3410 -0.1874
10160TIP3   OH251970   6.585   0.381  11.872  0.3053 -0.0035  0.2586
10160TIP3    H151971   6.551   0.297  11.903 -0.2527 -0.1157 -0.6222
10160TIP3    H251972   6.547   0.391  11.785  0.7854  0.9223  0.1504
10161TIP3   OH251973   5.150   4.113  10.265  0.3200 -0.2101  0.1428
10161TIP3    H151974   5.187   4.155  10.343  1.9035  0.2075 -0.8248
10161TIP3    H251975   5.223   4.064  10.227 -0.8448 -1.7402 -0.2015
10162TIP3   OH251976   6.767   1.426   3.476 -0.4456 -0.1545  0.0834
10162TIP3    H151977   6.740   1.455   3.389  0.6450 -0.8069 -0.4820
10162TIP3    H251978   6.686   1.423   3.527 -1.2942 -1.0890 -1.2960
10163TIP3   OH251979   1.059   4.515   2.366 -0.5538  0.9716 -0.0169
10163TIP3    H151980   1.017   4.453   2.306 -0.4461 -1.7292  2.5759
10163TIP3    H251981   1.151   4.489   2.364 -0.3566  1.6558  0.4138
10164TIP3   OH251982   3.285   5.218  11.772  0.2296  0.2671 -0.0058
10164TIP3    H151983   3.287   5.189  11.864 -0.0289  2.7131  0.7887
10164TIP3    H251984   3.237   5.149  11.727  0.4167 -1.0071  1.6812
10165TIP3   OH251985   6.271   6.741  14.300  0.2891  0.3260 -0.2260
10165TIP3    H151986   6.329   6.673  14.265 -1.1356 -0.4120 -1.1973
10165TIP3    H251987   6.265   6.721  14.393  0.2844 -0.5868 -0.4134
10166TIP3   OH251988   1.799   5.382  17.272  0.8102 -1.2568 -0.2705
10166TIP3    H151989   1.834   5.299  17.239  2.1670 -0.8703  0.1472
10166TIP3    H251990   1.873   5.422  17.319  0.1452  0.1503 -0.3938
10167TIP3   OH251991   4.179   0.476   3.638  0.3515  0.0038  0.2399
10167TIP3    H151992   4.163   0.417   3.564  0.4634  0.0602  0.1700
10167TIP3    H251993   4.274   0.485   3.641  0.2990  0.7352 -0.1868
10168TIP3   OH251994   0.369   5.379   0.311  0.4013  0.1661 -0.0087
10168TIP3    H151995   0.363   5.377   0.215  1.9387  1.1113 -0.1314
10168TIP3    H251996   0.446   5.433   0.329  1.1963 -1.5155  1.7254
10169TIP3   OH251997   0.047   5.165   1.220  0.2703  0.3935 -0.1563
10169TIP3    H151998   0.126   5.193   1.173  1.0362 -0.8261  0.3708
10169TIP3    H251999   0.014   5.092   1.167 -1.6485  2.1766 -1.4698
10170TIP3   OH252000   1.113   5.531   1.166 -0.2112  0.1855 -0.1131
10170TIP3    H152001   1.161   5.598   1.215  0.1226 -1.0860  1.3331
10170TIP3    H252002   1.036   5.577   1.132  0.1561  1.3730  0.6108
10171TIP3   OH252003   2.532   3.915  12.561 -0.1851  0.0107  0.9952
10171TIP3    H152004   2.581   3.905  12.642  0.5199 -2.1411  0.3235
10171TIP3    H252005   2.598   3.939  12.496 -0.8912  2.7730  1.2245
10172TIP3   OH252006   2.020   3.361   4.502  0.1705  0.9103  0.0737
10172TIP3    H152007   1.961   3.301   4.457  0.6297 -0.2293  0.9827
10172TIP3    H252008   2.076   3.396   4.434 -0.2596  0.4994 -0.4931
10173TIP3   OH252009   6.243   4.062   5.429  0.5743 -0.0883 -1.0779
10173TIP3    H152010   6.221   4.140   5.480  2.6008  0.3251 -0.7682
10173TIP3    H252011   6.172   4.053   5.366 -0.5780  0.9732  0.0599
10174TIP3   OH252012   1.536   2.292  16.920  0.1435  0.3234  0.2813
10174TIP3    H152013   1.527   2.200  16.896 -0.1167  0.1627  0.9849
10174TIP3    H252014   1.578   2.333  16.844  0.2458 -0.3698 -0.0383
10175TIP3   OH252015   6.727   4.499  11.066 -0.2783 -0.1072 -0.0893
10175TIP3    H152016   6.683   4.582  11.080  0.8256  0.5791 -0.6684
10175TIP3    H252017   6.751   4.499  10.974  1.4265 -0.2337  0.3413
10176TIP3   OH252018   1.984   6.699   1.837  0.2060 -0.5099 -0.1558
10176TIP3    H152019   2.030   6.698   1.920 -0.9980  3.3331  0.6439
10176TIP3    H252020   2.041   6.747   1.778  0.2090 -1.6043 -1.0690
10177TIP3   OH252021   5.099   0.482   3.743  0.7305  0.5740 -0.1717
10177TIP3    H152022   5.060   0.543   3.806 -0.0225 -0.6494  0.5565
10177TIP3    H252023   5.193   0.502   3.745  0.5370  1.4784  0.3025
10178TIP3   OH252024   4.382   0.916   0.177  0.2337  0.1327  0.0176
10178TIP3    H152025   4.373   0.884   0.267 -1.6537  0.5364 -0.0055
10178TIP3    H252026   4.383   0.837   0.124  0.1831 -0.0560  0.2931
10179TIP3   OH252027   5.199   0.986   0.289 -0.1214  0.1986 -0.3114
10179TIP3    H152028   5.161   0.901   0.313  1.2908  0.0919  1.6384
10179TIP3    H252029   5.189   0.990   0.194 -2.8826 -0.8351 -0.1313
10180TIP3   OH252030   1.486   2.075  12.067  1.0430 -0.1236  0.2389
10180TIP3    H152031   1.526   2.157  12.098 -0.1563 -0.0109  1.5267
10180TIP3    H252032   1.458   2.030  12.146 -2.6586  0.4581 -0.6125
10181TIP3   OH252033   6.025   1.732  16.789 -0.1332  0.0012 -0.0515
10181TIP3    H152034   5.961   1.666  16.816  0.2245 -0.6018 -0.6614
10181TIP3    H252035   6.015   1.803  16.852 -0.0916 -0.9032  0.9872
10182TIP3   OH252036   1.814   0.192   2.315 -0.1448  0.3633 -1.8357
10182TIP3    H152037   1.830   0.262   2.252 -3.2773  0.4133 -2.6544
10182TIP3    H252038   1.772   0.236   2.389  0.9613 -0.1395 -0.8930
10183TIP3   OH252039   3.879   1.031  15.741  0.9865 -0.2042 -0.0579
10183TIP3    H152040   3.914   1.060  15.657  1.4524 -3.0707 -0.9394
10183TIP3    H252041   3.791   0.998  15.720  0.7480 -0.0833  0.7481
10184TIP3   OH252042   2.856   3.110   3.382  0.0376 -0.5967  0.5981
10184TIP3    H152043   2.950   3.116   3.366 -0.1302 -2.1490 -1.0533
10184TIP3    H252044   2.846   3.029   3.432 -0.2765  0.3871  2.1816
10185TIP3   OH252045   6.717   2.562  10.636 -0.4719  0.2544 -0.1846
10185TIP3    H152046   6.805   2.526  10.649 -0.2718  1.6609  2.5749
10185TIP3    H252047   6.664   2.486  10.611  1.1490 -0.9012 -0.1844
10186TIP3   OH252048   2.044   2.644  14.801 -0.2014  0.3976  0.0058
10186TIP3    H152049   2.031   2.611  14.711  2.9323 -0.7295 -0.1052
10186TIP3    H252050   2.019   2.570  14.856 -0.4886  0.5015  0.0171
10187TIP3   OH252051   3.680   2.732  12.033  0.1526 -0.5848 -1.0988
10187TIP3    H152052   3.595   2.756  11.997  0.5364 -0.7115 -2.0877
10187TIP3    H252053   3.739   2.734  11.959  1.5156  1.8272 -0.0003
10188TIP3   OH252054   1.586   4.395  14.364  0.1457 -0.3545 -0.1972
10188TIP3    H152055   1.509   4.365  14.315 -0.2651  0.8244 -0.2754
10188TIP3    H252056   1.557   4.395  14.455  0.9206 -2.5794  0.0741
10189TIP3   OH252057   0.552   1.350  14.197  0.4106  0.0096 -0.0434
10189TIP3    H152058   0.478   1.343  14.257  0.4781 -0.2761  0.0056
10189TIP3    H252059   0.613   1.283  14.226  0.9006  0.5610  0.2136
10190TIP3   OH252060   0.953   1.481   1.520 -0.1371 -0.0905  0.0922
10190TIP3    H152061   1.032   1.498   1.571 -0.2461  0.0250  0.2235
10190TIP3    H252062   0.966   1.393   1.485  0.2025  0.0666 -0.1756
10191TIP3   OH252063   4.112   5.744   5.498  0.1036 -0.4701  0.4684
10191TIP3    H152064   4.166   5.779   5.568 -0.9518  0.2141  0.9595
10191TIP3    H252065   4.022   5.754   5.530 -0.2851 -2.5299  0.1161
10192TIP3   OH252066   4.000   3.963   4.275  0.0107 -0.4526  0.5899
10192TIP3    H152067   4.013   3.870   4.289  0.3751 -0.1788  2.1447
10192TIP3    H252068   4.088   3.998   4.261 -0.1216 -0.3239  0.0370
10193TIP3   OH252069   0.194   3.478   0.259 -0.0937 -0.0774 -0.1074
10193TIP3    H152070   0.138   3.469   0.336 -0.1245  1.2571  0.0473
10193TIP3    H252071   0.261   3.541   0.286 -0.0860  0.3662 -1.1578
10194TIP3   OH252072   4.016   5.698  12.934 -0.1965  0.3123  0.1708
10194TIP3    H152073   3.947   5.701  12.867 -0.2673  1.5407  0.2811
10194TIP3    H252074   4.062   5.616  12.917 -0.8598  0.1147 -0.7396
10195TIP3   OH252075   6.535   3.218  14.102 -0.0377 -0.0787  0.4809
10195TIP3    H152076   6.589   3.142  14.081  0.7169  0.0644  1.8303
10195TIP3    H252077   6.446   3.183  14.111 -0.0081 -0.4886 -0.6803
10196TIP3   OH252078   6.326   6.707   0.384  0.3245  1.1882  0.0418
10196TIP3    H152079   6.243   6.696   0.431  0.2724  1.1494 -0.0597
10196TIP3    H252080   6.313   6.662   0.301  0.3533  1.4155 -0.0863
10197TIP3   OH252081   2.577   5.542   3.733 -0.2696  0.4240  0.7884
10197TIP3    H152082   2.494   5.557   3.687 -0.0984  0.6519  0.5500
10197TIP3    H252083   2.614   5.630   3.744  0.6129  0.2096 -0.3759
10198TIP3   OH252084   3.320   5.565   0.199  0.0128 -0.6671  0.4918
10198TIP3    H152085   3.385   5.636   0.191 -0.0343 -0.5278  1.2856
10198TIP3    H252086   3.296   5.544   0.109  0.3520  0.0323  0.2353
10199TIP3   OH252087   6.504   2.630   4.690 -0.7525  0.0574 -0.3667
10199TIP3    H152088   6.530   2.611   4.600 -1.1519 -0.4886 -0.3657
10199TIP3    H252089   6.409   2.619   4.692 -0.4606 -2.7458  0.7857
10200TIP3   OH252090   0.622   2.427   1.699  0.6895  0.5222 -0.3089
10200TIP3    H152091   0.651   2.412   1.609 -0.6617  1.5308 -0.9190
10200TIP3    H252092   0.541   2.376   1.706 -0.5135  2.3780 -0.4334
10201TIP3   OH252093   0.979   1.005  15.050 -0.2862  0.1841 -0.2099
10201TIP3    H152094   1.023   0.939  14.996  0.9965 -0.1145  1.1820
10201TIP3    H252095   0.979   1.084  14.996 -0.4292 -0.5230 -1.2689
10202TIP3   OH252096   0.819   6.068   3.232 -0.1972 -0.5937  0.2239
10202TIP3    H152097   0.895   6.125   3.246 -1.0842  1.4160 -2.6852
10202TIP3    H252098   0.756   6.096   3.299 -0.6849  2.0369 -1.2617
10203TIP3   OH252099   2.325   4.369  15.612 -0.7977 -0.1431 -0.3735
10203TIP3    H152100   2.278   4.382  15.529 -0.9836  0.4017 -0.1853
10203TIP3    H252101   2.359   4.456  15.633 -0.9141 -0.2443  0.2223
10204TIP3   OH252102   1.624   3.353   3.377 -0.0255 -0.4970  0.1081
10204TIP3    H152103   1.645   3.317   3.291  0.5997  1.6083 -0.6486
10204TIP3    H252104   1.709   3.359   3.422  0.0435  1.1403 -0.2233
10205TIP3   OH252105   3.686   0.907   6.500 -0.1958  0.7639  0.1703
10205TIP3    H152106   3.737   0.827   6.484 -2.2266 -0.4932 -0.3215
10205TIP3    H252107   3.673   0.909   6.595 -1.3750 -0.3307  0.0534
10206TIP3   OH252108   5.450   1.134  16.801 -0.0896 -0.7151 -0.2152
10206TIP3    H152109   5.447   1.043  16.831  2.4876 -0.7529  0.0609
10206TIP3    H252110   5.474   1.127  16.708 -0.0427 -0.3146 -0.2328
10207TIP3   OH252111   4.315   0.545  17.005  0.1364  0.3187  0.4512
10207TIP3    H152112   4.269   0.557  16.922  0.2867 -1.5019  0.1000
10207TIP3    H252113   4.274   0.469  17.045  1.6964 -0.3035  0.9201
10208TIP3   OH252114   0.111   2.011  12.832  0.0875  0.7051 -0.1436
10208TIP3    H152115   0.142   2.085  12.780  0.0301 -0.1291 -1.3870
10208TIP3    H252116   0.187   1.953  12.840  0.0352  0.7247  0.5147
10209TIP3   OH252117   6.776   6.501   4.286  0.3925  0.4424 -0.1231
10209TIP3    H152118   6.740   6.523   4.372 -0.5963 -0.7043 -0.2276
10209TIP3    H252119   6.700   6.475   4.234  1.0713  0.4618 -1.1377
10210TIP3   OH252120   5.695   1.908  14.728 -0.1257 -0.0026 -0.0971
10210TIP3    H152121   5.676   1.888  14.636 -1.1309 -0.9099  0.2944
10210TIP3    H252122   5.628   1.973  14.752  0.5616  0.7513 -0.1885
10211TIP3   OH252123   1.665   2.305   2.873 -0.5916  0.0678  0.0413
10211TIP3    H152124   1.591   2.261   2.915 -0.1849 -1.1837 -0.5286
10211TIP3    H252125   1.737   2.243   2.880 -0.3527  0.0712 -1.9613
10212TIP3   OH252126   3.019   3.309   1.819  0.3614 -0.1552  0.0548
10212TIP3    H152127   2.980   3.225   1.845 -1.1827  0.1851 -1.1201
10212TIP3    H252128   2.962   3.342   1.749  1.5371  1.3917 -0.2051
10213TIP3   OH252129   5.147   2.438   0.484  0.0050 -0.6650 -0.5237
10213TIP3    H152130   5.171   2.484   0.404  0.4041 -0.1278 -0.1017
10213TIP3    H252131   5.117   2.508   0.543 -2.8590 -1.3513 -1.1304
10214TIP3   OH252132   4.401   2.679  13.584  0.0757  0.5234 -0.2117
10214TIP3    H152133   4.399   2.773  13.599  2.8510  0.2998  1.8523
10214TIP3    H252134   4.375   2.640  13.668  1.1176 -0.5805 -0.3874
10215TIP3   OH252135   5.165   0.111   1.295 -0.3305 -0.1927 -0.4407
10215TIP3    H152136   5.232   0.048   1.272  0.2316  0.2271  0.0516
10215TIP3    H252137   5.174   0.180   1.229  1.1343  0.9021  0.8778
10216TIP3   OH252138   4.918   3.843   5.519  0.6573  0.3718  0.2998
10216TIP3    H152139   4.987   3.834   5.454  0.5302  0.3640  0.1657
10216TIP3    H252140   4.941   3.921   5.569  1.5005 -0.3946  1.1387
10217TIP3   OH252141   6.199   0.425  14.116  0.0297 -0.1575 -0.4836
10217TIP3    H152142   6.272   0.431  14.054  1.1869 -0.0629  0.8880
10217TIP3    H252143   6.237   0.447  14.201 -1.1348 -2.1761  0.5887
10218TIP3   OH252144   5.285   3.578  17.214  0.6689  0.1981  0.2601
10218TIP3    H152145   5.215   3.610  17.156 -0.7269  0.5711  2.0924
10218TIP3    H252146   5.341   3.526  17.157 -0.5192  0.7692 -1.4845
10219TIP3   OH252147   0.900   0.917  15.307 -0.5370 -0.0519 -0.2024
10219TIP3    H152148   0.899   0.941  15.215  0.1264 -1.5692 -0.6186
10219TIP3    H252149   0.990   0.935  15.335 -0.9012  1.0132  0.3291
10220TIP3   OH252150   2.387   5.527   0.661  0.1352  0.3442 -0.3436
10220TIP3    H152151   2.338   5.579   0.725 -1.7828 -1.3697 -0.3412
10220TIP3    H252152   2.332   5.528   0.582 -0.5611 -2.6188  0.0369
10221TIP3   OH252153   3.626   4.949   1.213 -0.0286 -0.1401  0.4936
10221TIP3    H152154   3.575   5.028   1.228 -0.7223 -0.0239 -2.2361
10221TIP3    H252155   3.562   4.878   1.212  0.2874 -0.4275  0.5649
10222TIP3   OH252156   5.723   3.018  15.178 -0.4549 -0.4428 -0.0692
10222TIP3    H152157   5.797   2.975  15.221 -0.5373 -0.8527 -0.3321
10222TIP3    H252158   5.761   3.057  15.099 -0.5246 -0.6626 -0.2093
10223TIP3   OH252159   0.805   4.747  15.133 -0.1057 -0.0816  0.0512
10223TIP3    H152160   0.794   4.810  15.204  0.3449  0.2006 -0.1309
10223TIP3    H252161   0.721   4.699  15.130  0.4388 -1.1814  1.8278
10224TIP3   OH252162   0.830   0.183   0.386  0.2607 -0.5083 -0.1880
10224TIP3    H152163   0.865   0.206   0.300  0.5030 -0.1676 -0.0020
10224TIP3    H252164   0.841   0.263   0.438 -1.7152 -0.0816 -0.4088
10225TIP3   OH252165   4.790   5.448   4.487 -0.0440  0.6853  0.6100
10225TIP3    H152166   4.820   5.507   4.555  0.5388  1.0785  0.0247
10225TIP3    H252167   4.803   5.360   4.524  1.1856  0.8634  0.6461
10226TIP3   OH252168   2.053   6.408   2.346  0.3119  0.1992 -0.6301
10226TIP3    H152169   2.097   6.458   2.415 -0.6097  0.0804  0.0534
10226TIP3    H252170   2.087   6.319   2.355  0.3369  0.2267 -0.4494
10227TIP3   OH252171   1.658   1.100   3.017  0.1747 -0.4149  0.0509
10227TIP3    H152172   1.643   1.183   3.062 -1.2092 -1.0177  0.7242
10227TIP3    H252173   1.624   1.114   2.928  1.3859  0.2293 -0.3323
10228TIP3   OH252174   5.287   0.335   1.428 -0.3438 -0.1494 -0.2121
10228TIP3    H152175   5.237   0.255   1.413  0.0915 -0.3539 -0.5676
10228TIP3    H252176   5.377   0.312   1.405 -0.4450  0.8476 -1.6898
10229TIP3   OH252177   4.086   3.152  17.282 -0.3715  0.3491 -0.4076
10229TIP3    H152178   3.996   3.132  17.307 -0.0051 -0.6112  0.1643
10229TIP3    H252179   4.093   3.247  17.290 -1.6559  0.5451 -1.5363
10230TIP3   OH252180   5.145   1.866  12.912  0.5782 -0.3913 -0.2641
10230TIP3    H152181   5.066   1.833  12.869  0.1605 -0.3819  0.4900
10230TIP3    H252182   5.200   1.897  12.840  0.3823 -1.4345 -0.8797
10231TIP3   OH252183   3.402   1.695  16.099  0.0774 -0.2459  0.8217
10231TIP3    H152184   3.363   1.779  16.122 -0.0087 -0.6564  2.2509
10231TIP3    H252185   3.445   1.710  16.015  0.8426  1.4682  1.4946
10232TIP3   OH252186   2.974   3.884   1.298  0.7740 -0.4942 -0.4600
10232TIP3    H152187   3.049   3.843   1.255  1.4647 -1.8683  1.9904
10232TIP3    H252188   2.910   3.897   1.227  1.8958 -2.6070 -1.9091
10233TIP3   OH252189   2.713   4.106   1.342  0.3278 -0.2201 -0.4411
10233TIP3    H152190   2.730   4.014   1.359 -0.0694 -0.7691 -2.7992
10233TIP3    H252191   2.788   4.135   1.290  0.2341  0.6758 -0.0895
10234TIP3   OH252192   4.600   2.388  14.515  0.2928  0.2743 -0.5418
10234TIP3    H152193   4.691   2.400  14.542  0.3824 -0.0486 -0.6935
10234TIP3    H252194   4.566   2.476  14.503  0.0730  0.4638  1.2434
10235TIP3   OH252195   4.020   2.764   0.126  0.4093 -0.2978  0.0398
10235TIP3    H152196   4.098   2.709   0.140  0.4224 -0.1066  0.7280
10235TIP3    H252197   4.024   2.786   0.033  1.5360  0.2340  0.2000
10236TIP3   OH252198   6.715   4.559  15.813 -0.0178 -0.4507  0.0080
10236TIP3    H152199   6.674   4.537  15.896  0.4110  0.1706  0.3837
10236TIP3    H252200   6.734   4.474  15.773 -1.0902 -0.7518  0.1070
10237TIP3   OH252201   0.040   2.531   0.613  0.1535  0.1591 -0.0874
10237TIP3    H152202   0.057   2.595   0.544 -0.7139  0.4583 -0.0255
10237TIP3    H252203   0.081   2.451   0.582 -0.0316  0.3544 -0.8409
10238TIP3   OH252204   0.282   0.788  16.271 -0.3491  0.7162  0.1144
10238TIP3    H152205   0.190   0.813  16.275 -1.1698 -2.1252 -0.1516
10238TIP3    H252206   0.323   0.838  16.342 -2.7410 -0.5158  2.4451
10239TIP3   OH252207   5.253   4.064   4.639 -0.3614  0.1351 -0.6406
10239TIP3    H152208   5.183   4.053   4.704  0.1763  2.3221  0.3680
10239TIP3    H252209   5.215   4.030   4.557 -3.6262  3.5271 -0.7098
10240TIP3   OH252210   0.720   5.855   1.454 -0.2304 -0.1692 -0.1448
10240TIP3    H152211   0.711   5.768   1.416 -0.4941  0.4321 -1.4822
10240TIP3    H252212   0.645   5.904   1.420  0.4104  0.8441 -0.1351
10241TIP3   OH252213   5.121   6.275   2.149 -0.0078 -0.1097 -0.1518
10241TIP3    H152214   5.169   6.319   2.219  0.2605 -0.2994 -0.2190
10241TIP3    H252215   5.188   6.230   2.098 -0.0635  1.0376 -1.2547
10242TIP3   OH252216   2.734   5.225   0.866  0.2750  0.6854  0.3059
10242TIP3    H152217   2.648   5.257   0.840 -0.1569 -0.0110  0.8712
10242TIP3    H252218   2.796   5.285   0.823 -0.4362  0.2365 -1.3702
10243TIP3   OH252219   1.054   4.760   1.727  0.1440 -0.1412  0.0525
10243TIP3    H152220   1.010   4.765   1.642 -1.1015 -0.8945  0.6368
10243TIP3    H252221   1.144   4.736   1.707  0.1155  0.7050 -1.1223
10244TIP3   OH252222   3.688   3.913   2.804 -0.7785 -0.2381  1.0469
10244TIP3    H152223   3.741   3.979   2.759 -0.8891 -0.5753  0.4224
10244TIP3    H252224   3.731   3.830   2.785 -2.4837 -0.7013 -0.8873
10245TIP3   OH252225   4.183   0.719  17.283 -0.2304  0.4203  0.2688
10245TIP3    H152226   4.103   0.693  17.237  0.0767 -1.4217  0.7736
10245TIP3    H252227   4.177   0.677  17.368  1.4820 -0.0598  0.1614
10246TIP3   OH252228   0.459   5.577   4.092 -0.7050  0.1734  0.6420
10246TIP3    H152229   0.521   5.519   4.048  1.2654  3.4937 -1.2222
10246TIP3    H252230   0.377   5.565   4.044  0.5079  1.1427 -1.8280
10247TIP3   OH252231   5.136   6.568   2.492  0.0635 -0.2364  0.0249
10247TIP3    H152232   5.212   6.608   2.450  0.0413 -0.2583 -0.0371
10247TIP3    H252233   5.166   6.546   2.580  0.3667 -0.9632 -0.2490
10248TIP3   OH252234   3.952   5.876   1.097  0.1261 -0.6106 -0.6541
10248TIP3    H152235   3.878   5.842   1.047 -0.7879  3.1710 -2.0867
10248TIP3    H252236   3.911   5.929   1.166  1.4395  0.7390 -0.8685
10249TIP3   OH252237   3.247   2.708  12.287  0.6835  0.7313 -0.5757
10249TIP3    H152238   3.258   2.641  12.220  3.6176  0.5348  0.0506
10249TIP3    H252239   3.336   2.738  12.306 -0.2848  2.2898  1.7141
10250TIP3   OH252240   4.866   1.587  13.779 -0.5648  0.1612  0.1259
10250TIP3    H152241   4.878   1.678  13.806 -0.3321  0.8016 -2.0227
10250TIP3    H252242   4.946   1.564  13.733 -1.6404 -0.2727 -1.5948
10251TIP3   OH252243   4.508   4.365  14.146 -0.5975 -0.0793 -0.0693
10251TIP3    H152244   4.429   4.380  14.094 -0.8981  0.0185  0.4127
10251TIP3    H252245   4.519   4.270  14.148 -0.7472 -0.0965 -0.0726
10252TIP3   OH252246   3.930   5.816   4.082 -0.6360  0.4296  0.2305
10252TIP3    H152247   3.952   5.876   4.011  1.2452 -1.0908 -0.5000
10252TIP3    H252248   3.994   5.835   4.151 -1.0488  0.3530  0.6437
10253TIP3   OH252249   2.538   4.106  11.717 -0.7712  0.4116 -0.0596
10253TIP3    H152250   2.528   4.062  11.632 -0.6521 -0.4850  0.3918
10253TIP3    H252251   2.580   4.041  11.773 -1.5404  0.7382  0.9044
10254TIP3   OH252252   3.806   1.994   5.159 -0.5697  0.4654 -0.3163
10254TIP3    H152253   3.757   2.075   5.177  1.0218  0.8490  2.5916
10254TIP3    H252254   3.864   2.017   5.087 -1.6271  1.2886 -0.9162
10255TIP3   OH252255   3.650   5.314   4.246 -0.0722  0.1399  0.3298
10255TIP3    H152256   3.625   5.255   4.316 -1.9987  1.2993  0.6736
10255TIP3    H252257   3.744   5.328   4.257  0.2496 -2.2037  0.6979
10256TIP3   OH252258   3.681   6.024   0.776 -0.0499 -0.0358 -0.3608
10256TIP3    H152259   3.641   6.100   0.734 -1.6782 -0.3266  0.6205
10256TIP3    H252260   3.637   5.949   0.735  1.5678 -0.4643 -1.3447
10257TIP3   OH252261   3.893   2.017  11.876  0.4194 -0.0593 -0.0885
10257TIP3    H152262   3.803   2.002  11.903  0.4149  0.7512  0.3597
10257TIP3    H252263   3.945   1.958  11.932  0.0938 -1.3700 -1.1286
10258TIP3   OH252264   3.844   3.718   0.020 -0.0548 -0.7241  0.2899
10258TIP3    H152265   3.928   3.702   0.063  0.2019 -1.2541 -0.4004
10258TIP3    H252266   3.792   3.639   0.039 -0.4374 -0.3441  0.8186
10259TIP3   OH252267   0.181   4.825  16.012  0.1176 -0.1706  0.2114
10259TIP3    H152268   0.105   4.867  16.051 -0.4838 -0.0363 -1.0588
10259TIP3    H252269   0.158   4.732  16.007  1.0608 -0.5308  2.1330
10260TIP3   OH252270   3.179   1.995  11.628 -0.4399  0.4586 -0.2464
10260TIP3    H152271   3.091   1.961  11.644 -0.8301  1.8045  0.5733
10260TIP3    H252272   3.224   1.925  11.581 -1.4936 -0.8160  0.6119
10261TIP3   OH252273   0.096   1.082   5.894 -0.1625 -0.3776 -0.5610
10261TIP3    H152274   0.113   1.176   5.889 -0.2655 -0.2777  0.6575
10261TIP3    H252275   0.116   1.059   5.985 -2.4560 -1.0543 -0.1774
10262TIP3   OH252276   3.516   6.064  16.530 -0.2551  0.9014  0.0800
10262TIP3    H152277   3.469   6.143  16.558  1.2601  2.1400 -0.8256
10262TIP3    H252278   3.545   6.083  16.441 -0.7511 -1.0895 -0.5263
10263TIP3   OH252279   0.851   4.886   2.870 -0.3869 -0.3765 -0.6427
10263TIP3    H152280   0.783   4.953   2.881 -0.4479 -0.4566 -0.5253
10263TIP3    H252281   0.829   4.819   2.936  0.8940  0.4856  0.6891
10264TIP3   OH252282   0.219   3.378   3.292 -0.3707  0.5410  0.9420
10264TIP3    H152283   0.148   3.325   3.256  1.4701 -0.9946 -0.5758
10264TIP3    H252284   0.188   3.404   3.379 -2.9042  0.2020  0.1851
10265TIP3   OH252285   2.212   2.682  13.046 -0.1419 -0.1874  0.0188
10265TIP3    H152286   2.204   2.587  13.040  0.6916 -0.2304 -0.3944
10265TIP3    H252287   2.274   2.696  13.118 -2.1449  0.1066  1.7553
10266TIP3   OH252288   3.226   5.488   5.194  0.0022 -0.2998  0.4275
10266TIP3    H152289   3.166   5.413   5.192  0.7357 -0.8692 -1.7187
10266TIP3    H252290   3.307   5.455   5.155  1.1242  0.9703  1.6396
10267TIP3   OH252291   1.279   5.302  13.733 -0.3478 -0.4108 -0.7063
10267TIP3    H152292   1.359   5.251  13.718  2.1399  2.8788  0.4785
10267TIP3    H252293   1.238   5.308  13.647  0.7106 -2.1125 -1.3633
10268TIP3   OH252294   4.400   4.371  15.260 -0.1667  0.1225  0.3294
10268TIP3    H152295   4.362   4.315  15.193 -0.3530  0.3742  0.2264
10268TIP3    H252296   4.490   4.386  15.230  0.7266 -2.2479  1.6553
10269TIP3   OH252297   0.805   6.535  17.211  0.6703  0.7221 -0.5399
10269TIP3    H152298   0.743   6.463  17.198  0.0248  1.2695 -0.5377
10269TIP3    H252299   0.847   6.547  17.126  0.1489  0.9123 -0.7717
10270TIP3   OH252300   5.330   3.087  14.979 -0.4677  0.4284  0.3179
10270TIP3    H152301   5.309   3.081  14.885  4.5083 -0.5280 -0.8643
10270TIP3    H252302   5.304   3.003  15.015 -0.0990 -0.1429 -0.7298
10271TIP3   OH252303   1.130   2.338   2.235 -0.2144  0.0514 -0.1471
10271TIP3    H152304   1.095   2.416   2.280  0.4981  1.9393 -2.7183
10271TIP3    H252305   1.225   2.347   2.242 -0.1323 -1.0658  0.2711
10272TIP3   OH252306   0.938   4.331  15.396  0.0473 -0.5170  0.0009
10272TIP3    H152307   0.955   4.237  15.385  0.9807 -0.3701  0.0956
10272TIP3    H252308   0.894   4.357  15.315  1.4894 -0.6638 -0.8578
10273TIP3   OH252309   4.431   2.018  15.253 -0.3019 -0.2121  0.3215
10273TIP3    H152310   4.483   2.098  15.262 -0.6697  0.0646  0.0408
10273TIP3    H252311   4.492   1.954  15.215  0.0172 -0.0926  0.6260
10274TIP3   OH252312   2.500   4.918   3.605 -0.4809  0.1597 -0.1838
10274TIP3    H152313   2.430   4.854   3.615 -0.3010  0.2277  1.7272
10274TIP3    H252314   2.484   4.983   3.674  2.1667 -0.5079  1.1482
10275TIP3   OH252315   3.491   1.698   0.029  0.4546 -0.2553  0.2523
10275TIP3    H152316   3.520   1.617   0.071  0.4292  0.9340  2.6179
10275TIP3    H252317   3.570   1.750   0.020  0.2330  0.0449  0.0341
10276TIP3   OH252318   0.011   5.258   4.974 -0.3915  0.0367 -0.1169
10276TIP3    H152319   0.058   5.197   4.917  0.3069  1.1594 -0.7646
10276TIP3    H252320   0.024   5.343   4.933 -2.8600  0.3965 -0.2032
10277TIP3   OH252321   2.762   4.667   1.973  0.3796  0.1582 -0.0947
10277TIP3    H152322   2.783   4.596   2.034  0.0994  0.5624  0.4721
10277TIP3    H252323   2.811   4.645   1.893 -0.9901 -1.5659 -0.5007
10278TIP3   OH252324   4.458   3.908  12.461  0.6558  0.6412 -0.2268
10278TIP3    H152325   4.499   3.962  12.393  1.3928  0.1468 -0.1818
10278TIP3    H252326   4.515   3.832  12.468  1.7125  1.6173  2.3692
10279TIP3   OH252327   5.738   0.062   3.832 -0.6279 -0.0670  0.6310
10279TIP3    H152328   5.832   0.070   3.812 -0.4667  1.9333  2.0026
10279TIP3    H252329   5.722  -0.032   3.835  0.8972 -0.4546 -1.5728
10280TIP3   OH252330   5.210   2.056   1.978 -0.0358  0.3774  0.2454
10280TIP3    H152331   5.156   1.981   2.005 -0.1950  0.4234  0.0575
10280TIP3    H252332   5.152   2.110   1.925  0.9152 -0.9554 -2.2637
10281TIP3   OH252333   1.119   0.755   3.349  1.2162  0.0063 -0.1426
10281TIP3    H152334   1.099   0.828   3.407  0.5486 -1.8373  2.0109
10281TIP3    H252335   1.047   0.753   3.286 -0.0005 -0.2573  1.2500
10282TIP3   OH252336   5.102   2.049   0.200  0.1434 -0.0006  0.5934
10282TIP3    H152337   5.187   2.054   0.156 -0.0510 -1.4962  0.0397
10282TIP3    H252338   5.099   1.962   0.239 -0.0865  0.9556  2.8187
10283TIP3   OH252339   3.190   3.873  11.491  0.3844 -0.5782 -0.4067
10283TIP3    H152340   3.122   3.812  11.461  0.6253 -1.2023  0.2778
10283TIP3    H252341   3.141   3.949  11.524  0.0690 -0.5184 -1.0042
10284TIP3   OH252342   2.478   3.887  15.183 -0.1181  0.3602  0.1764
10284TIP3    H152343   2.553   3.927  15.227 -0.2549 -1.9729  2.6896
10284TIP3    H252344   2.512   3.859  15.098  1.1757  1.5785  0.2733
10285TIP3   OH252345   2.832   0.701   4.808  0.1317 -0.4002 -0.5232
10285TIP3    H152346   2.895   0.640   4.846 -1.1536  0.4464  3.1404
10285TIP3    H252347   2.749   0.653   4.807 -0.1678  0.1120 -0.8466
10286TIP3   OH252348   5.283   6.463   1.823  0.2936  0.3106  0.2939
10286TIP3    H152349   5.333   6.462   1.905 -0.9229 -0.1828  1.0333
10286TIP3    H252350   5.202   6.417   1.843 -0.4561  1.0680 -0.9152
10287TIP3   OH252351   0.360   2.546   1.346 -0.5810 -0.6321  0.3489
10287TIP3    H152352   0.389   2.577   1.431  0.0575  1.3246 -0.5527
10287TIP3    H252353   0.440   2.538   1.294 -0.8323 -2.9902  0.2849
10288TIP3   OH252354   1.444   5.455  13.947 -0.2277  0.0585  0.0563
10288TIP3    H152355   1.504   5.409  14.006 -0.9645 -0.9414  0.0339
10288TIP3    H252356   1.460   5.416  13.861  0.1917  0.8740 -0.2371
10289TIP3   OH252357   6.131   4.225   6.198 -0.2275  0.1741  0.8508
10289TIP3    H152358   6.210   4.230   6.252 -0.8731  1.8018  1.6702
10289TIP3    H252359   6.160   4.185   6.117  1.2196 -0.2468  1.5596
10290TIP3   OH252360   4.245   5.191   1.690  0.4613  0.2154  0.1915
10290TIP3    H152361   4.156   5.179   1.657 -0.2594  1.1075  1.7469
10290TIP3    H252362   4.298   5.210   1.612 -0.9586  1.0444 -0.5822
10291TIP3   OH252363   0.956   2.894   0.247 -0.3817 -0.5179 -0.0223
10291TIP3    H152364   0.875   2.946   0.248 -0.4285 -0.5946  0.4251
10291TIP3    H252365   0.950   2.841   0.168 -0.0233  0.6511 -0.8314
10292TIP3   OH252366   5.124   3.986  13.599 -0.1771 -0.1564 -0.0086
10292TIP3    H152367   5.064   4.058  13.619 -0.3296 -0.8592  2.1625
10292TIP3    H252368   5.193   3.994  13.665  0.5603 -1.1299 -0.6567
10293TIP3   OH252369   6.692   2.056   2.723  0.0482  0.6818 -0.1794
10293TIP3    H152370   6.736   2.026   2.803 -0.1224  1.1160  0.0749
10293TIP3    H252371   6.653   2.140   2.746 -0.1154  0.7478 -0.6817
10294TIP3   OH252372   5.891   6.334  14.020  0.0122 -0.6878  0.1975
10294TIP3    H152373   5.896   6.241  14.042  0.6408 -0.3018  1.6685
10294TIP3    H252374   5.836   6.336  13.941 -0.8303 -2.2139  0.7135
10295TIP3   OH252375   5.327   6.688  12.898  0.4013 -0.5459 -0.7832
10295TIP3    H152376   5.418   6.704  12.924  0.6207 -0.5242 -1.5644
10295TIP3    H252377   5.332   6.657  12.808 -0.3159 -1.2888 -0.5704
10296TIP3   OH252378   6.418   3.857  10.903  0.5005  0.4474  0.0064
10296TIP3    H152379   6.356   3.805  10.852  0.1411  0.1263  0.7572
10296TIP3    H252380   6.441   3.929  10.846  0.1658  0.0460 -0.6432
10297TIP3   OH252381   3.804   4.397   5.355  0.3667 -0.0005 -0.4278
10297TIP3    H152382   3.808   4.482   5.397 -0.1876 -0.0072 -0.3593
10297TIP3    H252383   3.745   4.410   5.281  0.0152 -0.4081 -0.2210
10298TIP3   OH252384   2.349   1.900  17.194  0.3901  0.3143 -0.1679
10298TIP3    H152385   2.288   1.841  17.150 -0.2738 -0.2340  1.4322
10298TIP3    H252386   2.305   1.986  17.193 -0.1221  0.0659  0.3802
10299TIP3   OH252387   6.185   6.055   5.057 -0.5038  0.1841 -0.4623
10299TIP3    H152388   6.204   5.972   5.101  2.4634  0.2398 -1.5030
10299TIP3    H252389   6.104   6.039   5.008 -0.4654 -1.8028  0.0928
10300TIP3   OH252390   3.080   5.509  10.913 -0.4617  0.1491 -0.0743
10300TIP3    H152391   3.012   5.544  10.855 -1.8613 -0.6715  1.0139
10300TIP3    H252392   3.122   5.440  10.863 -0.0944  0.9761 -0.9330
10301TIP3   OH252393   4.667   5.342   3.224  0.1486  0.0887  0.4260
10301TIP3    H152394   4.598   5.291   3.266 -1.2102  1.4815 -0.0880
10301TIP3    H252395   4.707   5.391   3.296  0.4515 -0.5444  0.6890
10302TIP3   OH252396   2.753   0.446  14.347  0.4797  0.1469 -0.3367
10302TIP3    H152397   2.705   0.373  14.387  2.1398 -2.2295 -2.5969
10302TIP3    H252398   2.839   0.445  14.389  1.2109 -0.4906 -1.8309
10303TIP3   OH252399   1.155   4.855  15.434 -0.0883 -0.0722  0.6118
10303TIP3    H152400   1.163   4.905  15.515  0.0398 -0.4423  0.8299
10303TIP3    H252401   1.208   4.777  15.449 -1.5159 -1.0211  0.8625
10304TIP3   OH252402   5.939   2.296  17.081 -1.0945 -0.2573  0.1786
10304TIP3    H152403   5.923   2.209  17.117  1.1726  0.0421  2.0234
10304TIP3    H252404   5.878   2.353  17.128 -0.3552 -0.3608  1.2743
10305TIP3   OH252405   5.843   6.605  11.433  0.1106 -0.3698  0.2177
10305TIP3    H152406   5.829   6.699  11.419 -4.5612 -0.7683  1.2417
10305TIP3    H252407   5.814   6.590  11.523  1.7977 -2.6361  0.4097
10306TIP3   OH252408   1.762   4.486  13.816  0.4740  0.3064 -0.5177
10306TIP3    H152409   1.835   4.450  13.866 -0.3693 -0.7546 -0.0170
10306TIP3    H252410   1.748   4.573  13.852  2.7312  1.2865 -1.9322
10307TIP3   OH252411   0.290   3.219   3.763  0.4019  0.3315  0.0557
10307TIP3    H152412   0.323   3.284   3.826 -1.1663  0.1374  1.1262
10307TIP3    H252413   0.262   3.145   3.818 -2.1295  0.6412 -0.7267
10308TIP3   OH252414   0.119   1.277   5.498 -0.1019 -0.0319  0.2988
10308TIP3    H152415   0.117   1.292   5.593  1.3386  0.3329  0.2789
10308TIP3    H252416   0.182   1.206   5.486  1.7910  1.7548 -0.6012
10309TIP3   OH252417   2.443   2.034   3.878  0.3630  0.0418  0.1110
10309TIP3    H152418   2.356   2.003   3.901 -0.2046  2.5594  1.5547
10309TIP3    H252419   2.440   2.129   3.892  2.9692  0.3463 -0.9727
10310TIP3   OH252420   5.090   0.348  14.736  0.5190  0.3574  0.3965
10310TIP3    H152421   5.092   0.434  14.695  1.1713 -0.0671 -0.4734
10310TIP3    H252422   5.180   0.333  14.766  0.7304 -0.6130 -0.7085
10311TIP3   OH252423   6.016   0.165  10.913  0.6437  0.5975 -0.7079
10311TIP3    H152424   5.999   0.252  10.878 -0.3520  0.8945  0.4941
10311TIP3    H252425   5.929   0.125  10.922  0.9344  0.3064  0.8417
10312TIP3   OH252426   6.491   1.409   4.120  0.2716 -0.0046 -0.1523
10312TIP3    H152427   6.446   1.366   4.047 -0.2283 -1.4371  0.9872
10312TIP3    H252428   6.544   1.340   4.160  2.2872  1.2969 -0.5071
10313TIP3   OH252429   5.680   2.268  11.366  0.0521 -0.5639  0.1309
10313TIP3    H152430   5.681   2.347  11.313 -0.5421  1.2917  2.7938
10313TIP3    H252431   5.591   2.234  11.359  0.9166 -2.4007 -2.9164
10314TIP3   OH252432   2.742   5.276  15.074  0.0717  0.0018  0.1444
10314TIP3    H152433   2.758   5.314  15.160  0.4754  0.5938 -0.1883
10314TIP3    H252434   2.770   5.343  15.012  1.3824 -1.0792 -0.4553
10315TIP3   OH252435   5.980   5.737   1.300  0.3042  0.1310 -0.0489
10315TIP3    H152436   6.017   5.661   1.346  2.1540  1.3382  0.4917
10315TIP3    H252437   6.013   5.730   1.210  0.4376  0.2512 -0.0106
10316TIP3   OH252438   4.053   1.100  16.563 -0.8065 -0.7869 -0.8326
10316TIP3    H152439   4.066   1.030  16.627 -0.5979  2.1841  2.5392
10316TIP3    H252440   4.139   1.142  16.556 -1.5227  0.6729 -0.9188
10317TIP3   OH252441   3.556   5.162  15.364  0.2634 -1.2152 -0.0437
10317TIP3    H152442   3.472   5.133  15.328  0.0242 -0.8096  0.1847
10317TIP3    H252443   3.553   5.257  15.358 -0.9539 -0.9501  3.5710
10318TIP3   OH252444   2.720   5.314   3.774  0.1606  0.5003 -0.3663
10318TIP3    H152445   2.669   5.393   3.753 -0.6636  0.0511 -0.0790
10318TIP3    H252446   2.726   5.267   3.691 -0.5342  0.1917 -0.2449
10319TIP3   OH252447   2.950   1.091  14.081  0.6651  0.4723 -0.5404
10319TIP3    H152448   3.010   1.026  14.045  1.0472  1.4413 -1.6637
10319TIP3    H252449   2.971   1.172  14.035  0.4044  1.4758  1.0757
10320TIP3   OH252450   2.123   0.270   2.925 -0.4298  0.3353  0.0903
10320TIP3    H152451   2.108   0.238   2.836 -2.0743  1.9602 -0.2467
10320TIP3    H252452   2.190   0.211   2.960  0.6190 -0.0339 -2.3772
10321TIP3   OH252453   5.912   2.941   1.149  0.5678  0.5519 -0.1292
10321TIP3    H152454   5.956   2.857   1.140  0.2867  0.5472 -1.6632
10321TIP3    H252455   5.967   3.003   1.101 -0.0602  0.9179 -0.3992
10322TIP3   OH252456   5.683   1.525  15.981 -0.6226 -0.1800  0.6362
10322TIP3    H152457   5.688   1.613  15.943  0.2591  0.3824  2.0108
10322TIP3    H252458   5.756   1.477  15.941  0.7412  0.6193  2.1000
10323TIP3   OH252459   0.279   2.711  12.278  0.2829  0.2630 -0.5036
10323TIP3    H152460   0.348   2.680  12.220 -0.4726 -0.1938 -1.1769
10323TIP3    H252461   0.265   2.638  12.340 -0.2806 -0.0487 -0.9916
10324TIP3   OH252462   0.569   4.253  13.463  0.1241 -0.5406 -0.3278
10324TIP3    H152463   0.547   4.295  13.546 -1.3188 -2.4730  0.3230
10324TIP3    H252464   0.597   4.324  13.406 -0.0426  0.9715  1.4406
10325TIP3   OH252465   4.539   5.696   5.623  0.5508  0.1341  0.4893
10325TIP3    H152466   4.523   5.612   5.666  0.7176  1.2314  2.7547
10325TIP3    H252467   4.597   5.743   5.683  2.1271  1.0924 -1.7190
10326TIP3   OH252468   2.434   1.699  11.609  0.1084 -0.6905  0.7496
10326TIP3    H152469   2.413   1.782  11.567  0.8142 -0.6210  0.5364
10326TIP3    H252470   2.352   1.650  11.607 -0.7994  0.6638  2.4301
10327TIP3   OH252471   2.694   3.881   2.317  0.9624 -0.5549  0.0068
10327TIP3    H152472   2.648   3.841   2.390 -0.4368 -0.0081 -0.5475
10327TIP3    H252473   2.759   3.816   2.290  1.5873 -0.7068  1.8001
10328TIP3   OH252474   2.798   5.025   5.084  0.1578 -0.2702  0.6779
10328TIP3    H152475   2.840   5.012   5.169  1.6721 -0.2736 -0.0462
10328TIP3    H252476   2.719   5.075   5.103 -0.3252 -1.5709  2.2667
10329TIP3   OH252477   2.167   0.491   4.106  0.0766  0.3876  0.2939
10329TIP3    H152478   2.134   0.413   4.151  0.9796  0.5930  1.3080
10329TIP3    H252479   2.088   0.542   4.087 -0.7833 -1.8064 -2.4150
10330TIP3   OH252480   4.701   6.338  13.449 -0.2525  0.7187  0.0303
10330TIP3    H152481   4.622   6.293  13.479  0.5493  0.2185  1.4164
10330TIP3    H252482   4.677   6.374  13.364 -1.7126 -0.1551  0.0588
10331TIP3   OH252483   3.841   4.623   5.500 -0.7308 -0.0183  0.8598
10331TIP3    H152484   3.815   4.714   5.483  2.1226  0.5927 -0.6514
10331TIP3    H252485   3.933   4.629   5.525 -0.6533 -2.4647  1.2499
10332TIP3   OH252486   0.127   5.087   2.625 -0.4860 -0.1375 -0.1208
10332TIP3    H152487   0.118   5.028   2.550 -0.2558  0.3718 -0.5489
10332TIP3    H252488   0.111   5.031   2.701 -0.0862 -0.7935 -0.5175
10333TIP3   OH252489   1.095   2.247   1.247 -0.1765 -0.0802  0.2716
10333TIP3    H152490   1.151   2.236   1.324  0.1084  0.5354  0.1619
10333TIP3    H252491   1.063   2.337   1.254 -0.4245 -0.1362 -0.1430
10334TIP3   OH252492   1.066   2.025  12.538 -0.2253 -0.0665 -0.1814
10334TIP3    H152493   1.129   2.090  12.507 -0.0910 -0.4131 -0.6394
10334TIP3    H252494   1.024   1.993  12.459 -0.2892 -0.5376  0.0431
10335TIP3   OH252495   5.399   3.810   3.509  0.0763 -0.4914 -0.4745
10335TIP3    H152496   5.428   3.890   3.466  0.9223 -0.1749  0.6434
10335TIP3    H252497   5.375   3.837   3.597  1.1013 -1.5788  0.1571
10336TIP3   OH252498   0.502   1.578   4.393 -0.0948  0.0142 -0.0271
10336TIP3    H152499   0.449   1.549   4.319  2.1182 -0.0646 -1.6302
10336TIP3    H252500   0.506   1.673   4.384  0.8312 -0.0630 -0.4807
10337TIP3   OH252501   4.946   2.705  14.660  0.6666 -0.2935 -0.7578
10337TIP3    H152502   5.003   2.716  14.584  0.0481  1.9399 -0.9466
10337TIP3    H252503   4.924   2.795  14.687  3.2947 -0.8845  3.9253
10338TIP3   OH252504   5.330   4.242  10.957  0.5792 -1.0565 -0.5269
10338TIP3    H152505   5.388   4.288  11.018  0.6228 -1.1018 -0.5343
10338TIP3    H252506   5.342   4.150  10.978  1.1684 -1.1149 -1.1204
10339TIP3   OH252507   0.811   4.917   1.406 -0.2584 -0.3496 -0.5793
10339TIP3    H152508   0.830   4.956   1.491  2.6684 -0.6158 -1.0579
10339TIP3    H252509   0.869   4.963   1.345  0.0330 -2.3733 -1.8820
10340TIP3   OH252510   5.725   4.308  15.310  0.4093  0.1647  0.0274
10340TIP3    H152511   5.758   4.342  15.394 -1.0831  1.6827  0.0237
10340TIP3    H252512   5.639   4.271  15.331  0.4909 -0.4248 -0.6452
10341TIP3   OH252513   4.116   1.024   0.416  0.1090  0.1111 -0.1975
10341TIP3    H152514   4.174   1.031   0.492  2.4155 -2.5311 -1.6156
10341TIP3    H252515   4.105   1.114   0.385  1.6276  0.8879  1.4450
10342TIP3   OH252516   4.322   2.418  14.854  0.0791  0.1112  0.1713
10342TIP3    H152517   4.307   2.376  14.770  0.8191 -1.5546  0.8586
10342TIP3    H252518   4.398   2.474  14.839  1.2243 -1.4339  0.1605
10343TIP3   OH252519   5.743   5.892  15.518  0.2225 -0.1376 -0.0790
10343TIP3    H152520   5.829   5.930  15.535  0.1750  0.3967 -1.0266
10343TIP3    H252521   5.684   5.967  15.510 -0.1763 -0.4697 -0.3099
10344TIP3   OH252522   3.177   6.221   5.538  0.1546  0.3198  0.4307
10344TIP3    H152523   3.103   6.171   5.573  0.2158 -0.1360 -0.0898
10344TIP3    H252524   3.255   6.174   5.569  0.2013 -0.5165 -0.9451
10345TIP3   OH252525   6.302   6.550  17.230 -0.0530 -0.2294 -0.0410
10345TIP3    H152526   6.356   6.481  17.191  1.4384  0.6122  0.5023
10345TIP3    H252527   6.361   6.594  17.291 -0.3902  2.7726 -1.7968
10346TIP3   OH252528   1.780   3.378   2.200 -0.3606 -0.2390  0.1837
10346TIP3    H152529   1.721   3.359   2.127 -0.1582 -0.3145  0.0409
10346TIP3    H252530   1.861   3.332   2.178 -0.2204 -0.0665  0.3408
10347TIP3   OH252531   2.034   1.035  11.614  0.0346  0.0292 -0.3893
10347TIP3    H152532   2.110   1.091  11.597 -0.1546  0.2615 -0.4606
10347TIP3    H252533   2.057   0.988  11.694 -0.1613  0.8299  0.1436
10348TIP3   OH252534   1.238   2.974  10.666  0.2595  0.7994  0.4138
10348TIP3    H152535   1.187   2.929  10.733  0.1384  0.4911  0.1159
10348TIP3    H252536   1.267   3.055  10.708 -0.8811  1.2117  0.4242
10349TIP3   OH252537   5.547   4.527  14.729 -0.4478  0.0374 -0.3203
10349TIP3    H152538   5.491   4.458  14.765 -1.2489  1.1634  0.6191
10349TIP3    H252539   5.607   4.549  14.799  0.1190 -0.0255 -0.7793
10350TIP3   OH252540   5.645   3.898   0.724  0.0394  0.4579  0.7764
10350TIP3    H152541   5.561   3.901   0.678 -0.0246  0.7670  0.9173
10350TIP3    H252542   5.703   3.951   0.669  0.7208 -1.5500 -0.5101
10351TIP3   OH252543   2.205   1.009   1.502  0.4533  0.0260 -0.4198
10351TIP3    H152544   2.296   1.036   1.486  1.0637 -1.7121 -0.0720
10351TIP3    H252545   2.212   0.915   1.522 -1.3214  0.0894  0.5617
10352TIP3   OH252546   6.036   0.726  14.290 -0.4822 -0.5831 -0.5290
10352TIP3    H152547   6.107   0.739  14.352  0.8146 -1.4531 -1.7912
10352TIP3    H252548   5.964   0.779  14.324  1.1207  1.2012  0.1879
10353TIP3   OH252549   3.024   6.519  12.201 -0.2158  0.3183  0.2431
10353TIP3    H152550   2.970   6.457  12.152  1.2683 -0.0144 -1.0093
10353TIP3    H252551   2.983   6.604  12.186  1.2060  0.5101 -3.1517
10354TIP3   OH252552   2.425   5.593   3.432 -0.6617 -0.4399  0.7211
10354TIP3    H152553   2.468   5.511   3.457 -3.0521 -1.1017  2.8136
10354TIP3    H252554   2.437   5.598   3.337  2.5957 -1.3828  1.0006
10355TIP3   OH252555   4.366   4.048  12.739 -0.3298  0.3845 -1.1278
10355TIP3    H152556   4.354   4.007  12.654  1.2037 -0.7147 -0.8453
10355TIP3    H252557   4.451   4.093  12.733  0.7378 -1.3420  0.4114
10356TIP3   OH252558   6.086   3.981   5.675  0.3174  0.0436  0.6384
10356TIP3    H152559   6.176   4.013   5.676  0.5587 -0.6499  0.9876
10356TIP3    H252560   6.034   4.057   5.648  0.8350  0.8672  1.9186
10357TIP3   OH252561   3.585   2.674   3.187  0.3575 -0.3015 -0.1821
10357TIP3    H152562   3.501   2.699   3.225  0.9368  0.2914  0.7262
10357TIP3    H252563   3.650   2.715   3.244  1.2442  0.0821 -1.4546
10358TIP3   OH252564   4.723   3.705   0.459  0.3213  0.3051 -0.0293
10358TIP3    H152565   4.729   3.615   0.491 -0.2076  0.0947 -0.5210
10358TIP3    H252566   4.766   3.702   0.373  2.0860  0.9492  0.8051
10359TIP3   OH252567   6.791   0.293  13.637  0.2843 -0.3328  0.2983
10359TIP3    H152568   6.707   0.321  13.674 -0.2182 -0.3113 -0.8394
10359TIP3    H252569   6.834   0.375  13.611 -0.3374 -0.4743 -1.2209
10360TIP3   OH252570   3.554   2.646   4.295  0.1767  0.3370  0.3176
10360TIP3    H152571   3.623   2.704   4.326 -0.2668  1.1562 -0.2073
10360TIP3    H252572   3.512   2.614   4.375  0.4898  0.6634  0.6114
10361TIP3   OH252573   4.580   1.238   5.149 -0.2823  0.3738 -0.5882
10361TIP3    H152574   4.525   1.271   5.221  1.7021 -1.2721  1.7833
10361TIP3    H252575   4.525   1.173   5.106 -0.2973 -1.2026  1.6928
10362TIP3   OH252576   6.191   5.769  11.951 -0.2845  0.0657  0.2119
10362TIP3    H152577   6.276   5.742  11.987 -0.2094  0.8484  0.6217
10362TIP3    H252578   6.205   5.771  11.856  0.0975  0.0014  0.2649
10363TIP3   OH252579   2.835   5.710  10.912  0.1029  0.2945  0.1280
10363TIP3    H152580   2.799   5.626  10.941  2.8968 -0.4909  1.4719
10363TIP3    H252581   2.823   5.768  10.988 -1.8389  1.1613 -0.8043
10364TIP3   OH252582   3.030   1.154   4.272 -0.1722 -0.4300  0.0811
10364TIP3    H152583   3.075   1.121   4.193 -1.9057 -2.6326 -0.0361
10364TIP3    H252584   2.988   1.235   4.243  1.0393 -0.0459 -0.6592
10365TIP3   OH252585   1.557   4.203  15.252  0.5614 -0.3358  0.1630
10365TIP3    H152586   1.565   4.190  15.157 -1.0302  1.2782 -0.2172
10365TIP3    H252587   1.477   4.254  15.262  0.7715 -0.4197  2.3864
10366TIP3   OH252588   5.384   4.424   4.238 -0.6552  1.6622  0.3678
10366TIP3    H152589   5.433   4.501   4.212 -1.0744  1.6427 -0.4892
10366TIP3    H252590   5.323   4.455   4.304  0.0886  1.8026  0.9953
10367TIP3   OH252591   0.524   5.866   4.259  0.5268  0.1246 -0.3148
10367TIP3    H152592   0.505   5.853   4.166 -0.6097  0.8376 -0.1843
10367TIP3    H252593   0.467   5.938   4.286  0.2830 -0.5963  1.1315
10368TIP3   OH252594   0.683   0.375  12.183  0.4825  0.2323  0.0199
10368TIP3    H152595   0.661   0.320  12.108 -1.8250  0.8753  0.1819
10368TIP3    H252596   0.622   0.448  12.178  0.6612  0.5709  2.2217
10369TIP3   OH252597   4.643   0.114   3.267 -0.0246  0.3654 -0.1669
10369TIP3    H152598   4.646   0.020   3.246 -0.8211  0.6066 -1.4014
10369TIP3    H252599   4.733   0.144   3.254 -0.1708  0.1796 -1.8354
10370TIP3   OH252600   0.543   0.192   6.111  0.6361  0.1914 -0.6297
10370TIP3    H152601   0.497   0.259   6.163  0.8569  0.5960 -0.9558
10370TIP3    H252602   0.588   0.138   6.177  2.3781  1.7848 -0.4859
10371TIP3   OH252603   0.003   0.336  15.561 -0.3091 -0.1042 -0.0862
10371TIP3    H152604   0.017   0.329  15.656  0.2218  1.2011 -0.0575
10371TIP3    H252605   0.037   0.422  15.538 -1.2554 -0.0426 -1.3287
10372TIP3   OH252606   0.069   3.502   2.549 -0.2589 -0.3354 -0.1629
10372TIP3    H152607   0.120   3.455   2.483 -0.8156  0.1896 -0.9861
10372TIP3    H252608   0.121   3.580   2.568  0.1193 -0.7144  0.3567
10373TIP3   OH252609   2.512   2.533   4.394 -0.8801  0.1930  0.0593
10373TIP3    H152610   2.600   2.497   4.406 -0.3970  0.3531 -2.6134
10373TIP3    H252611   2.482   2.554   4.482  1.8785  0.4329  0.9886
10374TIP3   OH252612   1.708   5.158  11.964  0.4998  0.2175 -0.7416
10374TIP3    H152613   1.715   5.176  11.871 -0.7955  2.0756 -0.5073
10374TIP3    H252614   1.614   5.153  11.980  0.6516  1.6174  0.7511
10375TIP3   OH252615   3.494   0.303  12.085  0.0483 -0.1595  0.0500
10375TIP3    H152616   3.565   0.343  12.135 -0.2263  1.3233 -0.7440
10375TIP3    H252617   3.419   0.305  12.144 -0.3930  1.9977 -0.5333
10376TIP3   OH252618   4.864   1.544  13.407  0.7341 -0.2487  0.0940
10376TIP3    H152619   4.806   1.611  13.370 -1.2602 -1.8545  0.1961
10376TIP3    H252620   4.939   1.593  13.439 -0.2319  1.8354 -0.6886
10377TIP3   OH252621   6.556   5.605  13.144  0.5494 -0.0854  0.1207
10377TIP3    H152622   6.496   5.542  13.105  1.8111 -0.3483 -1.4493
10377TIP3    H252623   6.547   5.684  13.091  1.4820 -0.0837 -0.0524
10378TIP3   OH252624   5.975   6.537  16.512  0.1949  0.3820  0.0400
10378TIP3    H152625   5.970   6.597  16.586 -0.2469 -0.3260  0.5898
10378TIP3    H252626   5.913   6.467  16.533  3.0621 -1.9812  0.9831
10379TIP3   OH252627   0.976   0.606  15.286  0.3388 -0.3825  0.1636
10379TIP3    H152628   0.924   0.626  15.209 -1.5275 -1.1558  1.1687
10379TIP3    H252629   0.963   0.681  15.344 -0.8369 -1.2032  0.9916
10380TIP3   OH252630   1.696   3.764  12.911  0.3029  0.3295  0.4598
10380TIP3    H152631   1.665   3.820  12.840  2.2767 -1.4674 -1.9562
10380TIP3    H252632   1.792   3.766  12.902  0.5735 -0.0421  3.0166
10381TIP3   OH252633   4.242   0.046   5.196 -0.5880 -0.3589  0.5094
10381TIP3    H152634   4.272   0.106   5.264 -3.9034  0.2629  1.4899
10381TIP3    H252635   4.212  -0.031   5.245 -1.7318 -0.4535 -0.3364
10382TIP3   OH252636   1.115   0.835   5.317  1.0797 -0.3621 -0.2127
10382TIP3    H152637   1.168   0.869   5.389  1.1908  0.2568 -0.5802
10382TIP3    H252638   1.042   0.790   5.360  2.1385 -1.6081  0.2972
10383TIP3   OH252639   6.120   2.492  16.098 -0.0431 -0.3210 -0.7296
10383TIP3    H152640   6.215   2.487  16.113 -0.1847  0.1601  0.3435
10383TIP3    H252641   6.108   2.451  16.012  1.0078 -1.3744 -0.3941
10384TIP3   OH252642   1.110   6.745  15.314 -0.2703  0.2879 -0.6326
10384TIP3    H152643   1.046   6.798  15.363 -1.9331  0.1159 -2.5219
10384TIP3    H252644   1.166   6.707  15.381 -1.6879  1.0631  1.0466
10385TIP3   OH252645   5.594   0.647   3.895  0.0865 -0.3061  0.0724
10385TIP3    H152646   5.650   0.713   3.856 -0.7257 -0.8949 -2.1405
10385TIP3    H252647   5.653   0.595   3.950  0.7376  2.1899  1.8444
10386TIP3   OH252648   5.246   5.769   1.924  0.0813 -0.4312  0.0667
10386TIP3    H152649   5.160   5.800   1.895 -0.3899 -0.7348  1.1363
10386TIP3    H252650   5.304   5.845   1.914 -0.4745 -0.0086  0.0738
10387TIP3   OH252651   4.597   3.451   3.496 -0.0687  0.5250  0.0169
10387TIP3    H152652   4.576   3.544   3.505 -0.9030  0.0913  3.0028
10387TIP3    H252653   4.677   3.440   3.547  2.1205  0.2345 -3.2814
10388TIP3   OH252654   1.133   5.068  15.914 -0.4005 -0.1167  0.1625
10388TIP3    H152655   1.106   5.116  15.836 -0.7844  0.1111  0.4336
10388TIP3    H252656   1.210   5.018  15.886 -2.0387 -2.0352 -1.0713
10389TIP3   OH252657   3.971   6.650   1.772 -0.1718  0.1422  0.2745
10389TIP3    H152658   4.017   6.656   1.688 -0.0909  0.5411  0.3475
10389TIP3    H252659   4.040   6.662   1.837 -0.4022  0.8502  0.3816
10390TIP3   OH252660   5.814   5.331  14.952 -0.4985 -0.1342 -0.5382
10390TIP3    H152661   5.789   5.365  14.866 -0.9776 -1.3361 -0.8874
10390TIP3    H252662   5.826   5.237  14.938 -0.2870 -0.2895  0.6433
10391TIP3   OH252663   0.607   0.191  16.766  0.4144 -0.3027  0.0193
10391TIP3    H152664   0.592   0.159  16.855 -1.1092  3.2957  1.1593
10391TIP3    H252665   0.682   0.250  16.774  1.1060 -0.9715 -1.3623
10392TIP3   OH252666   4.448   3.650  15.662  0.4269  0.1149  0.0922
10392TIP3    H152667   4.374   3.647  15.722  0.9726  1.2162  0.8271
10392TIP3    H252668   4.413   3.686  15.581 -0.0815 -0.4270  0.0687
10393TIP3   OH252669   6.744   5.269   4.661 -0.0490 -0.1717  0.0597
10393TIP3    H152670   6.703   5.309   4.584  2.2936 -1.6631 -2.0115
10393TIP3    H252671   6.807   5.335   4.691 -0.4328  0.1036  0.2714
10394TIP3   OH252672   1.472   1.410   3.827 -0.6435 -0.2867 -0.0896
10394TIP3    H152673   1.477   1.342   3.893  1.6676 -0.7036 -0.6307
10394TIP3    H252674   1.441   1.366   3.748 -0.4156 -0.4317 -0.0964
10395TIP3   OH252675   4.118   1.670   5.135 -0.2690 -0.0796  0.5481
10395TIP3    H152676   4.130   1.712   5.050  0.6527  1.2558  1.3152
10395TIP3    H252677   4.025   1.684   5.154 -0.5464 -0.6331 -0.3581
10396TIP3   OH252678   5.842   6.237   5.670 -0.3852 -0.1485  0.0458
10396TIP3    H152679   5.821   6.163   5.612 -2.5697  0.7750 -0.4048
10396TIP3    H252680   5.847   6.198   5.757  2.9162 -1.5549 -0.7169
10397TIP3   OH252681   2.742   4.071  11.245  0.1890  0.1769  0.9213
10397TIP3    H152682   2.668   4.084  11.304 -1.4465 -0.3180 -0.9679
10397TIP3    H252683   2.718   3.993  11.194  2.5159 -0.6428  1.0293
10398TIP3   OH252684   4.454   0.173  11.631 -0.6332  0.5644  0.1691
10398TIP3    H152685   4.472   0.240  11.696 -1.8930  0.1674  0.9250
10398TIP3    H252686   4.531   0.116  11.634  0.8331  2.3944 -1.0561
10399TIP3   OH252687   6.552   3.650   2.029  0.2779  0.2530 -0.1147
10399TIP3    H152688   6.530   3.593   1.955  0.4775  0.2407 -0.1637
10399TIP3    H252689   6.502   3.614   2.102 -0.0720  0.3820 -0.2872
10400TIP3   OH252690   0.518   4.244   2.928  0.3172  0.2057  0.4421
10400TIP3    H152691   0.487   4.241   2.837  1.1189 -2.4567  0.1945
10400TIP3    H252692   0.504   4.155   2.960 -1.3798  1.5029  3.4472
10401TIP3   OH252693   1.821   5.877   2.884 -0.2258  0.0494  0.1717
10401TIP3    H152694   1.882   5.901   2.814 -1.4161 -2.2147 -1.7166
10401TIP3    H252695   1.875   5.834   2.950  0.5858  0.2447 -0.3675
10402TIP3   OH252696   5.351   6.583   0.255 -0.3990 -0.0250 -0.2192
10402TIP3    H152697   5.304   6.636   0.190  2.1513  0.5404 -1.6549
10402TIP3    H252698   5.363   6.641   0.330  0.9330  0.9426 -1.1507
10403TIP3   OH252699   2.143   4.350   1.825  0.6476  0.5015 -0.4002
10403TIP3    H152700   2.165   4.286   1.893  0.0700 -1.5980 -2.0965
10403TIP3    H252701   2.049   4.365   1.835  0.4858 -0.1038 -0.9406
10404TIP3   OH252702   1.943   1.642  16.932 -0.1874 -0.1266  0.0192
10404TIP3    H152703   1.944   1.632  16.837  0.2586 -0.7324  0.0814
10404TIP3    H252704   1.972   1.557  16.965  0.5367  0.3620  0.6751
10405TIP3   OH252705   2.143   6.753  16.678 -0.3941 -0.0205 -0.4660
10405TIP3    H152706   2.177   6.751  16.589 -0.4852  1.6111 -0.5603
10405TIP3    H252707   2.218   6.781  16.732 -1.3656  2.9421 -0.5881
10406TIP3   OH252708   4.504   4.769   2.863  0.5495  0.0830  0.1895
10406TIP3    H152709   4.542   4.773   2.950  1.9782 -0.2685 -0.4098
10406TIP3    H252710   4.512   4.677   2.837 -1.6737 -0.2170  0.4671
10407TIP3   OH252711   4.334   2.444  11.994  0.1191 -0.0018 -0.2097
10407TIP3    H152712   4.394   2.417  12.063 -1.6305 -0.6066  1.1143
10407TIP3    H252713   4.265   2.492  12.040 -0.0833  1.2364 -1.7755
10408TIP3   OH252714   2.077   3.591   2.808  0.0408 -0.1015 -0.5695
10408TIP3    H152715   2.167   3.620   2.827 -0.2076  0.4638 -0.2205
10408TIP3    H252716   2.065   3.513   2.861  0.4624 -0.4090 -0.9237
10409TIP3   OH252717   5.345   1.296   0.574 -0.0900  0.2491  0.2827
10409TIP3    H152718   5.314   1.364   0.514 -0.3153  1.2847  1.5332
10409TIP3    H252719   5.267   1.245   0.594  0.1821 -0.7144 -1.0657
10410TIP3   OH252720   0.231   4.822   2.141 -0.1754 -0.9878  0.5609
10410TIP3    H152721   0.292   4.784   2.205 -1.0269  0.7290  2.4672
10410TIP3    H252722   0.186   4.891   2.190 -0.7691  0.4591 -1.9735
10411TIP3   OH252723   3.188   4.709  12.213  0.5352 -0.0870 -0.3401
10411TIP3    H152724   3.214   4.703  12.121  1.1876  0.0720 -0.1665
10411TIP3    H252725   3.270   4.723  12.260  0.3354 -1.2034  0.3679
10412TIP3   OH252726   3.029   1.293   5.268  0.0550 -0.1219 -0.2239
10412TIP3    H152727   3.106   1.321   5.219  0.2840 -0.6404 -0.1521
10412TIP3    H252728   2.962   1.358   5.245  0.7877  0.8978  0.4898
10413TIP3   OH252729   3.723   1.328  15.731  0.0076  0.3840  0.0460
10413TIP3    H152730   3.666   1.404  15.736  0.3073  0.5014  1.9546
10413TIP3    H252731   3.797   1.349  15.788 -0.9777 -2.2016  2.3750
10414TIP3   OH252732   0.910   1.381  13.594  0.0076  0.2225  0.6524
10414TIP3    H152733   0.989   1.404  13.546  1.0093 -2.2325  1.0604
10414TIP3    H252734   0.838   1.411  13.538  1.1845 -0.8298 -1.4572
10415TIP3   OH252735   2.933   4.021   1.543  0.1126 -0.0299 -0.7386
10415TIP3    H152736   2.944   3.965   1.467  0.2770  1.1518 -1.5927
10415TIP3    H252737   2.972   4.104   1.518 -0.8034  0.7119  0.2379
10416TIP3   OH252738   3.028   6.731  15.744  1.1653  0.4291 -0.3048
10416TIP3    H152739   3.025   6.683  15.661 -0.1836  0.9709 -0.5797
10416TIP3    H252740   3.001   6.667  15.810 -1.4879  1.0053 -0.7805
10417TIP3   OH252741   0.864   2.070  14.195  0.6414 -0.1236 -0.5385
10417TIP3    H152742   0.895   2.137  14.135 -1.8309 -0.1198 -1.8984
10417TIP3    H252743   0.866   1.988  14.144 -1.6034 -0.0951 -0.7466
10418TIP3   OH252744   5.354   5.717  15.718  0.1010 -0.3508 -0.2094
10418TIP3    H152745   5.342   5.811  15.705  0.5981 -0.0606  1.2818
10418TIP3    H252746   5.300   5.676  15.650 -1.1993  0.9968 -0.0255
10419TIP3   OH252747   5.002   4.119   2.162 -0.2492 -0.4715 -0.4381
10419TIP3    H152748   5.049   4.095   2.243 -1.4446 -1.1353  0.0807
10419TIP3    H252749   5.034   4.057   2.097 -0.2159 -0.7613 -0.1478
10420TIP3   OH252750   3.645   3.269  14.528  0.2487  0.1717  0.5778
10420TIP3    H152751   3.703   3.344  14.522 -0.6768  0.8254 -0.3048
10420TIP3    H252752   3.675   3.209  14.459 -0.5596  0.8348 -0.3766
10421TIP3   OH252753   1.306   2.935  13.555  0.3462 -0.2181 -0.5829
10421TIP3    H152754   1.269   2.858  13.511  0.9679 -0.8764  0.0300
10421TIP3    H252755   1.302   2.913  13.648 -0.0210  0.7461 -0.3630
10422TIP3   OH252756   6.601   0.530   2.247 -0.3477  0.2615  0.2497
10422TIP3    H152757   6.643   0.609   2.281  0.1609 -0.6254  1.7352
10422TIP3    H252758   6.554   0.559   2.169  0.8834  1.7860  0.0458
10423TIP3   OH252759   0.723   0.202  13.988 -0.6606 -0.3829  0.1245
10423TIP3    H152760   0.651   0.144  13.964 -0.9280 -0.0272  0.0743
10423TIP3    H252761   0.728   0.266  13.917 -1.1840  0.4171  0.7995
10424TIP3   OH252762   5.474   3.653  12.020  0.0390 -0.3553  0.2792
10424TIP3    H152763   5.546   3.621  11.964  0.4474  2.2306 -0.7168
10424TIP3    H252764   5.512   3.728  12.066 -0.8791 -1.3202  2.6636
10425TIP3   OH252765   2.179   3.624  14.001 -0.5261  0.2804  1.0487
10425TIP3    H152766   2.206   3.656  14.087 -0.5578  2.2328  0.3520
10425TIP3    H252767   2.146   3.701  13.956  0.4442 -0.5128 -1.0896
10426TIP3   OH252768   6.669   5.368  11.766 -0.0799 -0.0355 -0.0582
10426TIP3    H152769   6.702   5.282  11.792 -0.6163 -0.1453  0.2511
10426TIP3    H252770   6.587   5.378  11.813 -2.0385 -1.0436 -3.0885
10427TIP3   OH252771   2.601   5.019  13.232 -0.0481  0.0478 -0.4528
10427TIP3    H152772   2.583   5.068  13.151  0.9856  1.8688  0.3846
10427TIP3    H252773   2.535   5.050  13.294  0.4228  0.1776 -0.0098
10428TIP3   OH252774   5.007   3.349   1.858 -0.6956  0.5376  0.3038
10428TIP3    H152775   5.003   3.310   1.770 -0.7826  1.3117 -0.0340
10428TIP3    H252776   5.096   3.382   1.867 -1.2729  2.2918 -0.2846
10429TIP3   OH252777   4.920   0.072  15.376  0.6000 -0.1172  0.6404
10429TIP3    H152778   4.898  -0.016  15.346 -2.9174  0.1191  2.2387
10429TIP3    H252779   4.987   0.058  15.443 -1.0460 -1.7525  1.9964
10430TIP3   OH252780   2.230   3.282  14.353  0.6293  0.4946 -1.4295
10430TIP3    H152781   2.316   3.274  14.395 -0.5961  0.1862  1.0948
10430TIP3    H252782   2.219   3.201  14.303  1.3427  0.0648 -0.8857
10431TIP3   OH252783   0.151   0.796  12.541  0.1608  0.4508 -0.1913
10431TIP3    H152784   0.232   0.780  12.590  0.5212  1.1388 -0.5512
10431TIP3    H252785   0.169   0.876  12.491 -1.4797  1.8105  1.3421
10432TIP3   OH252786   3.689   3.640   4.791 -0.0242  0.3785 -0.4326
10432TIP3    H152787   3.699   3.603   4.878  0.0269  1.7337  0.1574
10432TIP3    H252788   3.624   3.585   4.748 -0.0720 -0.2741  0.4770
10433TIP3   OH252789   4.045   3.520  10.211  0.2688 -0.0158  0.7373
10433TIP3    H152790   4.044   3.500  10.118 -2.9856 -2.0011  1.0834
10433TIP3    H252791   4.109   3.459  10.248 -0.8241 -1.5399  0.1814
10434TIP3   OH252792   0.293   3.914   0.677 -0.2283  0.3859 -0.0260
10434TIP3    H152793   0.313   3.820   0.670  1.0803  0.6302  0.2774
10434TIP3    H252794   0.262   3.925   0.767 -0.7935  0.1776 -0.1917
10435TIP3   OH252795   0.150   4.146  13.429 -0.4042  0.0800 -0.3329
10435TIP3    H152796   0.156   4.153  13.334 -0.5961  3.0384 -0.1718
10435TIP3    H252797   0.062   4.179  13.450  0.3246  1.2459  0.9833
10436TIP3   OH252798   4.215   3.144   1.617  0.4485  0.6934 -0.8792
10436TIP3    H152799   4.227   3.056   1.582 -2.3314 -0.4157  0.7617
10436TIP3    H252800   4.131   3.173   1.582 -0.0666  1.4848  0.9245
10437TIP3   OH252801   5.005   3.781  13.990 -0.0832 -0.5227  0.0718
10437TIP3    H152802   4.974   3.864  14.025  0.2486 -0.1164 -0.6060
10437TIP3    H252803   5.000   3.791  13.895 -2.1090 -2.0616 -0.0213
10438TIP3   OH252804   2.783   1.901   6.347 -0.0558  0.0187  0.0410
10438TIP3    H152805   2.711   1.965   6.347  0.5891  0.7480 -0.5608
10438TIP3    H252806   2.860   1.952   6.370  0.7319 -0.2185 -1.9888
10439TIP3   OH252807   2.450   4.132  14.948  0.4933 -0.1031  0.4981
10439TIP3    H152808   2.514   4.204  14.946 -0.7573  1.0304  0.3376
10439TIP3    H252809   2.496   4.058  14.908  1.8070  0.6063  0.6733
10440TIP3   OH252810   0.124   2.757  14.996 -0.0316 -0.0694  0.0045
10440TIP3    H152811   0.064   2.683  15.002 -0.1861 -0.0132 -0.8368
10440TIP3    H252812   0.207   2.723  15.030  0.2174 -0.9876 -1.4859
10441TIP3   OH252813   3.559   4.115  13.874  0.0032  0.3021 -0.1585
10441TIP3    H152814   3.638   4.109  13.928 -0.1409 -0.8448 -0.0736
10441TIP3    H252815   3.590   4.103  13.784  0.1956  1.8722 -0.3162
10442TIP3   OH252816   4.661   0.384   5.486  0.0223 -0.1365  0.3340
10442TIP3    H152817   4.714   0.459   5.511  1.5930 -1.5252  1.2873
10442TIP3    H252818   4.646   0.336   5.567  1.2004 -2.1843 -0.6088
10443TIP3   OH252819   3.833   5.938  15.438 -0.8661 -0.2471  0.0796
10443TIP3    H152820   3.858   5.847  15.426 -0.6982 -0.0553 -1.1097
10443TIP3    H252821   3.768   5.937  15.508 -1.7944 -1.4149 -0.7981
10444TIP3   OH252822   5.029   2.141  16.929 -0.0376 -0.8668  0.5969
10444TIP3    H152823   5.011   2.062  16.981  1.4963 -0.6120  1.5608
10444TIP3    H252824   5.075   2.110  16.852 -1.1188 -1.1096  0.0521
10445TIP3   OH252825   0.686   2.764  13.171 -0.4356 -0.0801 -0.5906
10445TIP3    H152826   0.607   2.711  13.165 -0.2968 -0.3139 -0.3436
10445TIP3    H252827   0.704   2.791  13.081 -2.0698  1.8406 -0.3926
10446TIP3   OH252828   5.300   2.394   2.931 -0.9344 -0.1342 -0.7211
10446TIP3    H152829   5.216   2.349   2.944 -0.5666 -0.8681 -0.8871
10446TIP3    H252830   5.306   2.407   2.837 -0.1780 -1.4116 -0.8591
10447TIP3   OH252831   1.305   2.406  16.224 -0.5236 -0.5997  0.7369
10447TIP3    H152832   1.387   2.368  16.256 -0.3493 -0.3193  0.6263
10447TIP3    H252833   1.286   2.357  16.144 -1.9140 -2.5498  2.2000
10448TIP3   OH252834   3.346   4.282  14.550 -0.3537 -0.1668 -0.4539
10448TIP3    H152835   3.398   4.362  14.541  1.8037 -1.0987  2.7353
10448TIP3    H252836   3.271   4.295  14.492  0.5270  3.6776 -0.8538
10449TIP3   OH252837   0.588   3.655   0.160 -0.1001  0.2423  0.2725
10449TIP3    H152838   0.571   3.684   0.250 -2.1719  0.5835 -0.2170
10449TIP3    H252839   0.605   3.561   0.168  0.1524  0.3481  1.0625
10450TIP3   OH252840   4.679   5.437  12.603  0.0595 -0.4904  0.0918
10450TIP3    H152841   4.701   5.511  12.660 -2.4951  1.2744 -1.0814
10450TIP3    H252842   4.654   5.368  12.663  0.7209  0.2077  1.1900
10451TIP3   OH252843   0.723   1.738   4.070 -0.2709  0.2974 -0.4566
10451TIP3    H152844   0.811   1.750   4.104  0.0230 -0.5258 -0.9116
10451TIP3    H252845   0.684   1.825   4.071 -0.1160  0.3658  1.5475
10452TIP3   OH252846   4.159   2.236  10.916 -0.2142  0.1139  0.0868
10452TIP3    H152847   4.207   2.164  10.956  0.7005  0.3508 -0.5866
10452TIP3    H252848   4.085   2.194  10.872  0.2604 -0.4074 -0.2236
10453TIP3   OH252849   3.580   2.184  16.392 -0.1804 -0.7455  0.3946
10453TIP3    H152850   3.544   2.272  16.385  0.0278 -0.5941  1.1528
10453TIP3    H252851   3.673   2.197  16.405 -0.4493 -1.0040  2.7087
10454TIP3   OH252852   3.109   5.404   0.302  0.1722 -0.3226 -0.3075
10454TIP3    H152853   3.177   5.470   0.288  0.4559 -0.2478  1.2979
10454TIP3    H252854   3.154   5.332   0.347 -0.8413 -0.1924  0.9310
10455TIP3   OH252855   0.642   2.105   1.714 -0.0377  0.0150 -0.1718
10455TIP3    H152856   0.685   2.117   1.629 -0.4628 -1.9197 -0.7026
10455TIP3    H252857   0.698   2.043   1.760 -0.6790 -0.2033  0.3135
10456TIP3   OH252858   0.723   5.204  15.782  0.1571 -0.4463 -0.0770
10456TIP3    H152859   0.678   5.283  15.813  1.1427 -0.0796  0.4317
10456TIP3    H252860   0.754   5.162  15.862  0.7647 -0.6694 -0.4330
10457TIP3   OH252861   0.967   0.219   0.144  0.0755  0.4561 -0.8021
10457TIP3    H152862   0.946   0.145   0.087  1.5386 -0.6259  0.0144
10457TIP3    H252863   1.020   0.277   0.090  0.5547 -0.0429 -0.8715
10458TIP3   OH252864   6.170   6.505   1.860 -0.0199 -0.2962  0.2465
10458TIP3    H152865   6.103   6.476   1.922 -0.3710 -0.2699 -0.1171
10458TIP3    H252866   6.237   6.437   1.863  0.3882  0.1462  1.3097
10459TIP3   OH252867   1.552   5.384  17.071  0.5657 -0.0752  0.1966
10459TIP3    H152868   1.485   5.398  17.138  0.6504  2.0738 -0.1308
10459TIP3    H252869   1.635   5.388  17.119  0.5555 -0.4446  0.2494
10460TIP3   OH252870   0.163   1.234   2.967  0.4419  0.3169  0.1282
10460TIP3    H152871   0.220   1.202   3.037 -0.4089 -0.2408  0.5732
10460TIP3    H252872   0.075   1.236   3.006  0.0561  0.5820 -0.7353
10461TIP3   OH252873   2.500   3.846  11.594 -0.4784  0.3283 -0.0535
10461TIP3    H152874   2.424   3.879  11.546 -0.2427  0.4858 -0.3214
10461TIP3    H252875   2.551   3.799  11.528 -0.6258 -0.2606  0.2445
10462TIP3   OH252876   3.265   4.370   3.069 -0.1808 -0.1582  0.2670
10462TIP3    H152877   3.284   4.315   2.993 -1.0810 -1.5592  1.0434
10462TIP3    H252878   3.203   4.436   3.037  1.2244  0.6891 -0.7688
10463TIP3   OH252879   1.841   4.659  16.270 -0.1013  0.4540 -0.8295
10463TIP3    H152880   1.924   4.628  16.305 -0.0829  0.6690 -0.6779
10463TIP3    H252881   1.777   4.592  16.296 -0.2626  1.0854  0.4768
10464TIP3   OH252882   1.013   4.310  11.335 -0.1391  0.0723 -0.4353
10464TIP3    H152883   1.028   4.335  11.244 -2.9326  1.2216 -0.6213
10464TIP3    H252884   1.003   4.215  11.332  1.4539 -0.0941 -1.0470
10465TIP3   OH252885   6.343   1.391   1.785  0.4152  0.1309 -0.1476
10465TIP3    H152886   6.349   1.296   1.777  2.4950  0.0570  1.9035
10465TIP3    H252887   6.424   1.424   1.746 -0.0386  1.0396 -0.3370
10466TIP3   OH252888   3.771   5.209  17.077 -0.0613 -0.2190 -0.0656
10466TIP3    H152889   3.746   5.301  17.068 -1.5999 -0.5864  0.3866
10466TIP3    H252890   3.706   5.172  17.136  0.2364 -1.7393 -0.6688
10467TIP3   OH252891   4.118   5.335  15.558 -0.1873 -0.4712  0.3786
10467TIP3    H152892   4.031   5.338  15.517 -0.7779  1.8192  1.7054
10467TIP3    H252893   4.106   5.279  15.635 -0.5500  0.0463  0.6997
10468TIP3   OH252894   6.751   2.262  15.495 -0.0648  0.1795 -0.5315
10468TIP3    H152895   6.799   2.181  15.481 -0.6209 -0.2918  0.2309
10468TIP3    H252896   6.671   2.235  15.540 -0.2947  1.1366 -0.3505
10469TIP3   OH252897   3.421   1.139  16.858  0.4877  0.2777  0.2976
10469TIP3    H152898   3.352   1.201  16.881  1.0859  0.8740  0.4917
10469TIP3    H252899   3.498   1.170  16.905  0.5744 -1.1512  1.1470
10470TIP3   OH252900   0.594   4.237  11.771 -0.0605  0.0354  0.1126
10470TIP3    H152901   0.643   4.236  11.689  0.1894 -0.8946  0.2719
10470TIP3    H252902   0.628   4.163  11.821 -0.4168  0.4196  0.9349
10471TIP3   OH252903   0.744   3.584  16.444  0.5000 -0.0124 -0.3614
10471TIP3    H152904   0.679   3.652  16.458 -0.1250 -0.8422  0.7903
10471TIP3    H252905   0.820   3.630  16.408  0.6111  1.5054  1.7547
10472TIP3   OH252906   0.953   2.027  12.811  0.1052 -0.1785  0.3999
10472TIP3    H152907   0.968   2.010  12.718 -2.4483  0.4059 -0.1518
10472TIP3    H252908   0.892   2.100  12.813  1.1795  0.7000  2.5763
10473TIP3   OH252909   0.739   3.715   5.628  0.6008  0.0637  1.2448
10473TIP3    H152910   0.645   3.734   5.624  0.4152 -0.9563  0.3390
10473TIP3    H252911   0.762   3.728   5.720 -0.2614  1.0629  1.3333
10474TIP3   OH252912   2.768   2.657  17.214 -0.6645  0.1927 -0.1001
10474TIP3    H152913   2.675   2.674  17.195 -0.9346 -2.2643 -1.1363
10474TIP3    H252914   2.815   2.727  17.168 -1.9204  0.7070 -0.6261
10475TIP3   OH252915   0.409   4.526   5.654 -0.2391  0.2234 -0.4300
10475TIP3    H152916   0.335   4.469   5.634  0.5748 -0.4103 -1.6599
10475TIP3    H252917   0.466   4.474   5.711  0.0050  0.1842 -0.7127
10476TIP3   OH252918   0.885   4.860   0.580 -0.2466 -0.3709  0.1950
10476TIP3    H152919   0.812   4.908   0.620 -0.2410 -1.2025  1.2049
10476TIP3    H252920   0.875   4.875   0.486 -0.6675  1.0144  0.4532
10477TIP3   OH252921   2.180   0.456   1.064 -0.2692 -0.7305  0.1017
10477TIP3    H152922   2.123   0.436   0.990  0.4474 -1.5828 -0.2364
10477TIP3    H252923   2.255   0.501   1.024 -1.0759  1.1499  0.6453
10478TIP3   OH252924   6.815   6.644   4.532 -0.3694 -0.3995 -0.2156
10478TIP3    H152925   6.908   6.655   4.511  0.0670 -1.6991  0.9638
10478TIP3    H252926   6.797   6.711   4.597 -0.7771  1.1771 -1.9282
10479TIP3   OH252927   3.616   0.045  15.236 -0.7395  0.4553  0.5869
10479TIP3    H152928   3.681   0.114  15.249  0.4187 -0.9194  2.2535
10479TIP3    H252929   3.631  -0.016  15.308 -2.4365 -1.0178 -0.2745
10480TIP3   OH252930   0.713   1.155  15.664  0.2783  0.2675 -0.2989
10480TIP3    H152931   0.743   1.211  15.735  0.8151 -1.3363  0.7762
10480TIP3    H252932   0.764   1.075  15.674 -1.1504 -0.7786 -1.2232
10481TIP3   OH252933   5.208   5.032   3.990  0.3117 -0.1951  0.3611
10481TIP3    H152934   5.259   4.999   4.065  1.8403 -0.8543 -0.9380
10481TIP3    H252935   5.119   5.000   4.006  1.1638 -2.5577  0.5956
10482TIP3   OH252936   3.792   0.410  17.213  0.0492 -0.4918 -0.2821
10482TIP3    H152937   3.704   0.445  17.196 -0.2872  0.1005  2.4478
10482TIP3    H252938   3.795   0.327  17.165 -2.4927 -1.1903  0.7280
10483TIP3   OH252939   6.511   2.566  14.417  0.5599  0.3504 -0.2839
10483TIP3    H152940   6.523   2.522  14.333  1.7868  1.1386 -0.5400
10483TIP3    H252941   6.596   2.607  14.435  0.3754  0.0166  1.4449
10484TIP3   OH252942   0.285   0.442   0.917 -0.0807  0.2063 -0.1707
10484TIP3    H152943   0.335   0.395   0.850 -2.7695 -1.9039 -0.8064
10484TIP3    H252944   0.228   0.374   0.956 -0.6975  2.0095  2.1657
10485TIP3   OH252945   2.069   0.132  17.028  0.5388  0.3702 -0.5675
10485TIP3    H152946   2.053   0.037  17.028 -3.7438  1.0121 -0.8020
10485TIP3    H252947   2.102   0.150  16.940  1.5984 -0.9292 -0.4480
10486TIP3   OH252948   5.928   0.537   5.249  0.0099 -0.0561  0.3106
10486TIP3    H152949   6.022   0.556   5.244 -0.2852  0.9849 -1.5220
10486TIP3    H252950   5.891   0.612   5.295 -0.1950  0.5373 -0.8018
10487TIP3   OH252951   0.535   4.397  10.571  0.1816 -0.2014 -0.0987
10487TIP3    H152952   0.628   4.405  10.594  0.5949 -1.2044 -1.3674
10487TIP3    H252953   0.500   4.486  10.579  1.0873  0.0537  1.0784
10488TIP3   OH252954   1.516   4.206  11.493  0.7897  0.0902 -0.0484
10488TIP3    H152955   1.428   4.168  11.499  1.1471 -0.7575 -0.1722
10488TIP3    H252956   1.528   4.223  11.399  0.4511  0.9410  0.0585
10489TIP3   OH252957   0.661   2.588   4.866 -0.2008 -0.5709  0.3315
10489TIP3    H152958   0.677   2.521   4.933  0.4394  0.1956  0.9540
10489TIP3    H252959   0.749   2.618   4.842 -0.5321  0.9500  0.9792
10490TIP3   OH252960   1.430   2.003   2.303  0.4313 -0.0124 -0.4663
10490TIP3    H152961   1.352   1.948   2.310  0.8632 -0.7803 -1.5125
10490TIP3    H252962   1.498   1.944   2.270  1.3755  0.7190  0.1306
10491TIP3   OH252963   1.925   0.261   5.242  0.5939  0.4137 -0.9064
10491TIP3    H152964   1.928   0.236   5.335  3.5062  1.9313 -0.5387
10491TIP3    H252965   1.916   0.356   5.242 -1.0741  0.2825 -2.2267
10492TIP3   OH252966   3.025   1.619  16.544  0.0692 -0.2007  0.0784
10492TIP3    H152967   3.108   1.577  16.566  1.0951  1.8373  0.1752
10492TIP3    H252968   2.979   1.627  16.628  0.9935  1.2313  0.4518
10493TIP3   OH252969   6.650   4.729   0.743  0.2319  0.0425  0.5911
10493TIP3    H152970   6.619   4.776   0.820  0.2496 -0.0964  0.6826
10493TIP3    H252971   6.698   4.653   0.778 -0.7851 -0.6798  0.4287
10494TIP3   OH252972   4.165   5.484  15.929  0.2088  0.2811 -0.1012
10494TIP3    H152973   4.103   5.556  15.941  0.9995  1.2086 -1.4632
10494TIP3    H252974   4.250   5.527  15.916  1.2999 -0.9685  2.4350
10495TIP3   OH252975   1.645   2.754  10.517  0.3944 -0.1538 -0.2972
10495TIP3    H152976   1.557   2.748  10.555  0.0574 -0.1054 -1.0763
10495TIP3    H252977   1.704   2.746  10.593 -0.2903  0.7480  0.3361
10496TIP3   OH252978   4.641   0.746   5.853  0.0009  0.0921 -0.4027
10496TIP3    H152979   4.733   0.758   5.832 -0.1123  0.8032 -0.5014
10496TIP3    H252980   4.639   0.671   5.913  0.3706 -1.7370 -2.5896
10497TIP3   OH252981   1.896   2.534  16.079 -0.2707 -0.5888  0.5161
10497TIP3    H152982   1.837   2.599  16.116 -0.3252 -0.9947  1.1577
10497TIP3    H252983   1.892   2.549  15.985 -0.1781  0.4210  0.6652
10498TIP3   OH252984   0.427   3.057   2.294 -0.6868  0.8935 -0.1013
10498TIP3    H152985   0.395   2.979   2.341 -1.1253  2.0378  1.5469
10498TIP3    H252986   0.499   3.089   2.348  0.2698  0.9704 -1.4013
10499TIP3   OH252987   4.868   4.883   4.389  0.0023  0.3418  0.2051
10499TIP3    H152988   4.913   4.798   4.394  0.6150  0.6518 -0.0023
10499TIP3    H252989   4.938   4.946   4.374 -0.2691  1.0801  1.9619
10500TIP3   OH252990   3.313   5.553  13.899 -0.3681 -0.0138  0.4613
10500TIP3    H152991   3.233   5.522  13.855 -0.2892  0.6777 -0.1720
10500TIP3    H252992   3.379   5.555  13.830  0.1963 -0.5372  0.9763
10501TIP3   OH252993   1.014   6.668   2.187 -0.2705  0.2340 -0.6172
10501TIP3    H152994   0.928   6.647   2.150 -0.3364 -0.8166  0.1135
10501TIP3    H252995   1.075   6.618   2.134 -0.1511  0.6021 -0.8275
10502TIP3   OH252996   4.038   2.915  14.485 -0.1841  0.4745 -0.2409
10502TIP3    H152997   4.042   2.939  14.577  0.2352 -0.4150 -0.0198
10502TIP3    H252998   4.113   2.960  14.446 -0.8992  1.6063 -0.3404
10503TIP3   OH252999   3.757   1.228  15.475  0.1966  0.1501  0.4943
10503TIP3    H153000   3.846   1.263  15.470 -0.6161  2.1871 -0.6172
10503TIP3    H253001   3.722   1.263  15.557 -0.1135  0.7284  0.1214
10504TIP3   OH253002   0.436   6.203  11.194 -0.2263 -0.0739  0.7970
10504TIP3    H153003   0.500   6.254  11.144  0.7024 -0.8650  1.1605
10504TIP3    H253004   0.405   6.137  11.131  0.1603 -0.4020  0.9464
10505TIP3   OH253005   4.511   6.307   3.127  0.3066 -0.3301 -0.0120
10505TIP3    H153006   4.462   6.253   3.064  0.3294  0.1941 -0.4848
10505TIP3    H253007   4.603   6.294   3.103  0.3491 -0.6173  0.3087
10506TIP3   OH253008   1.208   2.417  12.131 -0.2601  0.1530 -0.1029
10506TIP3    H153009   1.177   2.477  12.199  2.6830 -0.3223  1.7437
10506TIP3    H253010   1.181   2.458  12.049 -0.2832  2.8626  1.1985
10507TIP3   OH253011   6.136   3.527  13.614 -0.0480 -0.5064  0.2246
10507TIP3    H153012   6.062   3.507  13.671  1.6374 -0.7710  2.3911
10507TIP3    H253013   6.175   3.442  13.595  0.4018 -0.2758  0.1007
10508TIP3   OH253014   4.538   6.684   0.448  0.5093  0.0424  0.0183
10508TIP3    H153015   4.443   6.682   0.438  0.3507  1.7848  0.9260
10508TIP3    H253016   4.555   6.627   0.524  0.3848 -1.6820 -1.2138
10509TIP3   OH253017   0.036   0.213   1.389  0.3425  0.5159 -0.4765
10509TIP3    H153018   0.003   0.298   1.416  0.1889  0.1567  0.4847
10509TIP3    H253019  -0.032   0.151   1.415  1.0853 -0.0541  0.1213
10510TIP3   OH253020   3.560   5.977  13.605  0.0438  0.2165  0.1577
10510TIP3    H153021   3.612   6.048  13.568  1.0099  0.9145  2.7165
10510TIP3    H253022   3.614   5.899  13.595 -0.1072  0.2260 -0.7424
10511TIP3   OH253023   0.008   0.108  13.885  0.1808 -0.1792  0.3371
10511TIP3    H153024   0.070   0.137  13.818 -1.6546  3.0798 -0.0850
10511TIP3    H253025  -0.004   0.185  13.941 -0.8953 -1.8086  2.4268
10512TIP3   OH253026   6.752   0.462  16.730 -0.2567 -0.4218 -0.3486
10512TIP3    H153027   6.840   0.459  16.766 -0.5276 -0.8405  0.2893
10512TIP3    H253028   6.711   0.381  16.760 -1.8153  1.1357  1.8719
10513TIP3   OH253029   3.391   1.952   5.936  0.4488  0.3741 -0.0771
10513TIP3    H153030   3.448   1.984   6.007 -0.6332  1.7525  0.1884
10513TIP3    H253031   3.303   1.957   5.973 -0.0641  0.5147 -1.3241
10514TIP3   OH253032   2.834   6.558   1.107  0.0089 -0.0309  0.0274
10514TIP3    H153033   2.900   6.490   1.092 -0.6357 -0.3665 -1.3006
10514TIP3    H253034   2.840   6.576   1.201  1.7800 -0.2754 -0.0083
10515TIP3   OH253035   6.250   6.155   2.687  0.3889  0.0923 -0.6816
10515TIP3    H153036   6.201   6.189   2.612 -1.6028  0.7873  0.8896
10515TIP3    H253037   6.291   6.233   2.726 -1.1855  0.2127  0.7815
10516TIP3   OH253038   5.956   2.265   6.595  0.6711 -0.4943 -0.5271
10516TIP3    H153039   5.903   2.187   6.609  0.8972 -0.4757  0.4707
10516TIP3    H253040   5.904   2.336   6.632  1.5283 -0.5258  0.7586
10517TIP3   OH253041   1.399   6.807   4.934 -0.5203  0.3850 -0.5258
10517TIP3    H153042   1.466   6.875   4.934 -0.3526  0.2203  0.1191
10517TIP3    H253043   1.440   6.733   4.980 -1.1413  0.2802 -0.1441
10518TIP3   OH253044   4.188   3.306   3.642  0.2035  0.2704  0.1932
10518TIP3    H153045   4.115   3.341   3.591  0.4482  1.1703  0.4461
10518TIP3    H253046   4.219   3.381   3.693  1.8683  0.1127 -0.5605
10519TIP3   OH253047   0.530   2.378  16.355 -0.8029  0.0740  0.2976
10519TIP3    H153048   0.469   2.432  16.306 -0.4250  0.6745  0.4858
10519TIP3    H253049   0.576   2.327  16.288 -1.9063 -0.7973  0.1952
10520TIP3   OH253050   0.595   5.555   0.333 -0.0755 -0.3895  0.1089
10520TIP3    H153051   0.647   5.613   0.389  0.8492 -1.0517 -0.0566
10520TIP3    H253052   0.658   5.493   0.298 -1.2506 -2.2479  1.2232
10521TIP3   OH253053   2.583   2.680  15.166  0.8886 -0.5991  0.2919
10521TIP3    H153054   2.601   2.687  15.260  0.4318  0.3466  0.3099
10521TIP3    H253055   2.512   2.742  15.150  1.9883  0.3784 -0.9453
10522TIP3   OH253056   2.268   5.403   1.957 -0.0425  0.2490  0.3525
10522TIP3    H153057   2.212   5.352   2.015  1.0743  0.2381  1.4483
10522TIP3    H253058   2.339   5.343   1.934 -0.3363  0.3478 -0.7918
10523TIP3   OH253059   0.608   5.122   6.224 -0.1479  0.3870  0.2661
10523TIP3    H153060   0.674   5.141   6.291  1.4407  1.2006 -1.4851
10523TIP3    H253061   0.579   5.208   6.194  0.5854  0.0708 -1.4387
10524TIP3   OH253062   0.371   5.889  13.628 -0.4268 -0.3298 -0.1954
10524TIP3    H153063   0.331   5.815  13.581  0.1251 -1.2026  0.7010
10524TIP3    H253064   0.376   5.859  13.719  0.5092  0.5208  0.0323
10525TIP3   OH253065   4.994   2.150   3.781  0.1510  0.2970  0.0586
10525TIP3    H153066   4.992   2.150   3.685  1.5484  0.4119  0.0234
10525TIP3    H253067   4.936   2.078   3.806 -0.0060  0.0932 -0.8738
10526TIP3   OH253068   3.971   3.266   0.477 -0.1615 -0.0952  0.4152
10526TIP3    H153069   4.041   3.246   0.539 -0.4220  0.7969  1.0046
10526TIP3    H253070   3.942   3.180   0.446  0.8804 -0.4907  0.5103
10527TIP3   OH253071   0.265   2.880  16.781  0.5679 -0.5175  0.1921
10527TIP3    H153072   0.329   2.863  16.849  0.9307 -1.3062 -0.3440
10527TIP3    H253073   0.256   2.797  16.734 -3.5406 -1.5196  2.4922
10528TIP3   OH253074   3.242   3.922  12.776 -0.0847 -0.7258  0.1681
10528TIP3    H153075   3.189   4.000  12.760 -2.6277 -2.9735 -3.0359
10528TIP3    H253076   3.183   3.861  12.820  1.1579 -1.7491  0.4641
10529TIP3   OH253077   3.681   5.574   2.058 -0.2447  0.1625 -0.6185
10529TIP3    H153078   3.659   5.629   1.983  1.7358 -1.4349 -2.4410
10529TIP3    H253079   3.655   5.486   2.032  1.5946 -0.6030  0.0466
10530TIP3   OH253080   5.145   2.880  16.900  0.2067  0.1904 -0.9202
10530TIP3    H153081   5.128   2.947  16.966 -2.3694 -0.5341 -0.7914
10530TIP3    H253082   5.192   2.927  16.831  1.0578  1.4423  0.4779
10531TIP3   OH253083   3.193   4.848  11.735  0.3049 -0.2944 -0.4682
10531TIP3    H153084   3.281   4.880  11.715  0.0976  1.4132  1.1904
10531TIP3    H253085   3.201   4.803  11.819 -0.7989  1.9487  0.9051
10532TIP3   OH253086   2.544   1.824  16.328  0.0859  0.0081  0.3463
10532TIP3    H153087   2.593   1.817  16.246 -1.5634 -1.2343 -0.5792
10532TIP3    H253088   2.464   1.774  16.312 -0.7170  0.5824  2.3880
10533TIP3   OH253089   3.239   3.880   1.531  0.3849  0.0585 -0.7960
10533TIP3    H153090   3.166   3.931   1.495  1.0815 -0.0249 -2.3598
10533TIP3    H253091   3.279   3.839   1.454  0.5244 -1.9471  0.3326
10534TIP3   OH253092   3.914   4.944   6.176 -0.5626 -0.0461 -0.2111
10534TIP3    H153093   3.985   5.008   6.175  0.8610 -1.6047 -0.3143
10534TIP3    H253094   3.926   4.896   6.258  0.5604 -2.5413 -1.7716
10535TIP3   OH253095   5.953   1.018  11.190 -0.5196 -0.5414  0.6582
10535TIP3    H153096   5.872   1.011  11.140 -0.5971  0.5604  0.6130
10535TIP3    H253097   5.968   0.930  11.226 -1.0213 -1.0660 -0.4241
10536TIP3   OH253098   2.625   4.972  14.625 -0.0470 -0.4657  0.2917
10536TIP3    H153099   2.652   5.016  14.545 -1.0821 -0.1303  0.1125
10536TIP3    H253100   2.706   4.953  14.672  0.4990  0.1924 -0.3886
10537TIP3   OH253101   6.715   0.748   0.110 -0.3057 -0.5796 -0.2661
10537TIP3    H153102   6.743   0.687   0.042  0.3563  1.1115 -1.5669
10537TIP3    H253103   6.623   0.767   0.088 -1.0908 -2.5137  1.2385
10538TIP3   OH253104   4.114   2.581   3.082  0.3076  0.4652 -0.2746
10538TIP3    H153105   4.121   2.618   3.171 -0.5732  2.2879 -0.9302
10538TIP3    H253106   4.141   2.490   3.092 -0.0375  0.5646  1.9285
10539TIP3   OH253107   5.691   6.323  13.810  0.2248 -0.4811  0.2437
10539TIP3    H153108   5.628   6.251  13.820  0.4514 -1.1799 -2.6578
10539TIP3    H253109   5.735   6.304  13.727  1.9848  1.7538  0.6151
10540TIP3   OH253110   0.069   3.790  12.567  0.0363 -0.3933 -0.0437
10540TIP3    H153111   0.109   3.704  12.576 -2.5984 -1.7911 -1.0306
10540TIP3    H253112   0.071   3.828  12.655  2.0709 -1.0281  0.2078
10541TIP3   OH253113   6.386   2.255  11.740 -0.3777 -0.6323 -0.1863
10541TIP3    H153114   6.428   2.217  11.663 -1.4523 -1.6672 -0.2711
10541TIP3    H253115   6.406   2.349  11.734  1.0414 -0.9588 -0.7617
10542TIP3   OH253116   4.468   1.101   3.545 -0.3371 -0.0784  0.3652
10542TIP3    H153117   4.520   1.128   3.620  1.2197 -0.7492 -0.4552
10542TIP3    H253118   4.423   1.181   3.516 -0.9372  0.1814  1.9768
10543TIP3   OH253119   5.434   5.122   4.231  0.1519 -0.0474 -0.4442
10543TIP3    H153120   5.508   5.166   4.189 -0.4791  0.9333 -0.5490
10543TIP3    H253121   5.366   5.189   4.237 -0.2398 -0.5392  0.9203
10544TIP3   OH253122   4.886   5.242  12.110  0.0235 -0.5092 -0.0415
10544TIP3    H153123   4.848   5.247  12.197 -0.0454 -1.5993  0.0006
10544TIP3    H253124   4.857   5.322  12.066 -1.3371 -0.7619  0.3773
10545TIP3   OH253125   6.775   3.457   6.006  0.1030 -0.2618 -0.1820
10545TIP3    H153126   6.679   3.460   6.007  0.1754  2.4094  0.4795
10545TIP3    H253127   6.799   3.429   6.095 -0.0203  0.6376  0.1351
10546TIP3   OH253128   4.950   3.382   3.928  0.3445 -0.5741 -0.1456
10546TIP3    H153129   4.888   3.309   3.926  0.2436 -0.4661 -1.2685
10546TIP3    H253130   5.029   3.345   3.967 -0.1729 -0.9102  0.5960
10547TIP3   OH253131   6.739   4.483   5.132 -0.3140  0.2557  0.1269
10547TIP3    H153132   6.672   4.447   5.074  0.8749 -1.2573 -0.3474
10547TIP3    H253133   6.822   4.457   5.092  0.5494  0.8470  1.4784
10548TIP3   OH253134   4.725   4.895  14.280 -0.2250  0.2163 -0.4867
10548TIP3    H153135   4.654   4.853  14.328  1.8490 -1.2539  1.4218
10548TIP3    H253136   4.797   4.900  14.344  1.3233  1.8012 -2.2987
10549TIP3   OH253137   1.488   6.584  12.930  0.0930 -0.2862 -0.1671
10549TIP3    H153138   1.550   6.629  12.988 -0.2934 -0.5049  0.4274
10549TIP3    H253139   1.405   6.589  12.976 -0.1590 -0.7233 -0.5724
10550TIP3   OH253140   0.495   3.384  14.630  0.1703 -0.0561 -0.6395
10550TIP3    H153141   0.575   3.383  14.577  0.7743  0.7297  0.2403
10550TIP3    H253142   0.522   3.422  14.714 -1.3629  1.3823 -0.7537
10551TIP3   OH253143   5.733   0.038   1.327  0.1588  0.0652 -0.0735
10551TIP3    H153144   5.787   0.106   1.365 -0.5052  0.0900  0.8439
10551TIP3    H253145   5.793  -0.015   1.275  0.4091  2.2764 -2.1045
10552TIP3   OH253146   2.495   1.571   5.854  0.2529  0.1980 -0.7857
10552TIP3    H153147   2.510   1.478   5.838 -0.9008 -0.1126 -0.1389
10552TIP3    H253148   2.550   1.616   5.789 -1.3943 -0.9599 -3.0429
10553TIP3   OH253149   5.052   2.814  13.185 -0.0632 -0.3557  0.1796
10553TIP3    H153150   5.013   2.784  13.102  0.0688 -0.2542  0.0799
10553TIP3    H253151   4.999   2.890  13.210  0.4666  0.1771 -0.2910
10554TIP3   OH253152   2.332   6.797   1.271  0.3424 -0.8710 -0.3987
10554TIP3    H153153   2.392   6.811   1.198  0.0047 -3.3522 -1.1933
10554TIP3    H253154   2.335   6.702   1.288 -4.3225 -1.3306 -1.3505
10555TIP3   OH253155   3.193   5.559  11.673  0.2435 -0.3127 -0.3817
10555TIP3    H153156   3.258   5.489  11.675  0.1411 -0.4842 -1.8751
10555TIP3    H253157   3.245   5.640  11.669  0.4243 -0.4943 -2.7798
10556TIP3   OH253158   5.052   5.415   5.259 -0.4169 -0.6202  0.5283
10556TIP3    H153159   5.120   5.400   5.325  1.0077  0.4309 -0.6670
10556TIP3    H253160   5.069   5.348   5.193 -1.7931 -1.6173  1.1614
10557TIP3   OH253161   1.827   1.401   4.591 -0.1831 -0.5178  0.0326
10557TIP3    H153162   1.814   1.324   4.646 -0.2687 -0.5429 -0.0211
10557TIP3    H253163   1.803   1.475   4.648 -0.8851 -0.5848 -0.1617
10558TIP3   OH253164   2.562   5.340   1.694 -0.2009 -0.0202  0.0941
10558TIP3    H153165   2.594   5.255   1.666  1.4168  0.8269 -0.7502
10558TIP3    H253166   2.467   5.331   1.697 -0.1471 -1.3490 -1.6296
10559TIP3   OH253167   0.264   5.662  14.408 -0.1398 -0.0345  0.4205
10559TIP3    H153168   0.285   5.639  14.498 -0.0573 -1.2183  0.1006
10559TIP3    H253169   0.173   5.692  14.411  0.5455  2.0252  1.2622
10560TIP3   OH253170   6.601   4.583  13.505 -0.3617  0.5324  0.2110
10560TIP3    H153171   6.586   4.672  13.472 -0.4711  0.1150 -0.8656
10560TIP3    H253172   6.673   4.594  13.569  0.0789  1.2910 -0.3977
10561TIP3   OH253173   0.312   2.724  10.401  0.1807  0.2456 -0.4379
10561TIP3    H153174   0.390   2.775  10.377  0.1186 -0.0505 -1.2997
10561TIP3    H253175   0.344   2.662  10.467  0.2671  1.3367  0.5706
10562TIP3   OH253176   5.175   0.589  13.510  0.7730 -0.0790  0.2731
10562TIP3    H153177   5.234   0.584  13.586  0.5346  2.5728  0.7005
10562TIP3    H253178   5.100   0.640  13.541 -1.9682 -3.6501 -0.1856
10563TIP3   OH253179   0.591   0.315   1.250  0.3647 -0.1498  0.4198
10563TIP3    H153180   0.659   0.317   1.318  0.7034 -1.4794  0.1338
10563TIP3    H253181   0.535   0.242   1.274 -0.6311  0.5765  0.3209
10564TIP3   OH253182   4.464   5.243   3.834  0.0135 -0.0404  0.0037
10564TIP3    H153183   4.490   5.328   3.870  2.2497  0.0747 -1.8261
10564TIP3    H253184   4.412   5.264   3.757 -0.4553 -0.3270  0.2394
10565TIP3   OH253185   4.114   4.420  10.460 -0.0552 -0.2969 -0.1658
10565TIP3    H153186   4.037   4.463  10.498 -0.5890  1.0952 -2.7338
10565TIP3    H253187   4.097   4.326  10.470 -1.2810  0.0142  0.7955
10566TIP3   OH253188   3.131   5.769  12.507  0.3062  0.1917 -0.0770
10566TIP3    H153189   3.087   5.852  12.488 -0.1662 -0.1117 -0.3217
10566TIP3    H253190   3.213   5.794  12.548 -0.2862  0.7620  0.7842
10567TIP3   OH253191   1.469   5.016  14.590 -0.1939 -0.3826 -0.2403
10567TIP3    H153192   1.427   5.101  14.605  0.1977 -0.1293 -0.5533
10567TIP3    H253193   1.422   4.956  14.648 -0.6651 -0.0110 -0.2275
10568TIP3   OH253194   2.062   6.099  15.855  0.9212  0.2328  0.1578
10568TIP3    H153195   2.078   6.190  15.881 -0.8263  0.2817  1.1354
10568TIP3    H253196   2.042   6.104  15.762 -0.2181  0.9887  0.4343
10569TIP3   OH253197   3.730   1.367   5.982 -0.2463 -0.1227  0.3045
10569TIP3    H153198   3.785   1.402   6.052  0.9800 -1.0131 -0.1902
10569TIP3    H253199   3.754   1.418   5.905  0.3010 -0.8808 -0.0344
10570TIP3   OH253200   6.695   4.927  11.318 -0.1763  0.4184  0.1167
10570TIP3    H153201   6.687   4.984  11.242  0.5353  1.6615  0.9595
10570TIP3    H253202   6.606   4.918  11.352 -0.3032  0.9717 -0.0686
10571TIP3   OH253203   4.381   3.775  15.427  0.0717 -0.5371 -0.2227
10571TIP3    H153204   4.406   3.801  15.338  0.3031 -0.6242 -0.1838
10571TIP3    H253205   4.298   3.728  15.416 -0.6871  0.7711 -0.2241
10572TIP3   OH253206   1.512   6.112   6.462  0.4789 -0.0758 -0.0971
10572TIP3    H153207   1.570   6.131   6.535 -0.1407  0.3090  0.2942
10572TIP3    H253208   1.483   6.197   6.431 -0.1305 -0.2775 -0.0910
10573TIP3   OH253209   4.863   0.245   5.175 -0.2825  0.1443 -0.7896
10573TIP3    H153210   4.807   0.184   5.224 -2.1835  2.8559  0.6112
10573TIP3    H253211   4.928   0.274   5.239  1.5501 -1.5325 -1.8759
10574TIP3   OH253212   0.476   1.169   0.379 -0.1435  0.2769 -0.2400
10574TIP3    H153213   0.392   1.162   0.334 -0.9474  0.2371  1.2116
10574TIP3    H253214   0.490   1.082   0.418  1.2485 -0.1337 -1.6143
10575TIP3   OH253215   0.815   4.328   2.582 -0.1773 -0.3758 -0.3259
10575TIP3    H153216   0.757   4.369   2.518 -1.1577 -0.5401  0.4433
10575TIP3    H253217   0.781   4.239   2.592 -0.2495 -0.2343  0.6950
10576TIP3   OH253218   6.740   3.149  12.417  0.0260  0.4500 -0.5343
10576TIP3    H153219   6.817   3.204  12.430 -0.2837  0.3170  2.1357
10576TIP3    H253220   6.776   3.064  12.389  0.6998  1.0060 -1.3839
10577TIP3   OH253221   4.224   2.608   0.235 -0.3107 -0.3884  0.1522
10577TIP3    H153222   4.250   2.534   0.180  0.3092 -0.3132  0.3329
10577TIP3    H253223   4.173   2.569   0.306 -0.6668 -0.5473 -0.1889
10578TIP3   OH253224   1.127   5.912   5.740  0.0127  0.4137 -0.8426
10578TIP3    H153225   1.050   5.861   5.767  1.7651 -1.8463  0.0987
10578TIP3    H253226   1.126   5.990   5.796  0.9936 -1.9294  2.6123
10579TIP3   OH253227   1.891   5.761  15.191  0.4692 -0.0220  0.0018
10579TIP3    H153228   1.981   5.749  15.160 -0.3100 -1.6847 -1.7425
10579TIP3    H253229   1.853   5.673  15.188 -2.1478  1.1273 -2.3613
10580TIP3   OH253230   0.380   5.244  12.459  0.3173  0.3094 -0.0015
10580TIP3    H153231   0.300   5.297  12.456 -1.1704 -1.6832  2.7102
10580TIP3    H253232   0.451   5.307  12.447 -1.5979  2.2422 -1.5906
10581TIP3   OH253233   0.308   5.083   6.355 -0.6257 -0.4623  0.7257
10581TIP3    H153234   0.361   5.124   6.423 -0.4916 -0.5575  0.6780
10581TIP3    H253235   0.361   5.092   6.275 -0.1943 -1.5584  0.8869
10582TIP3   OH253236   0.638   5.800   2.382 -0.1817  0.3354 -0.2591
10582TIP3    H153237   0.607   5.889   2.370  0.0835  0.5450  0.6030
10582TIP3    H253238   0.602   5.772   2.466 -0.5130 -0.4790 -0.6587
10583TIP3   OH253239   2.405   4.423   1.860  0.8754 -0.3416  0.7376
10583TIP3    H153240   2.438   4.364   1.928  0.7569 -1.2050  0.0541
10583TIP3    H253241   2.313   4.399   1.850  1.0159 -0.5557 -0.0696
10584TIP3   OH253242   5.446   1.980  10.793  0.1890  0.3160 -0.3650
10584TIP3    H153243   5.403   1.895  10.795  1.2871 -0.2184  1.0865
10584TIP3    H253244   5.509   1.973  10.721 -1.4429  0.7869 -1.8895
10585TIP3   OH253245   6.151   3.782  11.725 -0.0667  0.2821  0.1542
10585TIP3    H153246   6.169   3.691  11.750 -0.2398 -0.3432 -1.9233
10585TIP3    H253247   6.237   3.820  11.711 -0.0764 -0.3886 -1.7900
10586TIP3   OH253248   1.946   3.558  16.116 -0.0900  0.0374 -0.6197
10586TIP3    H153249   2.004   3.627  16.084  0.7063 -0.0582  0.5662
10586TIP3    H253250   1.925   3.584  16.206 -4.5182  1.7509 -1.9953
10587TIP3   OH253251   4.936   6.553  16.062  0.4526  0.0257 -0.4026
10587TIP3    H153252   5.027   6.525  16.063  0.4787  0.1314  0.5630
10587TIP3    H253253   4.898   6.510  15.986  0.8767 -1.3875  0.1801
10588TIP3   OH253254   4.925   1.982  16.349 -0.1931  0.0157  0.8800
10588TIP3    H153255   4.872   1.953  16.423 -0.4908 -1.0281  0.2651
10588TIP3    H253256   4.915   2.077  16.349 -1.1524 -0.0742  1.4488
10589TIP3   OH253257   3.175   0.281   3.755  0.6006  0.3107 -0.3983
10589TIP3    H153258   3.245   0.221   3.730  0.0986 -1.3236  1.8830
10589TIP3    H253259   3.217   0.346   3.810  0.3810 -0.6487  0.9395
10590TIP3   OH253260   1.026   3.893  12.775  0.5300  0.3004  0.5360
10590TIP3    H153261   1.090   3.876  12.706 -1.1506 -0.6871 -0.8239
10590TIP3    H253262   1.051   3.834  12.846  2.1131  1.1351  0.7040
10591TIP3   OH253263   1.998   3.597  16.972  0.0332  0.2553 -0.0403
10591TIP3    H153264   1.981   3.561  16.885  2.5825  0.4903 -0.6740
10591TIP3    H253265   1.945   3.677  16.976 -2.1016 -1.1132 -0.3630
10592TIP3   OH253266   0.569   0.112  12.330  0.6800 -0.4683  0.7388
10592TIP3    H153267   0.496   0.121  12.391 -0.0964  0.5533 -0.3271
10592TIP3    H253268   0.529   0.116  12.243  2.1501  1.6140  0.1152
10593TIP3   OH253269   1.092   1.098   0.766  0.1487  0.1284 -0.6225
10593TIP3    H153270   1.140   1.028   0.811 -1.1889 -0.6286 -0.3473
10593TIP3    H253271   1.144   1.177   0.782  0.8874 -0.5361  0.3270
10594TIP3   OH253272   4.038   5.707  11.637 -0.1499  0.8310 -0.2558
10594TIP3    H153273   4.005   5.666  11.717 -0.1156 -0.1692 -0.7468
10594TIP3    H253274   4.116   5.656  11.614 -0.7742  0.4254 -1.5269
10595TIP3   OH253275   6.387   3.086   2.343  0.2022  0.9517 -0.7526
10595TIP3    H153276   6.424   3.027   2.277 -0.1388 -1.4660  1.1158
10595TIP3    H253277   6.294   3.093   2.318 -0.1537 -0.7797  0.0110
10596TIP3   OH253278   0.188   3.187  11.940  0.1145  0.4411  0.2496
10596TIP3    H153279   0.234   3.210  11.860 -1.5582  0.7488 -0.6397
10596TIP3    H253280   0.168   3.093  11.930  0.7882  0.2441  0.7532
10597TIP3   OH253281   3.406   1.738   4.015 -0.2794 -0.2105  0.9268
10597TIP3    H153282   3.407   1.650   4.052 -0.3627 -0.5238  0.1931
10597TIP3    H253283   3.408   1.797   4.091  0.1625 -0.8447  1.4056
10598TIP3   OH253284   1.837   4.299  13.251 -0.3148  0.0065 -0.3167
10598TIP3    H153285   1.800   4.385  13.273 -0.7977 -0.2334 -0.1647
10598TIP3    H253286   1.760   4.244  13.233 -0.1854 -1.1947  2.5157
10599TIP3   OH253287   0.506   1.487   3.646  0.1415 -0.2851 -0.3962
10599TIP3    H153288   0.573   1.424   3.671 -0.4416 -0.3786  0.9936
10599TIP3    H253289   0.449   1.493   3.723 -0.5573  0.9464 -0.9943
10600TIP3   OH253290   1.737   2.919  15.486 -0.3243 -0.0783 -0.5068
10600TIP3    H153291   1.825   2.900  15.520  0.0953 -0.0268 -1.5580
10600TIP3    H253292   1.734   2.875  15.402 -1.2265  0.1356 -0.5915
10601TIP3   OH253293   4.150   1.974  16.510  0.0887  0.2466  0.1603
10601TIP3    H153294   4.240   1.946  16.495  0.3990  1.4453 -0.2722
10601TIP3    H253295   4.137   2.048  16.450 -1.4855 -0.5108 -0.4666
10602TIP3   OH253296   5.973   3.425   6.070 -0.5319 -0.0549  0.3809
10602TIP3    H153297   6.011   3.435   6.157  0.9626 -2.8446  0.0864
10602TIP3    H253298   5.879   3.428   6.084 -0.2854  0.3719  1.9720
10603TIP3   OH253299   3.369   0.722  16.538  0.0385 -0.0200  0.7186
10603TIP3    H153300   3.423   0.795  16.570 -0.1981 -0.5877  2.4992
10603TIP3    H253301   3.424   0.645  16.550  0.1088 -0.1956 -0.7150
10604TIP3   OH253302   4.970   5.554  13.160  0.3583  0.2090  0.2478
10604TIP3    H153303   4.935   5.604  13.087 -0.6444 -0.3526  0.3456
10604TIP3    H253304   5.042   5.608  13.193  0.9468  0.3725 -1.2642
10605TIP3   OH253305   5.385   0.496  12.751 -0.4805 -0.1400 -0.5655
10605TIP3    H153306   5.291   0.478  12.747 -0.3072 -0.6347 -4.2219
10605TIP3    H253307   5.391   0.583  12.789 -2.4195 -0.0257 -0.4685
10606TIP3   OH253308   5.745   1.050   2.614 -0.1472  0.6804  0.2113
10606TIP3    H153309   5.739   1.117   2.545  2.6463 -0.7534 -1.5369
10606TIP3    H253310   5.697   0.976   2.578 -0.0360  0.4784  0.4871
10607TIP3   OH253311   3.795   2.058  15.701  0.1201 -0.6806  0.3929
10607TIP3    H153312   3.801   2.039  15.794 -0.0944  0.5314  0.6599
10607TIP3    H253313   3.887   2.061  15.672  0.2356  0.1365  0.8182
10608TIP3   OH253314   0.310   5.527  13.224  0.0280  0.1694  0.1953
10608TIP3    H153315   0.287   5.435  13.211 -2.3110  0.9575 -1.6375
10608TIP3    H253316   0.247   5.558  13.289  0.5796  0.5628  0.5422
10609TIP3   OH253317   5.363   2.793   1.686 -0.0021 -0.1812 -0.6261
10609TIP3    H153318   5.335   2.860   1.747 -0.7229  0.4358 -1.6221
10609TIP3    H253319   5.441   2.830   1.644 -0.0160 -0.2465 -0.7100
10610TIP3   OH253320   1.673   1.722  15.720  0.0567 -0.1738 -0.5032
10610TIP3    H153321   1.586   1.738  15.685 -0.8827 -0.6830  1.5377
10610TIP3    H253322   1.670   1.758  15.809  2.0841  0.2533 -0.5807
10611TIP3   OH253323   2.913   5.321   5.862  0.0174 -0.6140  0.2563
10611TIP3    H153324   2.827   5.350   5.832  0.0530  0.7166  1.4064
10611TIP3    H253325   2.975   5.363   5.803 -0.0258  0.0566  0.6889
10612TIP3   OH253326   0.665   2.586  15.398 -0.0292  0.1783 -0.1153
10612TIP3    H153327   0.730   2.575  15.329  0.1215 -2.1799  0.3644
10612TIP3    H253328   0.614   2.663  15.372  0.4009 -0.3268 -2.5174
10613TIP3   OH253329   0.942   0.798  12.995  0.6482  0.2825  0.5240
10613TIP3    H153330   0.896   0.815  12.913  0.4996 -1.1566  0.2852
10613TIP3    H253331   1.031   0.828  12.980  0.9241 -1.0665 -0.5915
10614TIP3   OH253332   4.186   0.380  14.457 -0.5314 -0.0232  0.5998
10614TIP3    H153333   4.141   0.316  14.402  0.9872 -2.5191  2.1939
10614TIP3    H253334   4.227   0.329  14.527  0.7005  2.6818  1.9714
10615TIP3   OH253335   4.050   1.736   2.433 -0.2415  0.0935 -0.3370
10615TIP3    H153336   4.068   1.787   2.355 -2.5099  0.7986 -0.4488
10615TIP3    H253337   4.075   1.793   2.506 -0.2605  0.3183 -0.5085
10616TIP3   OH253338   4.244   5.492  12.929  0.4413  0.0887  0.0848
10616TIP3    H153339   4.278   5.465  12.843  1.6668 -0.0422  0.6078
10616TIP3    H253340   4.317   5.478  12.989  0.2729  2.1804  0.7997
10617TIP3   OH253341   3.659   4.956  16.304 -0.0864 -0.0121 -0.1691
10617TIP3    H153342   3.658   4.872  16.258 -0.7070 -0.8747  1.3611
10617TIP3    H253343   3.602   4.942  16.380 -2.2675  2.5966 -1.2434
10618TIP3   OH253344   1.308   3.827   2.488 -0.1203  0.4595  0.7590
10618TIP3    H153345   1.259   3.797   2.565  0.1369  3.2568  2.0614
10618TIP3    H253346   1.372   3.757   2.472 -2.8808 -2.1159  0.4830
10619TIP3   OH253347   0.619   5.675   3.361 -0.2402 -0.4099 -0.4807
10619TIP3    H153348   0.617   5.619   3.283  0.7323  0.4194 -1.1220
10619TIP3    H253349   0.655   5.758   3.329  3.3450 -1.1128  1.4822
10620TIP3   OH253350   4.272   5.924  12.323 -0.0633  0.2210  0.7643
10620TIP3    H153351   4.217   5.990  12.283 -0.4306  0.7586  2.1418
10620TIP3    H253352   4.300   5.868  12.250 -1.2553  0.7869 -0.1294
10621TIP3   OH253353   4.292   4.217   0.268 -0.3048  0.0771  0.1845
10621TIP3    H153354   4.334   4.210   0.182  0.5631  1.8612  0.4410
10621TIP3    H253355   4.364   4.211   0.330 -1.0134 -1.9696  0.8473
10622TIP3   OH253356   5.580   3.644  14.028  0.2368 -0.1868  0.0951
10622TIP3    H153357   5.579   3.599  14.112  1.8662  0.5525  0.5420
10622TIP3    H253358   5.673   3.660  14.011  0.0209 -1.5176 -2.5090
10623TIP3   OH253359   3.594   4.002  16.959 -0.0021  0.2063 -0.0470
10623TIP3    H153360   3.512   3.954  16.972  0.4292 -0.5904 -0.2334
10623TIP3    H253361   3.662   3.937  16.971  0.5751  0.6155 -1.0215
10624TIP3   OH253362   1.254   4.522  12.977 -0.9978 -0.3022  0.5253
10624TIP3    H153363   1.175   4.517  13.031 -0.7199  3.1981  1.3543
10624TIP3    H253364   1.223   4.538  12.888 -1.2559  0.7098  0.7936
10625TIP3   OH253365   4.594   5.557   2.261 -0.4616  0.3235  0.6112
10625TIP3    H153366   4.670   5.569   2.203 -2.1771 -0.4582 -1.8994
10625TIP3    H253367   4.562   5.470   2.240 -0.6277 -0.3322  3.4423
10626TIP3   OH253368   3.105   1.117   0.802 -0.0814  0.2743 -0.6846
10626TIP3    H153369   3.131   1.040   0.752 -0.6681 -0.2853 -0.1450
10626TIP3    H253370   3.036   1.085   0.861 -0.1662  1.1581 -0.2943
10627TIP3   OH253371   4.967   0.754   1.830 -0.2482 -0.4146  0.7346
10627TIP3    H153372   4.941   0.841   1.861 -1.6711 -0.8829  0.8927
10627TIP3    H253373   5.021   0.719   1.900 -2.6738 -1.0987  2.3207
10628TIP3   OH253374   2.351   0.633  14.849 -0.4820  0.2939  0.5217
10628TIP3    H153375   2.447   0.638  14.849 -0.4906  0.4601  0.3021
10628TIP3    H253376   2.322   0.716  14.811 -0.6913 -0.0979 -0.1951
10629TIP3   OH253377   4.670   2.870   0.400  0.5906 -0.4861 -0.3454
10629TIP3    H153378   4.615   2.801   0.364 -0.6562  0.1921  0.2285
10629TIP3    H253379   4.615   2.948   0.398  1.1792 -0.0101  1.1484
10630TIP3   OH253380   3.603   5.709   1.536  0.6848  0.1445  0.3939
10630TIP3    H153381   3.596   5.614   1.541  2.1696  0.0509  1.0631
10630TIP3    H253382   3.695   5.727   1.555  0.1964  1.7720  1.3063
10631TIP3   OH253383   4.207   1.339  10.379  0.1322 -0.5383 -0.7679
10631TIP3    H153384   4.235   1.417  10.330  2.2419 -0.6348  0.2049
10631TIP3    H253385   4.136   1.370  10.435 -0.2048  0.2857 -1.6259
10632TIP3   OH253386   1.296   1.574   5.485  0.5971 -0.3533  0.2968
10632TIP3    H153387   1.256   1.659   5.502  1.0117  0.0994 -0.9177
10632TIP3    H253388   1.243   1.512   5.534 -0.3252  0.4896  0.3817
10633TIP3   OH253389   3.162   0.459  14.390  0.0493 -0.1786  0.3845
10633TIP3    H153390   3.077   0.465  14.434 -0.6704 -0.4609 -0.9449
10633TIP3    H253391   3.150   0.509  14.309  0.5867 -1.7298 -0.6704
10634TIP3   OH253392   0.683   4.081   0.992 -0.8797  0.3182 -0.8525
10634TIP3    H153393   0.654   3.990   0.998 -1.0273  0.3822 -0.5900
10634TIP3    H253394   0.653   4.122   1.074 -0.0105  0.3719 -0.5529
10635TIP3   OH253395   0.693   1.530   5.143  0.0751  0.4755 -0.2743
10635TIP3    H153396   0.736   1.530   5.228 -0.0565 -1.9990 -0.1782
10635TIP3    H253397   0.601   1.548   5.162  0.1927  0.7471  0.0331
10636TIP3   OH253398   5.226   4.872  13.736  0.2214 -0.0652  0.1057
10636TIP3    H153399   5.286   4.834  13.800 -0.7575 -0.2985  0.8991
10636TIP3    H253400   5.174   4.799  13.705 -0.3360  0.2996  0.1687
10637TIP3   OH253401   1.623   5.919   0.822 -0.1196 -0.4074 -0.0394
10637TIP3    H153402   1.711   5.890   0.844  0.5306  1.0388 -0.7070
10637TIP3    H253403   1.576   5.918   0.905  0.6897 -0.6048  0.4221
10638TIP3   OH253404   6.489   6.456  11.670 -0.0997  0.4779 -0.2490
10638TIP3    H153405   6.494   6.426  11.761 -0.3603  0.4290 -0.2510
10638TIP3    H253406   6.503   6.376  11.618  0.9063  0.6489 -0.2551
10639TIP3   OH253407   1.243   0.731  16.781 -0.5284  0.0026 -0.0435
10639TIP3    H153408   1.301   0.803  16.754  0.1909  0.0218  1.5121
10639TIP3    H253409   1.225   0.748  16.873 -2.7178 -0.2374 -0.4027
10640TIP3   OH253410   3.129   1.609  17.009  0.1164 -0.4144  0.7186
10640TIP3    H153411   3.108   1.691  17.053  0.2038  0.2346 -0.4290
10640TIP3    H253412   3.224   1.600  17.019  0.1988 -0.0379  0.2661
10641TIP3   OH253413   0.305   0.180   5.633 -0.2365  0.3071 -0.1578
10641TIP3    H153414   0.235   0.225   5.680 -0.2153  1.9889 -1.7018
10641TIP3    H253415   0.291   0.203   5.541  2.0031  0.1886 -0.5462
10642TIP3   OH253416   3.320   3.009  12.688 -0.3590 -0.0397  0.2347
10642TIP3    H153417   3.416   3.013  12.682 -0.3864 -0.1019 -0.2535
10642TIP3    H253418   3.290   3.091  12.648 -0.5161 -0.1093  0.2081
10643TIP3   OH253419   2.913   3.720   2.544  0.3206 -0.1212 -0.3296
10643TIP3    H153420   2.923   3.627   2.561  0.4376  0.0404  0.4942
10643TIP3    H253421   2.988   3.742   2.488  2.4457  0.2379  2.5364
10644TIP3   OH253422   5.955   0.436  14.254 -0.5719  0.0613 -0.8866
10644TIP3    H153423   5.966   0.523  14.292 -1.0014 -1.2647  2.5264
10644TIP3    H253424   5.862   0.430  14.233 -0.7704  0.0570 -0.0509
10645TIP3   OH253425   6.089   3.088   1.023  0.2233 -0.0922 -0.1134
10645TIP3    H153426   6.028   3.153   0.987  0.0117 -0.0308  0.3565
10645TIP3    H253427   6.129   3.048   0.945  0.6772  0.9014 -0.3987
10646TIP3   OH253428   2.956   4.517  13.110  0.6506 -0.9715  0.1038
10646TIP3    H153429   3.038   4.496  13.067  0.1515 -1.8970 -0.3991
10646TIP3    H253430   2.904   4.561  13.043  1.0059  0.2806  0.6331
10647TIP3   OH253431   3.699   4.658  16.201  0.2176 -0.6955  0.4746
10647TIP3    H153432   3.779   4.629  16.244  1.8070  0.6540 -1.5154
10647TIP3    H253433   3.706   4.625  16.112 -1.4958 -0.6456  0.3033
10648TIP3   OH253434   3.457   2.902  15.531 -0.3703 -0.1256 -0.0705
10648TIP3    H153435   3.459   2.903  15.436  1.6541  0.8710 -0.0449
10648TIP3    H253436   3.366   2.885  15.554 -1.0479  0.6307 -2.1679
10649TIP3   OH253437   6.735   2.101   1.495  0.5121 -0.3430  0.3412
10649TIP3    H153438   6.793   2.172   1.522  0.8566 -0.4390 -0.1305
10649TIP3    H253439   6.683   2.138   1.424 -0.1699 -0.1850  0.9197
10650TIP3   OH253440   0.211   0.874   6.399  0.1083 -1.1024 -0.0854
10650TIP3    H153441   0.168   0.793   6.425  0.4170 -1.3986 -0.4820
10650TIP3    H253442   0.262   0.850   6.321 -1.4566 -0.0421 -1.4632
10651TIP3   OH253443   2.803   0.864  16.491  0.1207  0.6405  0.2763
10651TIP3    H153444   2.884   0.901  16.458  0.3705  0.3947  0.6056
10651TIP3    H253445   2.831   0.796  16.552 -0.3323  0.2363  0.0376
10652TIP3   OH253446   2.149   6.544  15.600 -0.3244  0.3405 -0.4821
10652TIP3    H153447   2.058   6.551  15.626 -0.7847 -0.9405 -1.7298
10652TIP3    H253448   2.183   6.468  15.648  0.1302  0.8645  0.0494
10653TIP3   OH253449   1.523   3.599  14.172  0.2439 -0.2766  0.1378
10653TIP3    H153450   1.538   3.692  14.190 -1.4279 -0.2407  1.4143
10653TIP3    H253451   1.444   3.597  14.118  0.4014 -0.9477 -0.0754
10654TIP3   OH253452   2.513   2.490   5.110  0.0220  0.1181 -0.0621
10654TIP3    H153453   2.585   2.436   5.142  0.3562  1.1696  1.0156
10654TIP3    H253454   2.538   2.580   5.133 -0.1714  0.8376 -2.4467
10655TIP3   OH253455   0.999   5.374  12.835  0.4595  0.1303  0.4014
10655TIP3    H153456   0.938   5.415  12.896 -2.2094  0.2351 -2.1799
10655TIP3    H253457   1.040   5.447  12.788 -2.6392  0.0501 -2.6368
10656TIP3   OH253458   4.912   3.496  10.813  0.2926 -0.4602 -0.3152
10656TIP3    H153459   4.958   3.515  10.731 -0.2585 -0.4194 -0.6171
10656TIP3    H253460   4.978   3.454  10.868  1.2853  1.5291  0.0449
10657TIP3   OH253461   2.688   2.135   5.677  0.1470  0.0484 -0.1060
10657TIP3    H153462   2.656   2.186   5.752  1.5547  0.7264  0.0593
10657TIP3    H253463   2.672   2.044   5.702 -2.5095  0.3730 -0.4513
10658TIP3   OH253464   0.797   4.126  14.845 -0.0712  0.4867  0.4234
10658TIP3    H153465   0.702   4.118  14.855  0.0565 -2.9390 -0.3698
10658TIP3    H253466   0.810   4.213  14.808 -3.0174  0.6515 -0.3465
10659TIP3   OH253467   3.655   2.826   4.475  0.4457  0.0287 -0.3015
10659TIP3    H153468   3.581   2.880   4.502 -0.7056 -1.5360 -0.2182
10659TIP3    H253469   3.701   2.805   4.556 -0.7529 -1.4412  0.0164
10660TIP3   OH253470   5.655   6.185   3.724  0.1187 -0.1467 -0.2573
10660TIP3    H153471   5.630   6.108   3.674  2.7727 -1.6074  0.5358
10660TIP3    H253472   5.699   6.242   3.660 -1.6275  0.6357 -0.7894
10661TIP3   OH253473   0.596   2.229  13.663  0.2960  0.1709 -0.2287
10661TIP3    H153474   0.602   2.173  13.586 -1.8373 -1.4334  0.7035
10661TIP3    H253475   0.674   2.207  13.715 -0.2721 -1.6156 -0.1025
10662TIP3   OH253476   5.919   2.759   4.518  0.3210  0.2222  0.5687
10662TIP3    H153477   5.949   2.692   4.580  2.1223  0.1401 -0.3422
10662TIP3    H253478   5.986   2.758   4.449 -2.3954 -0.7696 -2.1486
10663TIP3   OH253479   0.752   3.211   4.876 -0.9957 -0.2362 -0.5429
10663TIP3    H153480   0.672   3.199   4.824 -0.1615  0.0199 -1.9333
10663TIP3    H253481   0.823   3.195   4.814  0.0422  1.3457  0.1977
10664TIP3   OH253482   2.699   4.198   4.575 -0.1052 -0.0177  0.7263
10664TIP3    H153483   2.621   4.242   4.542 -1.0166 -2.1653 -0.0694
10664TIP3    H253484   2.675   4.170   4.663 -0.0283 -0.1473  0.7065
10665TIP3   OH253485   5.530   1.835  16.548  0.4514  0.7646  0.0736
10665TIP3    H153486   5.564   1.924  16.556 -1.2120  1.2552  2.2364
10665TIP3    H253487   5.604   1.779  16.572  1.2605  1.5855 -0.4836
10666TIP3   OH253488   5.891   6.259   3.567 -0.0809  0.0808  0.8186
10666TIP3    H153489   5.914   6.167   3.554 -1.5966 -0.6889  3.3783
10666TIP3    H253490   5.878   6.292   3.478  4.9715 -0.8923 -0.4856
10667TIP3   OH253491   4.289   4.934  10.647  0.1116  0.1944  0.1390
10667TIP3    H153492   4.244   4.870  10.591  0.0925 -0.3779  0.7922
10667TIP3    H253493   4.378   4.938  10.613 -0.0482  0.2531 -0.2700
10668TIP3   OH253494   4.168   5.885  11.919 -0.7918 -0.1973 -0.1499
10668TIP3    H153495   4.238   5.950  11.920 -0.2431 -0.7751 -0.2046
10668TIP3    H253496   4.204   5.812  11.868 -1.0018 -0.9573  0.7724
10669TIP3   OH253497   3.190   1.051   4.973  0.3666  0.3967  0.4504
10669TIP3    H153498   3.266   0.995   4.955 -0.7815 -0.6354 -1.4649
10669TIP3    H253499   3.201   1.126   4.914 -0.3972 -0.0695 -0.3040
10670TIP3   OH253500   1.255   0.007  17.270  0.1225 -0.1747  0.0804
10670TIP3    H153501   1.318   0.037  17.335  0.0624 -0.6479  0.3529
10670TIP3    H253502   1.298   0.023  17.186  1.4171 -2.3118  0.3106
10671TIP3   OH253503   1.441   5.130   1.290  0.2728  0.4105  0.0412
10671TIP3    H153504   1.415   5.152   1.201 -0.9314 -1.5302 -0.0966
10671TIP3    H253505   1.520   5.077   1.280 -1.1511 -1.7318  0.0039
10672TIP3   OH253506   2.427   1.484   3.458 -0.1189  0.5058  0.6159
10672TIP3    H153507   2.500   1.425   3.439 -1.3681 -0.6821 -0.5779
10672TIP3    H253508   2.390   1.451   3.541 -0.5314 -0.1288  0.1857
10673TIP3   OH253509   4.769   1.375  16.040 -0.6748  0.8553  0.6491
10673TIP3    H153510   4.754   1.401  16.130 -0.0705  0.1518  0.9554
10673TIP3    H253511   4.832   1.303  16.045 -3.3314 -1.6176 -0.1115
10674TIP3   OH253512   0.459   6.020   1.601 -0.0931  0.8675 -0.5102
10674TIP3    H153513   0.443   5.976   1.517 -0.8934 -0.4414  0.2995
10674TIP3    H253514   0.492   6.107   1.577  1.6681 -0.1971 -2.1721
10675TIP3   OH253515   2.808   6.776  11.623 -0.9043  0.1616 -0.0776
10675TIP3    H153516   2.793   6.773  11.718  0.2693 -0.6918  0.0939
10675TIP3    H253517   2.806   6.684  11.596 -2.2037  0.4606 -1.0463
10676TIP3   OH253518   6.722   2.967   1.092 -0.4687  0.4707  0.2970
10676TIP3    H153519   6.674   3.027   1.149  0.3767  1.8351 -0.4126
10676TIP3    H253520   6.702   2.997   1.003  1.1752  0.6510 -0.0219
10677TIP3   OH253521   5.367   1.025  14.602 -0.3307 -0.1211  0.3091
10677TIP3    H153522   5.321   1.088  14.546 -0.8804  0.8553  1.8140
10677TIP3    H253523   5.312   1.019  14.680  2.0227  0.9556  2.0791
10678TIP3   OH253524   0.508   3.492  15.641 -0.6269 -0.1269  0.5071
10678TIP3    H153525   0.429   3.531  15.679 -0.2350  0.0332  1.1529
10678TIP3    H253526   0.537   3.427  15.705 -0.1849 -0.1352  0.3028
10679TIP3   OH253527   6.554   3.381   1.413 -0.6028 -0.1680 -0.4456
10679TIP3    H153528   6.460   3.384   1.434 -0.4968 -1.1655  0.1572
10679TIP3    H253529   6.578   3.473   1.401 -1.4016  0.1856  0.5621
10680TIP3   OH253530   3.596   6.173   1.832  0.3302  0.2792  0.5425
10680TIP3    H153531   3.647   6.198   1.755  0.1668  0.1255  0.3841
10680TIP3    H253532   3.510   6.148   1.797  0.1352  0.5700  0.8134
10681TIP3   OH253533   3.470   0.126   3.595  0.1189  0.4567  0.4143
10681TIP3    H153534   3.421   0.087   3.667 -0.6235  0.5655 -0.0292
10681TIP3    H253535   3.411   0.191   3.558 -0.4361 -1.2511 -1.8101
10682TIP3   OH253536   1.605   1.128  16.854 -0.0674 -0.0597  0.1697
10682TIP3    H153537   1.530   1.158  16.905 -0.5649  2.0279 -1.7021
10682TIP3    H253538   1.584   1.038  16.830 -0.3532 -0.6651  2.5992
10683TIP3   OH253539   4.034   5.178  12.037 -0.2067 -0.1330  0.4755
10683TIP3    H153540   3.985   5.119  12.094 -0.5618  2.7284  3.2797
10683TIP3    H253541   3.967   5.219  11.982 -0.3470 -0.0514  0.7049
10684TIP3   OH253542   6.459   1.172   5.486 -0.0359  0.0957 -0.3319
10684TIP3    H153543   6.388   1.185   5.549  0.7112  2.3480  0.0746
10684TIP3    H253544   6.539   1.187   5.536  0.6555 -0.2327 -1.3181
10685TIP3   OH253545   1.744   3.404  17.091 -0.0855 -0.0199 -0.2922
10685TIP3    H153546   1.656   3.370  17.109 -0.4479  1.7895  1.4280
10685TIP3    H253547   1.732   3.461  17.014 -0.5023  0.5182  0.1634
10686TIP3   OH253548   6.191   6.003  12.568 -0.0050  0.1305 -0.0456
10686TIP3    H153549   6.150   6.026  12.485  1.1152 -1.5453 -1.1000
10686TIP3    H253550   6.125   5.953  12.615 -0.6970  1.2162  0.1490
10687TIP3   OH253551   0.728   1.151  12.392 -0.2434  0.3339  0.7946
10687TIP3    H153552   0.685   1.222  12.344 -1.1360 -0.0076  1.0846
10687TIP3    H253553   0.698   1.161  12.482  2.1972  1.5581  1.5009
10688TIP3   OH253554   1.937   5.687  11.514 -0.8605  0.1666  0.0085
10688TIP3    H153555   1.936   5.609  11.458 -4.0577  0.3464 -0.2898
10688TIP3    H253556   1.971   5.757  11.458 -0.1594 -0.5380 -0.4423
10689TIP3   OH253557   4.289   6.218   0.879  0.7877  0.0269  0.1209
10689TIP3    H153558   4.214   6.165   0.908  0.3166  1.4352  1.5353
10689TIP3    H253559   4.338   6.160   0.821  0.9458 -2.3766  2.5849
10690TIP3   OH253560   4.299   3.250   2.072 -0.6813  0.2652 -0.4884
10690TIP3    H153561   4.315   3.189   2.143  0.8984  0.8854 -0.2715
10690TIP3    H253562   4.382   3.298   2.063 -1.2337  0.9844 -1.9674
10691TIP3   OH253563   6.176   4.133  15.991 -0.0608 -0.2080 -0.2205
10691TIP3    H153564   6.085   4.111  15.971 -0.4040 -0.1174  1.2056
10691TIP3    H253565   6.226   4.057  15.961 -0.4997  0.1503 -1.8946
10692TIP3   OH253566   6.186   3.997   2.009 -0.4987 -0.1086 -0.3083
10692TIP3    H153567   6.212   4.087   1.988  0.7111 -0.2701  0.4215
10692TIP3    H253568   6.097   3.989   1.977 -0.6325  1.3809 -0.3254
10693TIP3   OH253569   5.558   4.894  15.477  0.1357 -0.0722 -0.3216
10693TIP3    H153570   5.650   4.879  15.454  0.2093 -1.4329  0.8059
10693TIP3    H253571   5.518   4.926  15.396  0.8337 -2.7753 -1.7948
10694TIP3   OH253572   2.572   2.760   5.148  0.1011 -0.5443 -0.4016
10694TIP3    H153573   2.639   2.809   5.196 -0.6644  0.8093 -0.6975
10694TIP3    H253574   2.511   2.827   5.116 -1.5801 -1.7621  0.1399
10695TIP3   OH253575   4.781   2.194  10.663  0.3686 -0.0551 -0.8106
10695TIP3    H153576   4.872   2.187  10.634  0.8540  1.9490  0.1860
10695TIP3    H253577   4.739   2.250  10.599  0.4284  0.9765  0.0421
10696TIP3   OH253578   3.385   5.401   6.595 -0.1230  0.3484  0.0236
10696TIP3    H153579   3.367   5.425   6.687  1.2965 -0.9061  0.6368
10696TIP3    H253580   3.479   5.414   6.585  0.0899 -1.6145 -0.6245
10697TIP3   OH253581   6.541   6.631   1.949 -0.2382 -0.0099  0.0109
10697TIP3    H153582   6.482   6.703   1.929  0.1077 -0.2836 -2.1235
10697TIP3    H253583   6.492   6.552   1.927  1.3326 -0.1996 -3.1826
10698TIP3   OH253584   6.816   0.502   2.494  0.1696 -0.3291 -1.0353
10698TIP3    H153585   6.784   0.592   2.491 -1.6634 -0.9507 -0.8337
10698TIP3    H253586   6.895   0.506   2.548 -1.2307  0.7804  0.9745
10699TIP3   OH253587   4.579   3.246   2.083 -0.3337  0.7218 -0.2389
10699TIP3    H153588   4.622   3.164   2.061 -1.4116 -0.0991  0.7008
10699TIP3    H253589   4.617   3.310   2.022  0.6890 -0.4069 -0.7958
10700TIP3   OH253590   4.669   3.534   5.219  0.2020  0.9567  0.1659
10700TIP3    H153591   4.762   3.522   5.198  0.5652  2.3807  0.8490
10700TIP3    H253592   4.664   3.516   5.313 -0.3296  0.3382  0.0249
10701TIP3   OH253593   5.468   2.491   0.979  0.3517 -0.2535  0.2119
10701TIP3    H153594   5.415   2.564   1.013 -1.3171 -1.8524  1.1610
10701TIP3    H253595   5.412   2.451   0.912  1.9369  0.3208 -1.4931
10702TIP3   OH253596   2.113   2.554  15.209  0.0996 -0.1664  0.3873
10702TIP3    H153597   2.084   2.600  15.288  1.3274 -0.8557  1.2466
10702TIP3    H253598   2.188   2.605  15.177  0.8322 -0.9891  0.7759
10703TIP3   OH253599   3.535   5.805  12.306 -0.5661 -0.2562 -0.6290
10703TIP3    H153600   3.566   5.719  12.276 -0.3667 -0.4185  0.0227
10703TIP3    H253601   3.610   5.863  12.293  0.2842 -0.7984  1.6009
10704TIP3   OH253602   4.090   6.286  13.977 -0.0818 -0.0983 -0.6869
10704TIP3    H153603   4.017   6.266  14.034  0.1879  0.1052 -0.2634
10704TIP3    H253604   4.151   6.213  13.989  0.2929  0.2939 -0.1706
10705TIP3   OH253605   6.443   6.617   1.527 -0.1991  0.0877 -0.0695
10705TIP3    H153606   6.506   6.557   1.567 -1.0836 -1.7291 -1.3522
10705TIP3    H253607   6.421   6.678   1.597  0.5397 -1.2126  1.3269
10706TIP3   OH253608   1.650   1.748  11.413 -0.0807 -0.5276 -0.1644
10706TIP3    H153609   1.735   1.713  11.438  0.3510  0.1454 -0.6531
10706TIP3    H253610   1.669   1.806  11.339 -0.8841  0.0587  0.0773
10707TIP3   OH253611   5.030   0.911  11.189  0.3737 -0.0647  0.1338
10707TIP3    H153612   5.037   0.831  11.136 -0.2035 -0.8559  1.2282
10707TIP3    H253613   4.937   0.917  11.211  0.6976 -0.0886  1.5575
10708TIP3   OH253614   1.145   6.355   5.575  0.4650  0.2060 -0.3043
10708TIP3    H153615   1.130   6.382   5.666 -0.3295 -1.6780  0.1642
10708TIP3    H253616   1.167   6.435   5.529 -1.4312  1.5879  1.0884
10709TIP3   OH253617   3.967   6.730   0.864  0.2963 -0.2334 -0.3377
10709TIP3    H153618   4.028   6.781   0.918  0.2766 -1.4686  0.8646
10709TIP3    H253619   3.892   6.715   0.921  0.7473 -2.5201 -0.3009
10710TIP3   OH253620   2.558   3.423  11.540 -0.1017 -0.3663  0.1679
10710TIP3    H153621   2.487   3.458  11.486  1.0808  0.3625 -0.9565
10710TIP3    H253622   2.560   3.480  11.617  0.2694  0.6105 -0.5447
10711TIP3   OH253623   0.030   1.435  13.367  0.2736 -0.4569 -0.4637
10711TIP3    H153624   0.019   1.515  13.419  0.3862 -0.8264  0.1352
10711TIP3    H253625   0.032   1.465  13.277  2.9065  0.4972 -0.1128
10712TIP3   OH253626   1.607   1.835   4.039  0.4665  0.0805 -0.4609
10712TIP3    H153627   1.542   1.822   3.970 -0.5295  0.8966  0.3116
10712TIP3    H253628   1.596   1.759   4.096 -0.4796  0.6803  0.1818
10713TIP3   OH253629   5.294   3.184   1.469  0.6186  0.7514  0.1805
10713TIP3    H153630   5.367   3.233   1.510  1.5451 -0.6259  0.2115
10713TIP3    H253631   5.337   3.120   1.413 -0.5786 -0.0874  0.2011
10714TIP3   OH253632   1.766   4.139   0.013 -0.1731  0.3347 -0.8203
10714TIP3    H153633   1.836   4.086  -0.024  0.8482 -0.4845  2.1550
10714TIP3    H253634   1.686   4.106  -0.027  0.6163 -2.3601 -0.2819
10715TIP3   OH253635   5.309   5.755  14.198 -0.1180  0.4056 -0.1111
10715TIP3    H153636   5.299   5.701  14.277 -1.9992 -0.1047 -0.6632
10715TIP3    H253637   5.246   5.826  14.209 -0.3026  0.4042 -1.0902
10716TIP3   OH253638   0.838   6.083   2.534  0.4978 -0.0429 -0.1908
10716TIP3    H153639   0.904   6.052   2.597 -1.0405  0.3234  1.6497
10716TIP3    H253640   0.877   6.066   2.448  2.3701 -1.1765  0.8492
10717TIP3   OH253641   5.808   6.050  16.239  0.5505 -0.0241 -0.2763
10717TIP3    H153642   5.868   6.047  16.165  0.6984 -1.2450 -0.1174
10717TIP3    H253643   5.748   5.977  16.225 -0.3247  0.6241  0.0507
10718TIP3   OH253644   4.691   4.553   3.611  0.0067  0.4751 -0.5673
10718TIP3    H153645   4.608   4.533   3.568 -0.3184  1.3258 -0.3515
10718TIP3    H253646   4.747   4.478   3.592 -0.1437  0.7980 -2.4386
10719TIP3   OH253647   3.196   4.532   3.799 -0.2407 -0.4699  0.2023
10719TIP3    H153648   3.109   4.571   3.783  0.0677 -0.4780 -1.5822
10719TIP3    H253649   3.254   4.607   3.809 -0.6590 -0.4368  2.8472
10720TIP3   OH253650   1.691   1.472  12.329 -0.2430 -0.8517  0.2338
10720TIP3    H153651   1.627   1.441  12.265  0.3634 -2.3475  0.3280
10720TIP3    H253652   1.657   1.557  12.358 -1.2468 -0.8122 -1.0291
10721TIP3   OH253653   5.232   1.709   2.696  0.1567  0.7899 -0.0276
10721TIP3    H153654   5.137   1.704   2.683  0.4421 -0.9126 -1.5976
10721TIP3    H253655   5.255   1.627   2.740  0.7839  1.6259  1.2418
10722TIP3   OH253656   6.267   4.347   5.870 -0.2474  0.0028 -0.6929
10722TIP3    H153657   6.275   4.383   5.959 -0.4447 -1.7305  0.0546
10722TIP3    H253658   6.356   4.350   5.836 -0.5856  2.9852 -1.3881
10723TIP3   OH253659   0.350   1.895  11.805  0.2921  0.5506  0.1883
10723TIP3    H153660   0.361   1.990  11.793 -1.6476  0.9830  1.6279
10723TIP3    H253661   0.362   1.881  11.899  0.8654 -0.6814 -0.0610
10724TIP3   OH253662   0.886   0.121  16.948  0.2757  0.1574 -0.7905
10724TIP3    H153663   0.852   0.211  16.955  1.0336  0.2789  1.5648
10724TIP3    H253664   0.808   0.068  16.933 -0.5224  0.8992  0.6196
10725TIP3   OH253665   6.533   6.197   2.531  0.2996  0.0711 -0.2209
10725TIP3    H153666   6.569   6.270   2.481 -2.1846  1.2653 -0.3611
10725TIP3    H253667   6.546   6.222   2.623 -0.1099  0.4754 -0.2709
10726TIP3   OH253668   6.738   3.894   6.049 -0.6125 -0.1607  0.4417
10726TIP3    H153669   6.678   3.963   6.079  0.1836  0.0352  1.5690
10726TIP3    H253670   6.712   3.879   5.958 -1.4817  0.8883  0.5052
10727TIP3   OH253671   6.080   5.874   0.762 -0.6523 -0.0163  0.2700
10727TIP3    H153672   6.153   5.851   0.705 -1.9031 -0.0776 -1.3647
10727TIP3    H253673   6.012   5.905   0.702 -1.4643  1.4070  1.8564
10728TIP3   OH253674   2.616   6.292  16.253 -0.4048  0.0247 -0.3834
10728TIP3    H153675   2.576   6.216  16.295  2.4472 -1.1227  0.3808
10728TIP3    H253676   2.705   6.263  16.231  0.2459  2.6736 -1.4110
10729TIP3   OH253677   2.364   5.158   3.673 -0.2394  0.6702  0.7587
10729TIP3    H153678   2.390   5.245   3.643 -0.1251  0.6558  0.8139
10729TIP3    H253679   2.345   5.171   3.767  0.3671  0.5078  0.9052
10730TIP3   OH253680   3.913   1.039   4.856  0.4431 -0.0061 -0.1675
10730TIP3    H153681   3.869   1.080   4.782  0.3529  0.8884  0.3745
10730TIP3    H253682   3.841   1.000   4.907  0.3482  0.7618  0.2924
10731TIP3   OH253683   6.153   5.080   5.200 -0.2551  0.6859  0.0089
10731TIP3    H153684   6.228   5.062   5.144  1.6535  2.8752  1.7764
10731TIP3    H253685   6.114   5.159   5.162 -0.8414  0.3497 -0.0900
10732TIP3   OH253686   0.302   6.399  14.657  0.1439 -0.1204 -0.3353
10732TIP3    H153687   0.339   6.328  14.709  0.3847  0.6215  0.5193
10732TIP3    H253688   0.355   6.401  14.578  0.5549 -0.4669 -0.0683
10733TIP3   OH253689   0.669   6.755  16.956 -0.2407 -0.2444  0.1037
10733TIP3    H153690   0.723   6.712  17.023 -1.3406 -0.5986  0.7704
10733TIP3    H253691   0.585   6.771  16.999 -0.6233  0.4444 -0.8821
10734TIP3   OH253692   4.219   5.028  13.948  0.1893  0.6135  0.2475
10734TIP3    H153693   4.238   5.117  13.976 -0.5302  0.5541  0.9153
10734TIP3    H253694   4.306   4.991  13.929  0.3824  2.0184 -1.8281
10735TIP3   OH253695   4.564   2.397   5.390  0.1925 -0.2324 -0.2981
10735TIP3    H153696   4.595   2.485   5.412  1.3019 -0.8420  0.5783
10735TIP3    H253697   4.630   2.362   5.332 -1.6557  0.5509 -2.9672
10736TIP3   OH253698   1.337   0.973   6.155  0.2488 -0.4248 -0.6675
10736TIP3    H153699   1.267   0.979   6.091  1.1646  0.4678 -1.6061
10736TIP3    H253700   1.417   0.973   6.103  0.9635 -0.7764  0.4188
10737TIP3   OH253701   4.449   6.123  12.375 -0.0177 -0.4603  0.0915
10737TIP3    H153702   4.508   6.115  12.300  0.7322  0.1939  0.5981
10737TIP3    H253703   4.381   6.059  12.359 -1.5487  1.7430 -2.6763
10738TIP3   OH253704   0.661   4.121   4.069 -0.2918  0.3912 -0.0197
10738TIP3    H153705   0.628   4.102   3.982  1.3267 -0.0626 -0.5581
10738TIP3    H253706   0.605   4.071   4.128 -0.8867  0.0664 -0.8554
10739TIP3   OH253707   3.129   0.151  15.536 -0.1827 -0.3638 -0.5198
10739TIP3    H153708   3.043   0.190  15.551  0.0151 -0.8166  2.0202
10739TIP3    H253709   3.121   0.107  15.451 -1.2648  2.7719 -2.1182
10740TIP3   OH253710   0.473   2.058   6.232  0.1673 -0.1008  0.4573
10740TIP3    H153711   0.449   1.977   6.188  0.3086  0.6464 -1.0215
10740TIP3    H253712   0.522   2.030   6.309 -0.0596 -1.4222  0.1266
10741TIP3   OH253713   0.960   1.414   2.873 -0.6607  0.2675 -0.3286
10741TIP3    H153714   0.883   1.357   2.866 -0.2536 -0.2613 -0.4768
10741TIP3    H253715   1.015   1.389   2.799  0.7041 -0.9062  1.0525
10742TIP3   OH253716   4.097   1.092   1.479  0.2105  0.3744  0.6395
10742TIP3    H153717   4.059   1.012   1.517  1.5825 -0.6615 -0.1375
10742TIP3    H253718   4.104   1.152   1.553 -1.2025 -0.0781  1.1586
10743TIP3   OH253719   3.950   4.257  14.522  0.1111 -0.5671 -0.4024
10743TIP3    H153720   3.869   4.306  14.535 -0.9162 -2.2174 -0.4039
10743TIP3    H253721   4.011   4.320  14.483 -0.4973  1.2728  1.5195
10744TIP3   OH253722   1.473   3.664  11.468 -0.5745 -0.0066 -0.8239
10744TIP3    H153723   1.512   3.737  11.418 -0.5400  0.4273 -0.1676
10744TIP3    H253724   1.544   3.601  11.477  0.3907  1.3257  1.4569
10745TIP3   OH253725   3.667   1.746   2.854 -0.5535  0.5429  0.0082
10745TIP3    H153726   3.589   1.698   2.826 -1.9738  3.4820 -1.2371
10745TIP3    H253727   3.716   1.764   2.774  1.0766 -0.6194  0.6994
10746TIP3   OH253728   3.725   5.046  11.431 -0.6801  0.2709  0.1261
10746TIP3    H153729   3.797   5.032  11.369 -0.7486  0.8010 -0.0765
10746TIP3    H253730   3.719   4.964  11.479 -0.5090 -0.0857 -0.4479
10747TIP3   OH253731   0.023   4.316   3.804 -0.3118  0.1273 -0.4936
10747TIP3    H153732   0.048   4.399   3.845  3.2381  0.1203 -2.5061
10747TIP3    H253733  -0.071   4.326   3.787 -0.3028  3.0528  0.7921
10748TIP3   OH253734   3.967   1.772  14.790 -0.0899  0.1297 -0.3304
10748TIP3    H153735   3.918   1.853  14.807 -1.0779 -0.3209 -0.9379
10748TIP3    H253736   4.015   1.790  14.709  1.0808  0.7119  0.4809
10749TIP3   OH253737   3.948   3.501  16.638  0.1729 -0.6648  0.2299
10749TIP3    H153738   3.939   3.479  16.731 -2.0888 -3.0946 -0.4813
10749TIP3    H253739   4.027   3.456  16.610  0.7377 -0.1131  0.9131
10750TIP3   OH253740   3.640   2.432   5.536 -0.2663  0.1689 -0.0599
10750TIP3    H153741   3.560   2.435   5.589 -0.1140 -0.2161  0.1961
10750TIP3    H253742   3.613   2.462   5.450 -0.4842  0.9574  0.2736
10751TIP3   OH253743   5.483   3.894   2.694  0.1128 -0.2586 -0.1594
10751TIP3    H153744   5.499   3.817   2.639  0.9716  0.3358 -0.7656
10751TIP3    H253745   5.396   3.879   2.731 -1.1581  0.0299 -2.8901
10752TIP3   OH253746   5.299   4.050   1.548 -0.5427 -0.2161  0.0834
10752TIP3    H153747   5.390   4.039   1.519  0.4255  0.8563  2.5229
10752TIP3    H253748   5.264   3.961   1.550  0.8270 -0.7674  0.2459
10753TIP3   OH253749   0.378   3.942   2.541  0.5942 -0.5752 -0.0728
10753TIP3    H153750   0.392   3.930   2.447 -0.1507  0.4996 -0.3224
10753TIP3    H253751   0.294   3.900   2.558  0.4943 -0.3369  0.0242
10754TIP3   OH253752   5.964   1.416   2.644  0.6728  0.2858 -0.0478
10754TIP3    H153753   5.964   1.435   2.550  2.2198 -0.9296 -0.3187
10754TIP3    H253754   6.048   1.449   2.675  0.6490 -0.3175  0.6813
10755TIP3   OH253755   0.708   3.224  15.330  0.4585  0.0096 -0.2596
10755TIP3    H153756   0.722   3.129  15.321 -1.5506 -0.5396  1.7610
10755TIP3    H253757   0.790   3.257  15.365  0.3885 -1.3849  1.2898
10756TIP3   OH253758   2.685   5.020  15.096 -0.0983 -0.2084 -0.1242
10756TIP3    H153759   2.612   5.002  15.155  0.3663  0.9791  0.8226
10756TIP3    H253760   2.686   5.115  15.086 -0.0740 -0.3722 -1.9494
10757TIP3   OH253761   5.277   5.772  13.547 -0.1644  0.3150  0.1223
10757TIP3    H153762   5.261   5.682  13.576 -0.0428 -0.2906 -1.6182
10757TIP3    H253763   5.190   5.811  13.541 -0.3010 -0.0407 -0.2211
10758TIP3   OH253764   4.522   4.563  15.931  0.2234  0.0746  0.0478
10758TIP3    H153765   4.566   4.531  16.010  0.3014 -0.5933 -0.2573
10758TIP3    H253766   4.540   4.495  15.866 -2.2087 -0.7899  0.2169
10759TIP3   OH253767   3.051   6.216  11.765 -0.7153  0.4181  0.5722
10759TIP3    H153768   2.962   6.201  11.734 -0.3039 -0.5714 -0.1414
10759TIP3    H253769   3.075   6.136  11.811  0.4754 -0.0748 -0.8455
10760TIP3   OH253770   5.219   1.143  12.289 -0.2236 -0.6704  0.2899
10760TIP3    H153771   5.281   1.072  12.272  1.0562  0.5491 -0.2240
10760TIP3    H253772   5.206   1.184  12.203 -0.1586  0.3527  0.7644
10761TIP3   OH253773   3.250   6.074  15.567 -0.1309 -0.8855 -0.3069
10761TIP3    H153774   3.258   5.981  15.547 -2.4620 -1.3066  0.5168
10761TIP3    H253775   3.231   6.115  15.483 -2.1145 -1.5999 -0.2446
10762TIP3   OH253776   2.337   4.841   4.750 -0.0519  0.4672  0.4135
10762TIP3    H153777   2.307   4.796   4.828 -0.9637 -0.1573 -0.2823
10762TIP3    H253778   2.277   4.812   4.681 -0.8073  2.9651  0.0034
10763TIP3   OH253779   5.130   6.565  14.245  0.0546  0.3981  0.0971
10763TIP3    H153780   5.160   6.545  14.334  0.9541 -0.5041 -0.4005
10763TIP3    H253781   5.121   6.479  14.204 -0.5249  0.8109 -0.6377
10764TIP3   OH253782   5.141   2.014   2.716 -0.3265  0.0733 -0.0477
10764TIP3    H153783   5.234   2.037   2.721 -0.1826 -0.2693 -1.1096
10764TIP3    H253784   5.111   2.051   2.633 -0.7133 -1.3493 -0.5558
10765TIP3   OH253785   4.606   4.840  17.137  1.1815  0.4491  0.3254
10765TIP3    H153786   4.632   4.762  17.089 -0.2616 -0.5484  1.1336
10765TIP3    H253787   4.612   4.911  17.073 -1.3092 -0.9555 -1.5663
10766TIP3   OH253788   1.646   2.798   0.613  0.3723 -0.7800  0.2005
10766TIP3    H153789   1.551   2.789   0.601  0.2445  0.0220  0.5980
10766TIP3    H253790   1.655   2.840   0.698  1.0333  0.5031 -0.4931
10767TIP3   OH253791   4.299   5.515   3.078  0.9686 -0.4520 -0.7241
10767TIP3    H153792   4.249   5.589   3.042  1.4137  0.3312  0.2347
10767TIP3    H253793   4.232   5.453   3.107  0.5978 -0.6757 -2.0382
10768TIP3   OH253794   1.396   5.119  11.998 -0.5815 -0.1929 -0.2459
10768TIP3    H153795   1.407   5.194  12.057  2.6546  0.0103 -1.0314
10768TIP3    H253796   1.304   5.093  12.010 -0.7660  1.5805  2.7635
10769TIP3   OH253797   0.845   0.305  14.632 -0.3562  0.0095 -0.5907
10769TIP3    H153798   0.900   0.227  14.640 -0.3347 -0.1509 -2.2140
10769TIP3    H253799   0.755   0.273  14.635 -0.3784  0.1854  1.1930
10770TIP3   OH253800   2.742   4.308  13.519 -0.5820 -0.3609 -0.0422
10770TIP3    H153801   2.654   4.345  13.534  1.0358  3.7686  0.0339
10770TIP3    H253802   2.793   4.339  13.594  1.2953 -1.5060 -0.8421
10771TIP3   OH253803   2.699   5.135  17.138  0.5223  0.2321  0.4022
10771TIP3    H153804   2.649   5.054  17.131  0.7215  0.1346  0.1067
10771TIP3    H253805   2.790   5.107  17.132  0.5585  0.6170 -1.0403
10772TIP3   OH253806   2.103   4.637   5.371  0.6258  0.4432  0.1074
10772TIP3    H153807   2.050   4.603   5.299 -0.2351  3.5242 -0.7866
10772TIP3    H253808   2.185   4.666   5.329  1.1123 -0.0042  0.7457
10773TIP3   OH253809   3.455   1.078   4.512  0.5527  0.3309 -0.1923
10773TIP3    H153810   3.400   1.151   4.485  2.0399  1.8798  0.8492
10773TIP3    H253811   3.394   1.015   4.550 -0.7074  1.2114 -0.7214
10774TIP3   OH253812   1.850   0.239  11.749 -0.0681  0.3083  0.2121
10774TIP3    H153813   1.865   0.170  11.813  1.7756 -0.1531 -0.6795
10774TIP3    H253814   1.854   0.194  11.664 -0.8265  1.1806 -0.2983
10775TIP3   OH253815   0.045   2.927  15.525 -0.6824  0.4767  0.5455
10775TIP3    H153816   0.108   2.953  15.593 -0.2820  1.0480 -0.0457
10775TIP3    H253817   0.055   2.832  15.520  1.5876  0.7576 -0.9430
10776TIP3   OH253818   2.101   5.206   6.794 -0.5274  0.3019  0.1306
10776TIP3    H153819   2.152   5.205   6.713  0.9902  0.7911  1.0783
10776TIP3    H253820   2.082   5.113   6.811 -0.0631  0.1328 -0.2774
10777TIP3   OH253821   6.485   1.020   1.212  0.0256 -0.3971  0.9957
10777TIP3    H153822   6.441   0.938   1.191  0.4057 -0.2864 -0.3122
10777TIP3    H253823   6.509   1.057   1.126  1.5365  0.1540  1.6374
10778TIP3   OH253824   0.200   5.597   5.720  0.0678  0.0737  0.2382
10778TIP3    H153825   0.169   5.520   5.768 -0.6193 -0.1069 -0.4745
10778TIP3    H253826   0.119   5.643   5.696  0.3401 -0.4741 -1.7760
10779TIP3   OH253827   4.590   6.134   2.224  0.1887  0.5547  0.1789
10779TIP3    H153828   4.555   6.185   2.150 -0.5938 -0.5283 -0.2106
10779TIP3    H253829   4.660   6.189   2.260 -0.0166  1.4890 -0.8122
10780TIP3   OH253830   6.264   4.754   5.871 -0.3699  0.5595 -0.0470
10780TIP3    H153831   6.290   4.792   5.787 -0.7848  0.7172 -0.1026
10780TIP3    H253832   6.347   4.730   5.913 -0.1636  0.4344 -0.5210
10781TIP3   OH253833   5.797   0.533   5.635 -0.0716  0.2348  0.0448
10781TIP3    H153834   5.779   0.476   5.560  1.7574  0.0542 -0.2782
10781TIP3    H253835   5.883   0.570   5.616 -0.5076  1.7899  1.0814
10782TIP3   OH253836   1.645   0.550  12.155  0.0714 -0.3351 -0.1424
10782TIP3    H153837   1.615   0.615  12.092  0.1033 -0.5319 -0.3579
10782TIP3    H253838   1.599   0.469  12.131  0.0440 -0.3993  0.1165
10783TIP3   OH253839   3.759   0.622  11.555  0.5064  0.0672 -0.0740
10783TIP3    H153840   3.697   0.562  11.513  0.2694  0.2426  0.0232
10783TIP3    H253841   3.749   0.605  11.649  0.0605  0.6258 -0.0179
10784TIP3   OH253842   2.947   5.135  15.829  0.3715  0.2964  1.0562
10784TIP3    H153843   2.925   5.133  15.922  1.5575  0.4532  1.3404
10784TIP3    H253844   2.982   5.048  15.811  1.3309  0.6843  1.0460
10785TIP3   OH253845   4.374   4.820  15.887 -0.1140 -0.1504 -0.2430
10785TIP3    H153846   4.366   4.863  15.972 -0.1876 -0.8370  0.0986
10785TIP3    H253847   4.441   4.753  15.900 -1.4820 -1.5422 -0.2032
10786TIP3   OH253848   3.826   6.094  13.011  0.3086 -0.0737 -0.7988
10786TIP3    H153849   3.777   6.169  13.045  1.2439  1.3214 -2.4167
10786TIP3    H253850   3.828   6.031  13.083  0.5713  1.9720  1.0213
10787TIP3   OH253851   0.908   0.801   3.179 -0.4436  0.4737 -0.1091
10787TIP3    H153852   0.876   0.878   3.133  1.9881  0.4327 -1.9534
10787TIP3    H253853   0.951   0.748   3.111 -0.3370 -1.5404  1.4730
10788TIP3   OH253854   0.089   0.662   4.093 -0.3501  0.6600 -0.7669
10788TIP3    H153855   0.117   0.585   4.045  0.1834  0.6303 -0.4020
10788TIP3    H253856   0.047   0.628   4.172  1.8365  0.7893  0.4690
10789TIP3   OH253857   4.000   6.663  16.435  0.1330  0.4913  0.5367
10789TIP3    H153858   4.029   6.663  16.526  0.0674  0.7244  0.5572
10789TIP3    H253859   3.905   6.672  16.439 -0.2003 -2.5199  0.5558
10790TIP3   OH253860   3.459   2.162  11.520  0.1847  0.3876  0.3584
10790TIP3    H153861   3.488   2.089  11.465  1.2013  0.2291  1.0894
10790TIP3    H253862   3.459   2.237  11.461  0.0448 -0.0313 -0.1742
10791TIP3   OH253863   2.139   3.684   5.576  0.8541  0.0672  0.8017
10791TIP3    H153864   2.234   3.675   5.583  1.3382  2.7490 -1.5152
10791TIP3    H253865   2.113   3.615   5.513  1.6743  1.1185 -0.7208
10792TIP3   OH253866   0.428   3.215  15.001 -0.7331 -0.3115  0.8557
10792TIP3    H153867   0.416   3.178  14.913  2.4479 -0.9582  0.6379
10792TIP3    H253868   0.423   3.140  15.059  0.1014 -0.3140  0.9335
10793TIP3   OH253869   0.913   5.679   5.641  0.4810  0.6972 -0.5838
10793TIP3    H153870   0.888   5.675   5.734  0.8420 -1.0897 -0.5467
10793TIP3    H253871   0.830   5.683   5.594  0.2688  0.5502 -0.2248
10794TIP3   OH253872   4.036   2.074   1.205  0.5941 -0.0301  0.1280
10794TIP3    H153873   4.021   2.152   1.259  2.4409  0.4818 -0.0806
10794TIP3    H253874   4.118   2.037   1.238  0.7133 -0.8118 -1.0315
10795TIP3   OH253875   3.962   2.861  12.690 -0.4402  0.6161 -0.7413
10795TIP3    H153876   4.010   2.803  12.632 -1.2961 -0.6616 -0.1909
10795TIP3    H253877   4.025   2.930  12.712  0.8114 -0.4679 -0.8549
10796TIP3   OH253878   6.070   1.538  14.352 -0.0369 -0.4694  0.9274
10796TIP3    H153879   6.029   1.606  14.407  2.1392  0.6944  1.1586
10796TIP3    H253880   6.019   1.539  14.271 -0.4322  1.0120  1.1804
10797TIP3   OH253881   3.504   5.123   0.238 -0.4622  0.1436 -0.5197
10797TIP3    H153882   3.465   5.125   0.325 -0.6018  0.8042 -0.5904
10797TIP3    H253883   3.597   5.108   0.253 -0.8876 -2.4937 -0.4049
10798TIP3   OH253884   2.886   2.238  12.061  0.2247 -0.3319 -0.2741
10798TIP3    H153885   2.873   2.333  12.061 -1.0596 -0.4824  1.9864
10798TIP3    H253886   2.840   2.208  11.983  2.5087  1.0931 -2.2548
10799TIP3   OH253887   0.714   2.117   0.361 -0.2642 -0.8681 -0.4506
10799TIP3    H153888   0.695   2.047   0.298  0.3798 -1.3611 -0.0993
10799TIP3    H253889   0.628   2.150   0.386 -0.6553 -2.6652  0.6654
10800TIP3   OH253890   6.334   1.262  12.211 -0.1317  0.1718  0.1426
10800TIP3    H153891   6.369   1.307  12.134 -0.8818 -0.6402 -0.6918
10800TIP3    H253892   6.366   1.172  12.203 -0.9664 -0.1432  0.2879
10801TIP3   OH253893   2.400   6.074   1.424 -0.3160  0.0976 -0.0233
10801TIP3    H153894   2.485   6.032   1.412 -1.0587 -1.3595 -0.2917
10801TIP3    H253895   2.348   6.046   1.348 -0.9745  1.1250  0.0403
10802TIP3   OH253896   6.724   1.815   2.600 -0.5413 -0.1129 -0.0149
10802TIP3    H153897   6.798   1.798   2.657  0.5118 -0.1451 -1.3714
10802TIP3    H253898   6.695   1.903   2.625 -0.5764 -0.4197  1.0684
10803TIP3   OH253899   3.413   6.429  16.353 -0.1867 -0.3742  0.0566
10803TIP3    H153900   3.451   6.345  16.329 -1.1599 -0.4309 -1.3807
10803TIP3    H253901   3.318   6.416  16.342 -0.3517  0.8770 -0.0934
10804TIP3   OH253902   4.593   6.362   1.833  0.0875 -0.3677 -0.4581
10804TIP3    H153903   4.604   6.455   1.813  0.0451 -0.5170 -1.1947
10804TIP3    H253904   4.554   6.325   1.753 -0.5418 -0.8845  0.0820
10805TIP3   OH253905   6.534   6.065   3.655 -0.0100  0.3848 -0.4228
10805TIP3    H153906   6.579   5.999   3.601 -2.7004 -0.8609 -1.2488
10805TIP3    H253907   6.598   6.089   3.721  2.0232 -0.9924 -1.8033
10806TIP3   OH253908   6.274   4.490  14.133 -0.2926  0.5277  0.3403
10806TIP3    H153909   6.188   4.450  14.150  0.3286 -1.0655 -0.2061
10806TIP3    H253910   6.306   4.516  14.220 -1.5510  1.6165  0.4939
10807TIP3   OH253911   5.377   3.332  11.135  0.0753  0.2697 -0.6832
10807TIP3    H153912   5.368   3.421  11.168 -1.7310  0.6012 -1.9763
10807TIP3    H253913   5.295   3.316  11.088 -0.3943 -2.7519  1.0866
10808TIP3   OH253914   0.267   1.406  13.583  0.1365  0.1785  0.5423
10808TIP3    H153915   0.329   1.372  13.647 -0.4869 -1.3969  0.3477
10808TIP3    H253916   0.184   1.413  13.631 -0.4114 -1.3126 -0.1352
10809TIP3   OH253917   5.134   4.948  13.109  0.9013 -0.2734  0.1754
10809TIP3    H153918   5.071   4.911  13.171 -0.4365  1.8014  0.0869
10809TIP3    H253919   5.184   5.012  13.161  0.3669  0.8329 -0.6525
10810TIP3   OH253920   0.144   4.613  14.140  0.0049 -0.0258  0.3638
10810TIP3    H153921   0.060   4.592  14.180  0.5952 -0.4371  1.3871
10810TIP3    H253922   0.146   4.561  14.060 -0.7474  0.0525  0.2904
10811TIP3   OH253923   4.152   6.459   4.529 -0.7694 -0.0895  0.7048
10811TIP3    H153924   4.192   6.538   4.567  1.5398 -0.3354 -1.0664
10811TIP3    H253925   4.089   6.493   4.466 -0.1548  0.3590  0.3194
10812TIP3   OH253926   2.746   0.448   3.287  0.0628 -0.0414  0.3179
10812TIP3    H153927   2.804   0.506   3.239  2.7042 -2.2441  0.7404
10812TIP3    H253928   2.672   0.503   3.312  2.0274  2.8736 -0.1238
10813TIP3   OH253929   0.246   0.514   2.622 -0.2474 -0.2387 -0.5520
10813TIP3    H153930   0.321   0.503   2.563 -0.4755  2.1075 -1.2978
10813TIP3    H253931   0.240   0.608   2.636 -2.0312 -0.5486  0.8694
10814TIP3   OH253932   4.063   1.159  13.153  0.3225 -0.1518  0.4434
10814TIP3    H153933   4.014   1.236  13.125  0.5725 -0.0853  0.1858
10814TIP3    H253934   4.040   1.092  13.089 -0.0907 -0.3666  0.8116
10815TIP3   OH253935   1.954   4.737   2.555  0.0542 -0.3981  0.0359
10815TIP3    H153936   1.984   4.821   2.587 -0.3834  0.3294 -1.3810
10815TIP3    H253937   1.916   4.693   2.631  0.0757  0.7895  0.7295
10816TIP3   OH253938   2.765   6.086  15.590  0.2797 -0.3000 -0.6228
10816TIP3    H153939   2.676   6.105  15.621  0.6097 -0.9701  0.7469
10816TIP3    H253940   2.757   6.002  15.544  0.0967 -0.0589 -1.0444
10817TIP3   OH253941   3.093   4.975   2.206  0.1931 -0.5602 -0.1121
10817TIP3    H153942   3.005   5.009   2.192 -0.0383 -1.1861 -0.2054
10817TIP3    H253943   3.125   5.021   2.283  0.3287  0.7162 -0.9268
10818TIP3   OH253944   4.373   6.518   0.158  0.6023  0.2481 -0.7013
10818TIP3    H153945   4.412   6.456   0.221 -0.6142 -0.0568 -0.2233
10818TIP3    H253946   4.409   6.603   0.183  0.0540  0.1458  0.4976
10819TIP3   OH253947   5.083   1.461  15.156 -0.3966  0.7614  0.2220
10819TIP3    H153948   5.136   1.493  15.083  0.7317  0.1628  0.7687
10819TIP3    H253949   5.143   1.461  15.231 -1.2511  0.3524  0.9082
10820TIP3   OH253950   2.531   1.491  15.962  0.1291 -0.3822  0.2349
10820TIP3    H153951   2.480   1.464  15.885  0.3425 -1.3039  0.4190
10820TIP3    H253952   2.516   1.423  16.027  0.4340  0.0875  0.8059
10821TIP3   OH253953   6.497   1.205  13.564  0.0864  0.0352 -0.3057
10821TIP3    H153954   6.477   1.296  13.582  1.1044  0.1373  0.2882
10821TIP3    H253955   6.592   1.201  13.555 -0.0123 -0.8147 -1.1766
10822TIP3   OH253956   4.497   0.570   1.456 -0.8973  0.0579  0.0524
10822TIP3    H153957   4.468   0.479   1.460 -0.6741 -0.0501 -0.6734
10822TIP3    H253958   4.529   0.581   1.367 -0.4878  0.7194  0.2771
10823TIP3   OH253959   3.772   2.482   0.510  0.1745  0.7383 -0.3311
10823TIP3    H153960   3.713   2.516   0.577 -2.1734  0.8713 -2.3941
10823TIP3    H253961   3.751   2.389   0.505 -0.0006  0.8121 -1.1560
10824TIP3   OH253962   2.727   6.555   4.959 -0.3517 -0.3786  0.0290
10824TIP3    H153963   2.742   6.466   4.929 -2.1906 -0.5010 -0.6363
10824TIP3    H253964   2.646   6.550   5.011  1.9242  0.1190  3.7956
10825TIP3   OH253965   5.090   1.228   1.143  0.1306 -0.3712 -0.2550
10825TIP3    H153966   5.141   1.210   1.222 -0.8421  3.0565  1.2450
10825TIP3    H253967   5.155   1.241   1.075  1.0757 -0.6539  0.5849
10826TIP3   OH253968   6.089   5.422  11.925 -0.0376  0.1531  0.2189
10826TIP3    H153969   6.117   5.489  11.987  0.8144 -1.2358  1.3753
10826TIP3    H253970   6.133   5.342  11.954 -0.5238 -0.7796 -1.5074
10827TIP3   OH253971   5.451   0.208   3.558  0.3082 -0.4360  0.0655
10827TIP3    H153972   5.532   0.220   3.509 -0.5234  1.2106 -0.9530
10827TIP3    H253973   5.393   0.161   3.497  0.2791 -1.0579  0.5642
10828TIP3   OH253974   0.467   6.177  16.190 -0.3611 -0.6389 -0.2673
10828TIP3    H153975   0.551   6.144  16.159  1.4682  0.8930  2.8295
10828TIP3    H253976   0.475   6.272  16.188 -2.7149 -0.4146 -1.6011
10829TIP3   OH253977   6.097   6.232  14.693 -0.2245  0.3352 -0.5198
10829TIP3    H153978   6.179   6.203  14.654 -0.9044  1.4481 -2.8327
10829TIP3    H253979   6.045   6.152  14.702 -0.8542  0.3107 -3.8672
10830TIP3   OH253980   1.489   1.286   1.944 -0.2954  0.0886  0.1824
10830TIP3    H153981   1.585   1.291   1.946 -0.2935  0.8596 -1.0229
10830TIP3    H253982   1.460   1.364   1.991 -0.3132  0.9207 -1.1770
10831TIP3   OH253983   1.447   6.684   5.356  0.3686 -0.0148 -0.0211
10831TIP3    H153984   1.426   6.717   5.269  1.0514  0.6499  0.0536
10831TIP3    H253985   1.510   6.614   5.341  2.3229  1.6887  0.0557
10832TIP3   OH253986   3.121   0.763  11.177  0.2881  0.3048 -0.3235
10832TIP3    H153987   3.041   0.711  11.179 -0.0331  0.7769 -0.8231
10832TIP3    H253988   3.191   0.699  11.184 -0.0587 -0.2928 -2.0320
10833TIP3   OH253989   5.913   6.684   1.922 -0.0668  0.6565  0.2924
10833TIP3    H153990   5.830   6.679   1.874 -1.6608 -1.3560  3.1218
10833TIP3    H253991   5.950   6.596   1.916  1.9261  1.5324 -0.9312
10834TIP3   OH253992   1.155   1.668  17.064 -0.0710 -0.1734 -0.0018
10834TIP3    H153993   1.220   1.708  17.121 -0.8915  0.2705  0.6345
10834TIP3    H253994   1.073   1.672  17.114 -1.3680  2.6480 -2.2334
10835TIP3   OH253995   3.362   2.305   4.098 -0.5286 -0.3277  0.3274
10835TIP3    H153996   3.414   2.380   4.070  0.9806 -0.4117  2.7185
10835TIP3    H253997   3.286   2.305   4.040  0.6088  1.6523 -1.2191
10836TIP3   OH253998   5.282   6.810   0.463 -1.1002  0.1027 -0.0304
10836TIP3    H153999   5.236   6.815   0.379 -1.2763 -1.9435 -0.0770
10836TIP3    H254000   5.363   6.860   0.449 -1.6612  0.7563 -1.0387
10837TIP3   OH254001   2.116   1.980   0.690  0.1692  0.0708 -0.1944
10837TIP3    H154002   2.169   1.930   0.627 -0.1498 -0.9279  0.3185
10837TIP3    H254003   2.179   2.014   0.753  0.1647 -1.6596  0.7845
10838TIP3   OH254004   2.238   6.487  12.736  0.3958  0.4249  0.0945
10838TIP3    H154005   2.235   6.485  12.832 -2.0111 -1.5528  0.0072
10838TIP3    H254006   2.282   6.405  12.712  0.5135  0.6710 -0.5235
10839TIP3   OH254007   4.717   1.058   3.052  0.2479  0.4458  0.2831
10839TIP3    H154008   4.748   1.084   2.966 -0.8813  2.8908  0.5817
10839TIP3    H254009   4.654   0.988   3.034  0.6017  0.4046 -0.8092
10840TIP3   OH254010   1.143   5.305  15.047  0.0911  0.3789  0.2033
10840TIP3    H154011   1.171   5.223  15.007  0.1246 -0.1677  1.3271
10840TIP3    H254012   1.212   5.327  15.110 -0.1400  1.0278  0.2394
10841TIP3   OH254013   6.683   0.718  15.065 -0.3816  0.1995 -0.3970
10841TIP3    H154014   6.740   0.751  15.133 -2.0311 -0.1707  1.1993
10841TIP3    H254015   6.737   0.656  15.016  1.1293  1.2649 -0.1176
10842TIP3   OH254016   0.288   0.180  11.613 -0.4707  0.3769 -0.7189
10842TIP3    H154017   0.307   0.121  11.540 -2.2220 -1.1309  0.0168
10842TIP3    H254018   0.358   0.164  11.676 -0.7518 -0.6930 -0.6657
10843TIP3   OH254019   0.831   2.531  14.793  0.0330  0.3348  0.1769
10843TIP3    H154020   0.743   2.505  14.822  0.0982  0.4220  0.4603
10843TIP3    H254021   0.863   2.588  14.863  2.2801 -3.6248  2.5225
10844TIP3   OH254022   6.564   3.891   3.431 -0.5093  0.7808  0.3718
10844TIP3    H154023   6.526   3.888   3.343 -0.8607  0.1041  0.5448
10844TIP3    H254024   6.488   3.891   3.490 -0.2540  0.1133  0.7032
10845TIP3   OH254025   0.324   3.251   5.696 -0.1375  0.2308 -0.2026
10845TIP3    H154026   0.244   3.236   5.645 -2.9256  1.1268  3.6083
10845TIP3    H254027   0.337   3.170   5.745  0.2670  0.7051  0.4903
10846TIP3   OH254028   6.386   1.542  11.352 -0.7512  0.1773 -0.3797
10846TIP3    H154029   6.445   1.468  11.339 -1.8511 -0.4744 -1.8224
10846TIP3    H254030   6.388   1.558  11.447  1.2720 -0.1927 -0.3308
10847TIP3   OH254031   1.609   3.993   1.117 -0.2155 -0.3788  0.2464
10847TIP3    H154032   1.605   4.042   1.199  0.5339 -0.0345  0.0844
10847TIP3    H254033   1.535   3.933   1.121  1.0418 -1.8614  2.1439
10848TIP3   OH254034   6.135   5.496  12.589 -0.3393  0.1010  0.6777
10848TIP3    H154035   6.194   5.420  12.592  0.8924  0.9735 -1.1255
10848TIP3    H254036   6.181   5.564  12.639 -0.7253  0.1834  0.9290
10849TIP3   OH254037   0.878   0.410   3.965  0.1644  0.5752  0.4047
10849TIP3    H154038   0.789   0.376   3.976  0.6437 -0.2732  1.8299
10849TIP3    H254039   0.900   0.389   3.874 -0.5893 -0.4538  0.4463
10850TIP3   OH254040   2.861   1.565   2.755  0.2523  0.2195 -0.1247
10850TIP3    H154041   2.784   1.518   2.789  0.0219  0.6233 -0.0840
10850TIP3    H254042   2.871   1.532   2.666  0.5141 -0.4236  0.1424
10851TIP3   OH254043   0.677   1.986  10.268 -0.0779 -0.1200 -0.5897
10851TIP3    H154044   0.616   2.043  10.221  1.1194  1.2400 -0.5414
10851TIP3    H254045   0.745   2.045  10.301  1.7963 -1.6970 -1.4912
10852TIP3   OH254046   1.969   0.562  13.941 -0.4014 -0.4100  0.9873
10852TIP3    H154047   1.923   0.479  13.949 -0.6936 -0.2357  1.1059
10852TIP3    H254048   2.016   0.555  13.858  0.3231 -1.0619  1.4493
10853TIP3   OH254049   3.995   1.407  10.556 -0.0602  0.1389 -0.3162
10853TIP3    H154050   4.049   1.339  10.595  0.9891  2.3992  2.3049
10853TIP3    H254051   3.907   1.392  10.592 -0.0824 -0.4937 -0.6316
10854TIP3   OH254052   6.621   1.466  15.033  0.2056 -0.1196  0.1691
10854TIP3    H154053   6.650   1.525  15.102 -1.6308  0.3728  0.5641
10854TIP3    H254054   6.699   1.419  15.006  1.6960  2.3900 -0.0440
10855TIP3   OH254055   2.337   6.411  17.167 -0.1849  0.8534  0.3650
10855TIP3    H154056   2.255   6.420  17.215  1.4427  2.9181  2.9088
10855TIP3    H254057   2.380   6.335  17.206 -1.2387 -0.8372 -1.6298
10856TIP3   OH254058   2.331   2.822  16.940  0.3971 -0.0847 -0.2440
10856TIP3    H154059   2.298   2.748  16.889 -0.8457  0.0920  0.2864
10856TIP3    H254060   2.348   2.890  16.874  0.3650 -0.4221 -0.6066
10857TIP3   OH254061   0.906   4.508  14.173 -0.3214  0.1045 -0.3710
10857TIP3    H154062   0.844   4.536  14.239  0.5652 -0.1137  0.5582
10857TIP3    H254063   0.984   4.562  14.188 -0.4549  0.7391 -1.8506
10858TIP3   OH254064   0.349   4.589  13.882 -0.0139 -0.0459  0.2252
10858TIP3    H154065   0.423   4.562  13.935 -0.0556 -0.7125 -0.0498
10858TIP3    H254066   0.388   4.625  13.802 -0.0070 -1.5222 -0.4450
10859TIP3   OH254067   1.707   1.806   1.007  0.1450  0.0945  0.0749
10859TIP3    H154068   1.783   1.833   0.957 -0.5184  0.1591 -0.9131
10859TIP3    H254069   1.637   1.866   0.980  0.2672  1.4234  2.5556
10860TIP3   OH254070   3.948   5.505  12.648 -0.0499  0.0107 -0.0926
10860TIP3    H154071   3.992   5.472  12.570  0.5249 -0.9170  0.6205
10860TIP3    H254072   3.934   5.428  12.702  1.7474  0.9931  1.8163
10861TIP3   OH254073   5.822   6.285   1.818  0.0348  0.0047 -0.3243
10861TIP3    H154074   5.866   6.210   1.778 -0.3778 -0.1082 -0.5758
10861TIP3    H254075   5.828   6.354   1.752 -1.3862 -0.4361 -0.9505
10862TIP3   OH254076   6.723   2.126   2.228  0.0814 -0.0264  0.1350
10862TIP3    H154077   6.745   2.190   2.295 -1.6677  1.1239 -0.3492
10862TIP3    H254078   6.702   2.046   2.276  0.1832  0.3909  0.8729
10863TIP3   OH254079   0.924   1.047   4.835  0.1421 -0.4457 -0.3552
10863TIP3    H154080   0.979   1.121   4.811 -0.8200  0.2303 -0.4953
10863TIP3    H254081   0.943   0.980   4.769 -1.0712  0.7077 -1.9089
10864TIP3   OH254082   4.738   2.609  12.108 -0.4820  0.2487  0.0353
10864TIP3    H154083   4.718   2.535  12.050  0.5914  0.5809 -0.7611
10864TIP3    H254084   4.653   2.653  12.120 -0.6715  0.3218 -1.4857
10865TIP3   OH254085   0.547   4.604  12.635  1.0245  0.1778 -0.5473
10865TIP3    H154086   0.477   4.666  12.613 -0.8840 -0.8593  2.2985
10865TIP3    H254087   0.572   4.566  12.551 -0.4660  1.9922 -1.8606
10866TIP3   OH254088   3.056   4.739   0.017 -0.3544 -0.2787 -0.0917
10866TIP3    H154089   3.118   4.740  -0.056 -0.6057 -0.9984 -0.3222
10866TIP3    H254090   3.074   4.657   0.063 -0.5104 -0.0499  0.3841
10867TIP3   OH254091   2.126   0.437   1.683  0.1105  0.2305 -0.3031
10867TIP3    H154092   2.217   0.461   1.663  0.3192 -2.0842 -2.3049
10867TIP3    H254093   2.073   0.500   1.635  0.6589  0.4716 -0.5999
10868TIP3   OH254094   2.868   1.914  13.917 -0.4444 -0.3233 -0.0273
10868TIP3    H154095   2.931   1.986  13.931 -1.0913  0.4739 -1.1786
10868TIP3    H254096   2.785   1.949  13.947 -0.6825 -0.7584 -0.1776
10869TIP3   OH254097   2.769   0.591  13.391  0.6251 -0.0775 -0.6775
10869TIP3    H154098   2.865   0.587  13.384  0.6512 -0.3192 -0.1562
10869TIP3    H254099   2.745   0.663  13.333  1.3555  1.8731  1.3361
10870TIP3   OH254100   4.784   0.348  12.393  0.2466 -0.0272  0.6801
10870TIP3    H154101   4.781   0.434  12.435 -0.9444 -0.1331  0.8302
10870TIP3    H254102   4.702   0.306  12.419 -2.2454  1.2300 -4.4801
10871TIP3   OH254103   1.139   5.146   2.288  0.1621  0.3954 -0.0641
10871TIP3    H154104   1.134   5.241   2.281 -1.4299  0.3795  0.6414
10871TIP3    H254105   1.233   5.126   2.282  0.4257  1.9152 -1.2390
10872TIP3   OH254106   1.136   0.064   1.347 -0.1577  0.1053 -0.8628
10872TIP3    H154107   1.065   0.010   1.313  0.0965 -0.4855 -0.4623
10872TIP3    H254108   1.216   0.013   1.331  0.0085  0.0027  0.2082
10873TIP3   OH254109   1.695   4.178   5.017 -0.0761  0.4382  0.5904
10873TIP3    H154110   1.774   4.193   5.069  0.4020 -0.0770  0.0243
10873TIP3    H254111   1.727   4.141   4.935 -1.0963 -2.3716  1.4131
10874TIP3   OH254112   3.956   0.308   1.338  1.0101 -0.0290 -0.3951
10874TIP3    H154113   3.989   0.304   1.248 -1.8083  0.7660 -1.5424
10874TIP3    H254114   3.931   0.400   1.350  0.4359 -0.3353  0.8126
10875TIP3   OH254115   6.055   4.764   5.353  0.5665  0.4501  0.0654
10875TIP3    H154116   6.146   4.745   5.330  0.2543 -0.2473 -0.6275
10875TIP3    H254117   6.055   4.771   5.448  1.0846 -0.9504  0.1803
10876TIP3   OH254118   5.691   4.491   4.630  0.4294 -0.2414  0.2535
10876TIP3    H154119   5.739   4.550   4.572 -0.5382 -0.0470 -0.3732
10876TIP3    H254120   5.659   4.421   4.572  0.7999 -0.8982  0.8319
10877TIP3   OH254121   5.385   4.152  13.312  0.0503  0.8541  0.1097
10877TIP3    H154122   5.455   4.095  13.344 -1.5153 -0.5649  1.0983
10877TIP3    H254123   5.345   4.188  13.391 -0.8832  0.9750 -0.4099
10878TIP3   OH254124   1.952   2.197   2.154 -0.2920 -0.2297 -0.1120
10878TIP3    H154125   1.901   2.123   2.122  0.9345 -0.0519 -2.5133
10878TIP3    H254126   2.017   2.158   2.213  0.5672 -1.1266 -1.6228
10879TIP3   OH254127   0.936   3.908  13.818  0.3801  0.1956 -0.3520
10879TIP3    H154128   0.935   4.003  13.812 -0.1698  0.1951 -0.3004
10879TIP3    H254129   0.959   3.878  13.730 -1.0844  0.3413 -0.7972
10880TIP3   OH254130   2.826   1.313   0.732 -0.1195 -0.2313 -0.0833
10880TIP3    H154131   2.735   1.343   0.736  0.0478  0.3206 -0.4312
10880TIP3    H254132   2.875   1.377   0.784  0.1005 -0.4115 -0.0702
10881TIP3   OH254133   6.228   6.319   0.338  0.0552  0.0489  0.6342
10881TIP3    H154134   6.221   6.386   0.406 -0.4079 -0.8940  1.5310
10881TIP3    H254135   6.139   6.308   0.305  0.0718 -0.3724  0.7269
10882TIP3   OH254136   3.706   0.020  11.425 -0.4145  0.3545 -0.0239
10882TIP3    H154137   3.755   0.062  11.354 -0.0631  0.0810  0.0528
10882TIP3    H254138   3.767  -0.045  11.461 -0.8984 -0.1129 -0.0381
10883TIP3   OH254139   3.411   1.952  16.991 -0.0718 -0.3047 -0.3934
10883TIP3    H154140   3.449   2.011  16.927 -0.5586 -1.6309 -1.9241
10883TIP3    H254141   3.364   2.010  17.052  0.9066  0.9962 -0.8536
10884TIP3   OH254142   5.666   1.322   3.829 -0.4565 -0.6409  0.3850
10884TIP3    H154143   5.585   1.319   3.879 -0.5697 -1.0296  0.1739
10884TIP3    H254144   5.657   1.255   3.762 -0.6756  0.4814 -0.7444
10885TIP3   OH254145   2.525   6.707   6.169 -0.3255  0.0764  0.1646
10885TIP3    H154146   2.542   6.796   6.138 -0.4012 -0.1091 -0.4031
10885TIP3    H254147   2.457   6.718   6.236  1.0875  0.6799  1.5370
10886TIP3   OH254148   2.268   3.289   0.803  0.0468 -0.0494  0.4703
10886TIP3    H154149   2.236   3.372   0.839  0.3715  0.6146 -0.7428
10886TIP3    H254150   2.339   3.315   0.744 -0.4623 -1.1104 -0.6176
10887TIP3   OH254151   1.135   2.462   1.931  0.5088 -0.6797  0.0357
10887TIP3    H154152   1.055   2.490   1.976 -0.4030 -2.6967 -0.2620
10887TIP3    H254153   1.206   2.486   1.991 -0.5060 -1.1140  1.4334
10888TIP3   OH254154   2.946   3.363  13.234  0.5091  0.1533 -0.3901
10888TIP3    H154155   2.869   3.392  13.183  1.2086 -0.5360 -1.8665
10888TIP3    H254156   3.002   3.440  13.237  0.0131  0.4963  0.2158
10889TIP3   OH254157   4.529   1.890   2.942 -0.3093 -0.2524  0.1014
10889TIP3    H154158   4.556   1.937   2.862  0.7294 -0.5460  0.2780
10889TIP3    H254159   4.535   1.798   2.918 -4.9921 -0.3750 -1.1415
10890TIP3   OH254160   2.963   6.235   4.356  0.4840 -0.7541  0.5240
10890TIP3    H154161   3.056   6.228   4.379  0.1151 -1.5159  1.8062
10890TIP3    H254162   2.935   6.145   4.342  0.0567 -0.4866 -0.3884
10891TIP3   OH254163   4.015   6.331  11.556  0.0364 -0.2307  0.0856
10891TIP3    H154164   3.993   6.385  11.480  0.8819 -0.2218 -0.1646
10891TIP3    H254165   3.948   6.352  11.621  0.5935  1.4218  0.1472
10892TIP3   OH254166   1.373   1.398  15.559 -0.0484  0.2044  0.0983
10892TIP3    H154167   1.411   1.388  15.647 -1.1331  2.7859  0.9141
10892TIP3    H254168   1.445   1.381  15.499  0.8662 -0.9910  1.5174
10893TIP3   OH254169   0.358   4.375  15.357 -0.3169  0.4570 -0.5551
10893TIP3    H154170   0.437   4.348  15.405 -0.8362  0.5985  0.3941
10893TIP3    H254171   0.390   4.396  15.269  0.4209 -1.1979 -0.7013
10894TIP3   OH254172   3.497   5.647   6.302 -1.1490 -0.0001 -0.3315
10894TIP3    H154173   3.454   5.712   6.358  1.1400 -0.0893  1.6628
10894TIP3    H254174   3.514   5.573   6.360  0.0439 -0.6675 -1.4987
10895TIP3   OH254175   5.171   4.199  14.590  0.1628 -0.5746 -0.2230
10895TIP3    H154176   5.109   4.245  14.646 -0.2573  0.3122 -1.4058
10895TIP3    H254177   5.133   4.111  14.580 -0.3215 -0.3900 -0.0245
10896TIP3   OH254178   4.481   6.292  11.539 -0.3953  0.4054 -0.2853
10896TIP3    H154179   4.447   6.202  11.535 -0.4743  0.4495 -0.7179
10896TIP3    H254180   4.403   6.346  11.547 -0.4365  0.5122 -1.3554
10897TIP3   OH254181   2.033   5.119   2.779 -0.1611  0.1249  0.1361
10897TIP3    H154182   2.071   5.189   2.832  0.7148 -2.1424  2.5866
10897TIP3    H254183   2.060   5.140   2.689  3.3615  0.8592  1.2944
10898TIP3   OH254184   3.825   6.688   1.473  0.6569 -0.0099 -0.0755
10898TIP3    H154185   3.766   6.623   1.511 -0.2599  1.1452  0.5408
10898TIP3    H254186   3.896   6.637   1.434  0.2470 -1.3492  0.8800
10899TIP3   OH254187   1.314   6.415   3.967  0.9143 -0.1922 -0.1897
10899TIP3    H154188   1.282   6.453   3.885  0.8428 -0.3379 -0.2297
10899TIP3    H254189   1.237   6.378   4.009  0.5376  1.9690  1.0980
10900TIP3   OH254190   4.230   5.939  11.253  0.0339  0.1356 -0.2939
10900TIP3    H154191   4.306   5.909  11.204 -0.5612  0.2214 -1.2838
10900TIP3    H254192   4.155   5.903  11.206 -0.6233  1.7701 -0.5338
10901TIP3   OH254193   2.321   1.122   1.875 -0.0549  0.0755  0.4044
10901TIP3    H154194   2.233   1.089   1.895 -0.2260  1.1376  1.4694
10901TIP3    H254195   2.309   1.171   1.794 -0.3858 -0.0497  0.3743
10902TIP3   OH254196   2.046   3.562  15.630 -0.0014  0.1318  0.1936
10902TIP3    H154197   2.003   3.647  15.622 -2.1347 -1.0371 -1.1710
10902TIP3    H254198   2.090   3.550  15.546  0.5388 -0.0061  0.4909
10903TIP3   OH254199   4.478   1.035  15.728 -0.1304 -0.3632  0.0862
10903TIP3    H154200   4.511   1.118  15.761 -0.3158  0.3305 -1.4610
10903TIP3    H254201   4.502   0.971  15.796  2.9007  0.3930 -0.1937
10904TIP3   OH254202   3.416   4.682   3.622 -0.1880 -0.3339  0.0481
10904TIP3    H154203   3.432   4.726   3.539  0.3420 -1.1353 -0.2806
10904TIP3    H254204   3.453   4.594   3.611 -1.5230 -0.9897  0.5674
10905TIP3   OH254205   6.306   1.893   0.360  0.5157  0.1032 -0.2256
10905TIP3    H154206   6.321   1.886   0.266  1.8194  0.2460 -0.0327
10905TIP3    H254207   6.339   1.811   0.396 -0.6078 -0.2421  0.0425
10906TIP3   OH254208   4.759   5.336  16.505  0.7640 -0.1141 -0.1803
10906TIP3    H154209   4.732   5.309  16.417  0.5696 -2.2055  0.4874
10906TIP3    H254210   4.693   5.400  16.532  0.8586  0.5871 -1.5666
10907TIP3   OH254211   5.030   3.216  13.260 -0.4175  0.0204  0.0550
10907TIP3    H154212   5.001   3.302  13.289  1.5794  0.7354  0.0450
10907TIP3    H254213   5.061   3.230  13.171 -2.4010 -1.2501 -0.8591
10908TIP3   OH254214   0.512   5.421   1.394 -0.3572  0.1179 -0.1893
10908TIP3    H154215   0.585   5.365   1.419  1.6402  1.6089 -2.4719
10908TIP3    H254216   0.435   5.381   1.435  1.6393 -1.8220  1.7413
10909TIP3   OH254217   3.442   3.243  14.113 -0.1061  0.4520  0.1039
10909TIP3    H154218   3.468   3.323  14.159 -0.7376  0.7385 -0.0420
10909TIP3    H254219   3.520   3.219  14.063  0.7166 -0.0583  1.5697
10910TIP3   OH254220   0.156   0.814   2.978  0.4522  0.0706  0.1873
10910TIP3    H154221   0.127   0.858   3.058  1.5212  1.9266 -0.4110
10910TIP3    H254222   0.250   0.804   2.989  0.4277 -0.8076 -0.3129
10911TIP3   OH254223   5.594   1.925   4.833  0.5858 -0.3375  1.0523
10911TIP3    H154224   5.569   1.833   4.819 -2.4354  0.4044  1.2267
10911TIP3    H254225   5.631   1.926   4.921 -0.0837 -1.2634  1.3555
10912TIP3   OH254226   5.953   2.230  16.012  0.4862  0.2708  0.0908
10912TIP3    H154227   5.909   2.145  16.013  1.3070 -0.1572 -0.2575
10912TIP3    H254228   5.904   2.283  16.076  0.8040 -0.8882  1.3254
10913TIP3   OH254229   0.757   0.149  13.687  0.4028 -0.4171  0.6781
10913TIP3    H154230   0.688   0.112  13.742 -0.2997 -1.5673 -0.9382
10913TIP3    H254231   0.720   0.229  13.650 -0.0003 -0.9275 -0.0281
10914TIP3   OH254232   6.501   2.897   0.694 -0.2981 -0.3496  0.2912
10914TIP3    H154233   6.523   2.877   0.603 -1.5117  0.4939 -0.1974
10914TIP3    H254234   6.581   2.933   0.730 -0.1842  0.5539 -0.8269
10915TIP3   OH254235   2.423   4.956   6.739  0.4976 -0.2369 -0.1526
10915TIP3    H154236   2.504   4.968   6.789  0.7416  1.1966 -0.8477
10915TIP3    H254237   2.450   4.966   6.648 -0.6969  1.7161 -0.3234
10916TIP3   OH254238   6.446   0.440   0.079  0.5677 -0.0899 -0.0777
10916TIP3    H154239   6.429   0.530   0.050 -1.2318  0.0146  1.1829
10916TIP3    H254240   6.531   0.444   0.122  0.5120  1.0035 -0.0614
10917TIP3   OH254241   2.330   0.151   4.965  0.3759 -0.0656 -0.3542
10917TIP3    H154242   2.310   0.098   4.888 -0.2699 -1.3895  0.7057
10917TIP3    H254243   2.264   0.126   5.030  1.3594  0.4821  0.8901
10918TIP3   OH254244   0.961   0.574   0.503  0.1458  0.0390  0.2791
10918TIP3    H154245   1.047   0.547   0.470  0.0994 -1.0820  1.0484
10918TIP3    H254246   0.981   0.638   0.571  0.3677 -0.0225  0.2729
10919TIP3   OH254247   4.968   5.133   1.428 -0.0847  0.5167  0.3023
10919TIP3    H154248   4.887   5.092   1.458 -0.8654  1.0425 -1.0285
10919TIP3    H254249   4.988   5.089   1.346  0.1552  1.4178 -0.1299
10920TIP3   OH254250   2.837   2.512  12.979  0.4981 -0.1448  0.1893
10920TIP3    H154251   2.857   2.430  13.023 -0.2406  0.1953  1.1853
10920TIP3    H254252   2.875   2.503  12.892  1.2399 -1.1637  0.6149
10921TIP3   OH254253   0.947   2.837  17.268  0.5344  0.6227  0.2137
10921TIP3    H154254   0.883   2.879  17.210  2.5203  0.9271 -1.8147
10921TIP3    H254255   0.979   2.762  17.218  1.0148 -0.1350  1.6330
10922TIP3   OH254256   2.614   6.035   6.275  0.2925 -0.1380 -0.3449
10922TIP3    H154257   2.564   5.979   6.334  0.0662  0.0071 -0.4007
10922TIP3    H254258   2.642   6.108   6.330 -2.0183  1.2755 -0.9923
10923TIP3   OH254259   5.090   1.078   1.929  0.1533 -0.4145 -0.5831
10923TIP3    H154260   5.054   1.118   2.008  0.5175  0.5592 -0.9022
10923TIP3    H254261   5.100   0.986   1.951 -0.3155 -0.2558  0.3031
10924TIP3   OH254262   3.050   1.783   6.333  0.3152  0.0803 -0.0439
10924TIP3    H154263   2.957   1.789   6.308  1.0515 -1.5289 -3.4509
10924TIP3    H254264   3.053   1.822   6.420 -3.7082 -0.5484  0.5088
10925TIP3   OH254265   6.683   0.967   2.128 -0.3744  0.2016 -0.0435
10925TIP3    H154266   6.752   0.992   2.065  1.2828 -2.3876  0.6932
10925TIP3    H254267   6.620   0.918   2.076 -0.0951 -0.0932 -0.1036
10926TIP3   OH254268   5.063   3.129  15.805 -0.3174 -0.1905  0.3639
10926TIP3    H154269   4.984   3.088  15.841 -0.4845 -0.3318 -0.1664
10926TIP3    H254270   5.033   3.214  15.772 -0.6131 -0.9906 -1.4904
10927TIP3   OH254271   4.792   0.971   1.946  0.0138  0.1189  0.0051
10927TIP3    H154272   4.720   0.946   1.888  0.7656  0.6352 -1.1561
10927TIP3    H254273   4.817   1.058   1.918  1.2923 -0.1710  0.2180
10928TIP3   OH254274   6.261   2.766  11.874  0.0503  0.0442 -0.5002
10928TIP3    H154275   6.181   2.782  11.924 -0.7392  0.2136 -1.8044
10928TIP3    H254276   6.271   2.844  11.819 -0.4436 -1.2116 -2.4074
10929TIP3   OH254277   0.070   0.743   4.469  0.0507  0.1130 -0.5985
10929TIP3    H154278   0.141   0.773   4.412  0.9464 -0.6098  0.1210
10929TIP3    H254279   0.010   0.698   4.410 -0.1245  1.2686 -1.3107
10930TIP3   OH254280   4.756   5.853  11.151 -0.1886 -0.0426  0.2839
10930TIP3    H154281   4.828   5.854  11.088 -0.5687 -1.2297 -0.1966
10930TIP3    H254282   4.727   5.762  11.151 -2.3444  0.6140 -0.2887
10931TIP3   OH254283   5.309   4.880   1.058  0.5267  0.1856 -0.2174
10931TIP3    H154284   5.313   4.975   1.069  1.6215  0.1195  0.0479
10931TIP3    H254285   5.236   4.866   0.997  1.0357  1.2760 -1.1120
10932TIP3   OH254286   2.178   3.335   0.213  0.4837  0.8744 -0.3303
10932TIP3    H154287   2.099   3.341   0.267  0.7242  0.7748  0.0326
10932TIP3    H254288   2.172   3.410   0.155  0.5984  1.4033  0.3364
10933TIP3   OH254289   4.395   4.218  13.788 -0.6721  0.7210  0.4865
10933TIP3    H154290   4.339   4.282  13.832 -0.4104  1.4995 -0.3053
10933TIP3    H254291   4.484   4.253  13.800 -0.5339  0.5369  0.0001
10934TIP3   OH254292   0.430   4.069  11.044  0.2199 -0.3992 -0.1646
10934TIP3    H154293   0.439   4.054  10.950 -1.3728  0.6711 -0.5081
10934TIP3    H254294   0.489   4.006  11.084  2.0656  0.1454 -1.9309
10935TIP3   OH254295   5.550   3.477   0.918 -0.1964  0.4449 -0.2115
10935TIP3    H154296   5.591   3.406   0.869 -1.6849 -0.9527  0.5011
10935TIP3    H254297   5.607   3.490   0.993 -0.7891 -1.2194  0.5697
10936TIP3   OH254298   2.129   1.852  12.378 -0.0264  0.9092  0.5145
10936TIP3    H154299   2.168   1.819  12.297  1.5693  0.1868  1.5527
10936TIP3    H254300   2.120   1.946  12.365  0.2764  0.7985 -0.4701
10937TIP3   OH254301   4.855   1.453   6.646 -0.1795  0.6470 -0.4385
10937TIP3    H154302   4.831   1.532   6.597 -3.0126 -0.0808 -0.3063
10937TIP3    H254303   4.808   1.461   6.729  0.7681 -0.4442  0.2172
10938TIP3   OH254304   6.738   6.120   3.352  0.1267 -0.0730 -0.4144
10938TIP3    H154305   6.824   6.112   3.311  1.9379  2.4422  2.6483
10938TIP3    H254306   6.745   6.069   3.433 -1.4488 -0.3310 -0.4331
10939TIP3   OH254307   6.337   0.127   0.239 -0.0838  0.2624  0.0270
10939TIP3    H154308   6.336   0.058   0.306 -0.4353 -0.0248 -0.2727
10939TIP3    H254309   6.345   0.208   0.289  0.3503  0.0080  0.3847
10940TIP3   OH254310   2.029   2.234   3.656 -0.3926  0.0910 -0.1532
10940TIP3    H154311   2.006   2.241   3.748 -0.8156  2.1493 -0.3936
10940TIP3    H254312   2.120   2.265   3.651  0.4929 -2.3947 -0.0814
10941TIP3   OH254313   4.626   3.843   5.186 -0.4837  0.2004 -0.5195
10941TIP3    H154314   4.645   3.749   5.195 -1.2794 -0.3621 -3.7503
10941TIP3    H254315   4.711   3.886   5.194 -0.1729 -0.7184  1.4773
10942TIP3   OH254316   5.800   2.495  12.433  0.2361 -0.1757  0.0616
10942TIP3    H154317   5.806   2.557  12.506 -2.3695 -0.5283  0.6218
10942TIP3    H254318   5.774   2.549  12.358 -0.9109 -0.4149  0.2863
10943TIP3   OH254319   1.885   5.208   1.441  0.2364 -0.2208 -0.4348
10943TIP3    H154320   1.850   5.155   1.513  0.3631 -0.1080 -0.2875
10943TIP3    H254321   1.927   5.145   1.382  0.5378 -0.2702 -0.1721
10944TIP3   OH254322   3.073   5.902  13.607  0.3369  0.2472  0.3864
10944TIP3    H154323   3.160   5.875  13.636  0.5898 -2.5367 -2.6602
10944TIP3    H254324   3.089   5.971  13.542  0.1807  0.7348  0.8612
10945TIP3   OH254325   1.133   4.291   2.847 -0.0152  0.1513 -0.3486
10945TIP3    H154326   1.153   4.341   2.926  0.4285 -0.4765 -0.0547
10945TIP3    H254327   1.097   4.355   2.786 -0.7630  0.5576  0.5142
10946TIP3   OH254328   6.407   1.134   5.030 -0.1884 -0.1110 -0.1997
10946TIP3    H154329   6.385   1.217   4.989 -0.3547  1.4524  2.9354
10946TIP3    H254330   6.489   1.151   5.076 -0.5424 -1.5001  0.9829
10947TIP3   OH254331   0.360   1.455   4.202 -0.2279  0.4348 -0.1116
10947TIP3    H154332   0.351   1.370   4.159  0.1110  0.7127 -0.7314
10947TIP3    H254333   0.272   1.494   4.198 -0.3328  0.2080 -0.0142
10948TIP3   OH254334   0.959   6.537  16.438  0.5416  0.1329 -0.1016
10948TIP3    H154335   0.914   6.617  16.464  0.7958 -0.1308  1.1490
10948TIP3    H254336   1.015   6.565  16.365 -0.9549  0.6413 -1.1001
10949TIP3   OH254337   5.548   4.836  14.534 -0.3406  0.6550 -0.3814
10949TIP3    H154338   5.478   4.898  14.512 -0.1693  0.2362 -2.1661
10949TIP3    H254339   5.609   4.842  14.461  0.2332 -0.8304 -0.0358
10950TIP3   OH254340   5.508   1.840  17.282 -0.2140 -0.3980  0.0267
10950TIP3    H154341   5.474   1.847  17.193  1.6511  0.3636 -0.6563
10950TIP3    H254342   5.470   1.759  17.316  0.5403 -1.7053 -2.1365
10951TIP3   OH254343   3.347   0.710  10.943 -0.1204  0.1463 -0.0141
10951TIP3    H154344   3.403   0.718  10.866 -0.2480  1.5568  0.0179
10951TIP3    H254345   3.339   0.616  10.957  0.5120 -0.1143 -1.2739
10952TIP3   OH254346   2.137   1.971  12.814 -0.0329  0.2391 -0.2091
10952TIP3    H154347   2.077   1.955  12.741  0.2078  1.6374 -0.7362
10952TIP3    H254348   2.208   1.908  12.801  0.5323  1.1854 -1.7940
10953TIP3   OH254349   3.201   2.486   0.916 -0.5752 -0.4577 -0.0748
10953TIP3    H154350   3.290   2.509   0.946 -0.0959  0.1692 -1.9272
10953TIP3    H254351   3.150   2.566   0.930 -0.0298  0.2703 -2.1437
10954TIP3   OH254352   2.245   2.841  13.683 -0.0738  0.0358 -0.3236
10954TIP3    H154353   2.277   2.907  13.744 -1.6725 -0.0307  0.6221
10954TIP3    H254354   2.235   2.762  13.736  1.2127 -0.8114 -1.3061
10955TIP3   OH254355   3.924   4.019   3.415  0.2193 -0.7855 -0.8790
10955TIP3    H154356   3.855   3.957   3.391  0.0055 -0.7099 -0.4665
10955TIP3    H254357   3.917   4.089   3.350 -1.6913  0.4270  0.5594
10956TIP3   OH254358   6.173   3.946   3.000  0.4488 -0.2758 -0.4776
10956TIP3    H154359   6.171   3.913   3.090  0.2839 -2.2235 -1.1902
10956TIP3    H254360   6.082   3.970   2.981  0.5890  0.7323  0.0764
10957TIP3   OH254361   5.939   1.373  15.969  0.2658  0.5017 -0.2747
10957TIP3    H154362   5.935   1.421  16.051 -1.3899  0.9844 -0.6269
10957TIP3    H254363   5.942   1.280  15.994 -0.9168  0.6244  0.3118
10958TIP3   OH254364   3.878   5.476  16.058 -0.1530  0.0187  0.5012
10958TIP3    H154365   3.819   5.459  16.131 -0.3078  0.5287  0.5028
10958TIP3    H254366   3.916   5.391  16.037 -0.5005 -0.2218  0.8362
10959TIP3   OH254367   3.104   3.357  11.169 -0.0349 -1.3170 -0.2673
10959TIP3    H154368   3.012   3.335  11.186 -0.3357  0.4294  0.5004
10959TIP3    H254369   3.144   3.360  11.255  0.0598  0.7398 -0.3548
10960TIP3   OH254370   5.840   3.639  13.227 -0.5839  0.0639 -0.2836
10960TIP3    H154371   5.804   3.622  13.314  2.0395  0.6460  0.9827
10960TIP3    H254372   5.848   3.734  13.223  1.3546 -0.0775 -0.2642
10961TIP3   OH254373   6.583   5.235   1.243  0.1669 -0.0521 -0.5414
10961TIP3    H154374   6.672   5.204   1.225  0.3099  0.3881 -0.5975
10961TIP3    H254375   6.573   5.312   1.187 -0.7891 -0.9693 -1.6714
10962TIP3   OH254376   3.426   0.235   0.405 -0.1765 -0.1716 -0.3225
10962TIP3    H154377   3.407   0.265   0.316  1.1967  0.0047 -0.5669
10962TIP3    H254378   3.514   0.267   0.422 -0.0195 -1.1450  0.7004
10963TIP3   OH254379   5.639   5.195   0.926 -0.0708  0.3513  0.2831
10963TIP3    H154380   5.573   5.219   0.991 -1.8226 -3.3581 -0.0050
10963TIP3    H254381   5.634   5.264   0.859 -5.0344 -0.7584 -0.6630
10964TIP3   OH254382   3.044   6.458  14.164  0.5503 -0.2463 -0.4914
10964TIP3    H154383   3.037   6.541  14.118 -1.2397 -0.3455 -0.4100
10964TIP3    H254384   3.041   6.392  14.094  2.6619 -0.2435 -0.6188
10965TIP3   OH254385   1.314   4.824   6.131  0.4606 -0.1823  0.0631
10965TIP3    H154386   1.327   4.890   6.200 -2.6749 -0.7443  1.2744
10965TIP3    H254387   1.285   4.746   6.179 -0.7402 -0.9050 -1.8192
10966TIP3   OH254388   2.104   0.232   3.357  0.3498  0.3182 -0.1568
10966TIP3    H154389   2.019   0.253   3.319 -0.6393 -2.6577  0.2784
10966TIP3    H254390   2.128   0.148   3.316  2.8196  0.8471  0.1301
10967TIP3   OH254391   4.261   3.333   3.222  0.3052  0.2512  0.2884
10967TIP3    H154392   4.209   3.412   3.206 -0.5008 -0.1921  0.6934
10967TIP3    H254393   4.224   3.267   3.164 -1.0364 -0.6781  2.1491
10968TIP3   OH254394   4.382   5.816   3.106  0.1749 -0.0999  0.1226
10968TIP3    H154395   4.322   5.797   3.034  0.5079  0.4134 -0.2897
10968TIP3    H254396   4.377   5.738   3.162  0.9555 -1.0925 -1.1618
10969TIP3   OH254397   4.248   6.027  10.756 -0.0253  0.1911 -0.1646
10969TIP3    H154398   4.323   6.078  10.786  0.3322  0.0163 -0.7600
10969TIP3    H254399   4.254   6.028  10.661 -0.3039 -0.5374 -0.1929
10970TIP3   OH254400   2.030   1.552   5.903  0.2665 -0.1161 -0.2130
10970TIP3    H154401   1.940   1.586   5.901  0.0767 -0.6315 -0.5997
10970TIP3    H254402   2.082   1.618   5.859  0.3306  0.9123  1.3659
10971TIP3   OH254403   3.610   3.569   2.679 -0.4683  0.2541  0.2919
10971TIP3    H154404   3.635   3.607   2.595 -2.3995 -0.0832 -0.4626
10971TIP3    H254405   3.520   3.598   2.693 -1.5599 -2.8683  0.3262
10972TIP3   OH254406   1.076   5.683  14.956  0.0653  0.4625 -0.2668
10972TIP3    H154407   1.004   5.640  15.002 -0.8520  1.2657 -0.9417
10972TIP3    H254408   1.036   5.759  14.914  0.9683 -0.0338 -2.0717
10973TIP3   OH254409   5.311   5.587   4.028 -0.0737  0.4806  0.3565
10973TIP3    H154410   5.238   5.525   4.019 -0.6119  1.1505  0.0643
10973TIP3    H254411   5.277   5.655   4.086  0.1150  1.0912 -0.2424
10974TIP3   OH254412   4.696   0.445   4.409 -0.6152  0.0666 -0.4314
10974TIP3    H154413   4.671   0.459   4.500 -0.1494  4.0264 -0.8427
10974TIP3    H254414   4.615   0.460   4.359 -0.4810 -0.4815 -0.8317
10975TIP3   OH254415   2.459   6.176  14.811 -0.3133 -0.4490  0.1830
10975TIP3    H154416   2.429   6.097  14.766 -1.1547 -0.2099  0.3341
10975TIP3    H254417   2.454   6.154  14.904  2.5033 -1.3524  0.1849
10976TIP3   OH254418   0.546   1.619  14.315 -0.3557  0.2472 -0.6310
10976TIP3    H154419   0.590   1.683  14.260  0.6474 -0.9510 -1.2408
10976TIP3    H254420   0.544   1.539  14.263 -0.9316 -0.4334  0.4069
10977TIP3   OH254421   4.476   2.688   0.330 -0.0672  0.0579  0.0554
10977TIP3    H154422   4.481   2.663   0.423 -0.4727 -0.6923 -0.1195
10977TIP3    H254423   4.390   2.656   0.302  1.3681 -2.6507 -1.4203
10978TIP3   OH254424   1.084   3.502  13.584  0.4095  0.4152 -0.3525
10978TIP3    H154425   1.159   3.445  13.568  0.6384  0.4502  0.5852
10978TIP3    H254426   1.011   3.442  13.599  0.0239  0.3738 -2.1929
10979TIP3   OH254427   2.366   1.470   2.915 -0.6587  0.0781 -0.1476
10979TIP3    H154428   2.294   1.465   2.852  0.1065 -0.8889 -0.9600
10979TIP3    H254429   2.324   1.464   3.001 -1.6815  1.0819 -0.5739
10980TIP3   OH254430   5.384   1.998   1.123  0.0624 -0.1514  0.1741
10980TIP3    H154431   5.384   1.902   1.118  1.5750 -0.1948  0.8161
10980TIP3    H254432   5.310   2.024   1.068 -0.2256 -1.6718 -0.1991
10981TIP3   OH254433   6.164   5.090   2.144 -0.2400 -0.5394  0.2443
10981TIP3    H154434   6.073   5.093   2.116 -0.5639  0.4084  1.3718
10981TIP3    H254435   6.185   5.179   2.171  0.4722 -1.1266  1.6926
10982TIP3   OH254436   0.152   4.519  12.604  0.9475 -0.5867  0.7561
10982TIP3    H154437   0.207   4.501  12.680  0.9660 -0.7658  0.7006
10982TIP3    H254438   0.149   4.436  12.557 -1.5844 -1.3604  2.1822
10983TIP3   OH254439   0.329   3.960   0.136  0.1006 -0.2379  0.4735
10983TIP3    H154440   0.383   3.881   0.141  0.4877  0.0067  0.1992
10983TIP3    H254441   0.253   3.941   0.191 -0.3253 -1.1948 -0.4269
10984TIP3   OH254442   1.736   3.524  13.862 -0.0082  0.6984  0.1957
10984TIP3    H154443   1.699   3.612  13.869 -0.8995  0.2721  0.8768
10984TIP3    H254444   1.727   3.502  13.769 -1.6501  0.5317  0.3728
10985TIP3   OH254445   2.221   4.990   0.756 -0.7144  0.3092  0.1887
10985TIP3    H154446   2.241   5.074   0.715  1.6281 -0.8877 -1.2764
10985TIP3    H254447   2.293   4.933   0.728 -2.2895 -2.1857  1.1059
10986TIP3   OH254448   0.766   1.715  14.899 -0.0043 -0.6765 -0.2090
10986TIP3    H154449   0.708   1.641  14.880  1.2537 -1.8314  0.3471
10986TIP3    H254450   0.780   1.711  14.993  1.0359 -0.4565 -0.3492
10987TIP3   OH254451   5.836   1.357   5.587 -0.5448 -0.3454 -0.2148
10987TIP3    H154452   5.931   1.350   5.576 -0.3272  0.2832  1.1110
10987TIP3    H254453   5.799   1.312   5.511  0.8134  1.6613 -2.1193
10988TIP3   OH254454   1.232   3.278  11.270  0.5145 -0.4318 -0.5749
10988TIP3    H154455   1.296   3.257  11.338 -0.6035 -2.5339 -0.1015
10988TIP3    H254456   1.239   3.205  11.208 -2.3157 -1.4318  0.1896
10989TIP3   OH254457   5.429   5.649   2.189  0.3444  0.4028 -0.0548
10989TIP3    H154458   5.507   5.664   2.241  1.6676  1.0152 -2.1620
10989TIP3    H254459   5.410   5.734   2.148  0.1397 -0.3746 -1.6360
10990TIP3   OH254460   3.242   1.683   4.405  0.3972 -0.4384  0.0887
10990TIP3    H154461   3.191   1.630   4.344 -0.2159  0.6309 -0.3443
10990TIP3    H254462   3.313   1.719   4.352 -0.5554  1.0779 -0.1773
10991TIP3   OH254463   0.972   3.238  13.033 -0.4015 -0.5761 -0.1766
10991TIP3    H154464   0.895   3.291  13.012 -0.9684 -1.0933  0.5894
10991TIP3    H254465   0.938   3.164  13.083  0.8311  0.2379  1.9290
10992TIP3   OH254466   4.076   1.477  12.703 -0.5142  0.2001  0.2842
10992TIP3    H154467   4.046   1.560  12.740  0.8681  1.1132 -0.6010
10992TIP3    H254468   4.013   1.458  12.633 -1.0027  0.3651  0.6804
10993TIP3   OH254469   6.574   4.089   6.729  0.0194 -0.3308 -0.1697
10993TIP3    H154470   6.522   4.125   6.657  1.3344 -1.9076 -1.9671
10993TIP3    H254471   6.640   4.155   6.747 -0.7218  0.3535  0.0302
10994TIP3   OH254472   6.669   2.908  10.435 -0.0636  0.2505 -0.8493
10994TIP3    H154473   6.723   2.974  10.479 -0.4568  0.8624 -1.2858
10994TIP3    H254474   6.732   2.855  10.387  0.6050 -1.6573  1.9794
10995TIP3   OH254475   2.262   3.311  16.854  0.1989  0.3476  0.1957
10995TIP3    H154476   2.319   3.252  16.806  1.0102  1.8029 -0.6723
10995TIP3    H254477   2.321   3.360  16.911 -0.5072  0.0589  1.1892
10996TIP3   OH254478   1.885   6.330  16.424 -0.2704  0.2357  0.5055
10996TIP3    H154479   1.940   6.377  16.488 -0.9546  0.2302  1.1037
10996TIP3    H254480   1.930   6.343  16.340  1.0909 -0.4394  1.1019
10997TIP3   OH254481   5.349   6.215  12.660  0.3963  0.6273 -0.6099
10997TIP3    H154482   5.407   6.251  12.593 -0.5298  0.2317 -1.6356
10997TIP3    H254483   5.363   6.121  12.656 -2.0980  0.2712 -2.6083
10998TIP3   OH254484   4.122   2.301  13.790  0.1291 -0.3648 -0.2346
10998TIP3    H154485   4.091   2.391  13.782 -0.8935 -0.6358  0.6301
10998TIP3    H254486   4.043   2.247  13.790  0.8163 -1.4690 -3.1063
10999TIP3   OH254487   5.996   1.421  15.488  0.1690  0.3453  0.3842
10999TIP3    H154488   5.925   1.380  15.439  0.8895  0.7027 -0.9722
10999TIP3    H254489   6.076   1.395  15.441  1.0191 -0.7441  2.3582
11000TIP3   OH254490   6.343   0.965   4.017 -0.1929  0.3264  0.2156
11000TIP3    H154491   6.264   0.986   3.966 -0.3604  0.4157  0.5078
11000TIP3    H254492   6.408   0.939   3.952 -0.0053  1.6945 -0.1635
11001TIP3   OH254493   1.976   5.645   3.692  0.2635 -0.4371  0.2961
11001TIP3    H154494   2.030   5.721   3.669  0.7012 -1.2447 -1.4014
11001TIP3    H254495   1.888   5.669   3.665  0.6365 -1.0552 -1.5069
11002TIP3   OH254496   3.827   4.675  15.067  0.4290 -0.5842  0.4598
11002TIP3    H154497   3.755   4.679  15.130 -0.7410  2.9173 -0.9321
11002TIP3    H254498   3.893   4.734  15.103  0.3981  0.2314 -0.8009
11003TIP3   OH254499   1.107   2.528   4.900  0.1508  0.0737 -0.5905
11003TIP3    H154500   1.049   2.604   4.904 -1.4071 -1.1037 -0.5610
11003TIP3    H254501   1.163   2.545   4.824  0.0075  1.3901 -0.4115
11004TIP3   OH254502   2.878   6.087   0.119 -0.7180 -0.5870 -1.3138
11004TIP3    H154503   2.935   6.089   0.196 -1.4767 -2.8328 -0.6516
11004TIP3    H254504   2.896   6.170   0.074  2.1452 -0.6801 -0.4755
11005TIP3   OH254505   1.262   0.106   5.613 -0.2692  0.6648  0.0654
11005TIP3    H154506   1.202   0.034   5.629  0.8825 -0.0426  1.2389
11005TIP3    H254507   1.254   0.123   5.519 -2.2189  0.5297  0.1782
11006TIP3   OH254508   6.594   5.089  16.254  0.2086  0.7807 -0.5158
11006TIP3    H154509   6.688   5.102  16.254  0.3582 -0.1595 -1.9684
11006TIP3    H254510   6.581   5.009  16.305  0.1836  1.0269 -0.1402
11007TIP3   OH254511   3.624   4.919   4.627  0.1889 -0.2439  0.0834
11007TIP3    H154512   3.656   4.832   4.651 -0.1298 -0.1118  1.0232
11007TIP3    H254513   3.529   4.910   4.622 -0.0201  0.5058  2.1916
11008TIP3   OH254514   6.184   3.974   1.679 -0.0669  0.7066 -0.3453
11008TIP3    H154515   6.122   4.040   1.712 -0.4112 -0.2480  0.9680
11008TIP3    H254516   6.259   3.981   1.737 -0.9062 -1.3795  1.0499
11009TIP3   OH254517   3.936   5.711   0.797 -0.5169  0.3017  0.2692
11009TIP3    H154518   3.876   5.675   0.731  0.0031  1.2350 -0.7344
11009TIP3    H254519   3.896   5.689   0.881 -1.6829 -0.0672 -0.3741
11010TIP3   OH254520   5.364   6.508   4.007 -0.1520 -0.1467  0.4702
11010TIP3    H154521   5.438   6.505   4.067  0.2037  0.2556  0.0591
11010TIP3    H254522   5.318   6.426   4.022 -0.0297 -0.0768  1.2419
11011TIP3   OH254523   4.400   4.272  15.683 -0.3486  0.8075 -0.0827
11011TIP3    H154524   4.456   4.220  15.741 -0.4886 -3.3758 -3.4399
11011TIP3    H254525   4.330   4.305  15.739 -0.2492 -2.7424  2.2221
11012TIP3   OH254526   4.628   6.452   4.422  0.5568 -0.4751 -0.2103
11012TIP3    H154527   4.601   6.403   4.344  0.8743  0.1066 -0.6923
11012TIP3    H254528   4.630   6.543   4.393  0.3895 -0.2200  0.5641
11013TIP3   OH254529   1.867   4.385  16.439 -0.2928  0.0654 -0.5590
11013TIP3    H154530   1.876   4.381  16.534  0.2894 -1.7992 -0.6723
11013TIP3    H254531   1.944   4.436  16.410  0.7454 -1.2658 -0.1929
11014TIP3   OH254532   1.582   3.815   4.468  0.0638 -0.2106  0.1364
11014TIP3    H154533   1.569   3.893   4.522 -0.2391 -1.0462  1.3143
11014TIP3    H254534   1.669   3.783   4.494 -0.6677 -1.4106  1.2102
11015TIP3   OH254535   5.032   5.128   4.809  0.0145 -0.0832 -0.9429
11015TIP3    H154536   5.102   5.109   4.871 -0.9386  1.2682  0.5750
11015TIP3    H254537   5.021   5.046   4.760  0.5516 -1.3026  0.8979
11016TIP3   OH254538   5.637   6.240   4.795 -0.3686 -0.0815  0.4066
11016TIP3    H154539   5.607   6.294   4.722  2.0860 -1.1002 -1.4435
11016TIP3    H254540   5.562   6.186   4.818 -1.8373  1.7992  0.0937
11017TIP3   OH254541   5.252   5.987   1.745  0.0220 -0.2553 -0.1691
11017TIP3    H154542   5.343   5.961   1.729  0.2983  0.9513 -0.5806
11017TIP3    H254543   5.227   6.036   1.667 -1.0954 -0.8382 -0.1918
11018TIP3   OH254544   1.112   1.917  16.642 -0.5306 -0.6505 -0.2972
11018TIP3    H154545   1.099   1.968  16.722  2.2379  1.2753 -1.0026
11018TIP3    H254546   1.024   1.908  16.605 -1.6390 -0.1819  2.1101
11019TIP3   OH254547   4.708   1.681   4.102 -0.1522  0.0794  1.0816
11019TIP3    H154548   4.766   1.696   4.176 -0.8222 -0.4359  1.7099
11019TIP3    H254549   4.623   1.713   4.131 -0.3547  0.1401  0.4303
11020TIP3   OH254550   3.563   5.324   2.006 -0.1247  0.2076 -0.0481
11020TIP3    H154551   3.495   5.284   2.061 -0.1457 -1.7205 -1.4148
11020TIP3    H254552   3.515   5.368   1.937 -0.0057 -1.2867 -1.1018
11021TIP3   OH254553   6.405   4.589  11.271 -0.0156  0.2856  0.3024
11021TIP3    H154554   6.458   4.576  11.350  0.1312 -1.2522 -0.0308
11021TIP3    H254555   6.466   4.629  11.208  1.0102 -2.1812 -0.3319
11022TIP3   OH254556   4.184   2.967   4.931 -0.0445  0.2668 -0.3167
11022TIP3    H154557   4.185   2.887   4.878  1.6259  0.3952 -0.4937
11022TIP3    H254558   4.204   2.938   5.019  0.8588  0.5229 -0.4354
11023TIP3   OH254559   3.742   0.855   1.250 -0.2215  0.2197  0.0453
11023TIP3    H154560   3.828   0.892   1.231  0.0531 -0.2368  0.3950
11023TIP3    H254561   3.701   0.845   1.164  0.1449  0.2684 -0.1382
11024TIP3   OH254562   5.791   1.241  12.249  0.3917 -0.0069  0.0137
11024TIP3    H154563   5.870   1.194  12.224  0.2976 -1.1646  1.8086
11024TIP3    H254564   5.814   1.287  12.329  0.1765  2.2607 -1.1654
11025TIP3   OH254565   3.830   6.567  14.285  0.3520 -0.5174 -0.0427
11025TIP3    H154566   3.801   6.477  14.271 -0.3647 -0.1817 -0.7168
11025TIP3    H254567   3.793   6.616  14.212  0.4216  0.3940  0.5302
11026TIP3   OH254568   6.306   4.379   0.438  0.2045  0.3297  0.2058
11026TIP3    H154569   6.217   4.345   0.450 -0.2131  1.3669  0.1215
11026TIP3    H254570   6.347   4.318   0.377 -0.6266  0.1466 -0.1777
11027TIP3   OH254571   5.972   6.752   2.373  0.2166  0.3812  0.2175
11027TIP3    H154572   5.991   6.781   2.284  0.1578  2.0383  0.7348
11027TIP3    H254573   5.877   6.742   2.375  0.4727 -3.1045 -0.9101
11028TIP3   OH254574   2.798   4.111   5.939  0.2973  0.0254  0.4390
11028TIP3    H154575   2.729   4.164   5.977 -1.0178 -0.6575 -0.9388
11028TIP3    H254576   2.762   4.080   5.856  1.7954 -1.3570  0.2674
11029TIP3   OH254577   6.089   1.417   1.206 -0.2704  0.9936  0.4642
11029TIP3    H154578   6.101   1.363   1.284  0.0944  0.5661  0.1151
11029TIP3    H254579   6.168   1.471   1.201  1.1312 -1.1058 -1.2697
11030TIP3   OH254580   5.482   3.301  15.418 -0.3485 -0.2950 -0.0202
11030TIP3    H154581   5.456   3.219  15.375 -0.0890 -0.7145  0.6171
11030TIP3    H254582   5.564   3.325  15.376  1.5894 -2.3988  2.4034
11031TIP3   OH254583   0.151   6.815   0.489 -0.1162 -0.0562  0.0758
11031TIP3    H154584   0.235   6.833   0.532 -0.6382  0.2901  0.9499
11031TIP3    H254585   0.094   6.785   0.559 -1.4318  1.9845 -0.0607
11032TIP3   OH254586   4.610   3.170  16.765 -0.0705 -0.4563  0.4789
11032TIP3    H154587   4.623   3.157  16.671  1.8619  1.4865  0.4312
11032TIP3    H254588   4.644   3.090  16.805 -1.9033 -1.7681 -0.4864
11033TIP3   OH254589   0.647   3.993  17.173  0.4405 -0.0985  0.0241
11033TIP3    H154590   0.704   4.059  17.133  0.9490 -0.6199 -0.1179
11033TIP3    H254591   0.706   3.941  17.228 -0.4321  1.3320  2.3944
11034TIP3   OH254592   4.421   4.717  14.083 -0.3659 -0.3699 -0.0552
11034TIP3    H154593   4.413   4.766  14.164 -1.5180  0.9686 -0.9481
11034TIP3    H254594   4.348   4.654  14.086 -0.4710 -0.2494 -0.1052
11035TIP3   OH254595   5.027   2.369  11.289 -0.1845 -0.1587  0.0733
11035TIP3    H154596   5.046   2.451  11.334 -0.1665  0.6567 -1.3816
11035TIP3    H254597   5.057   2.301  11.349 -0.4542  0.8811  1.4139
11036TIP3   OH254598   3.276   3.549   4.224  0.3336  0.1350 -0.2315
11036TIP3    H154599   3.349   3.552   4.285  0.7622 -1.4534 -0.6184
11036TIP3    H254600   3.279   3.632   4.177  0.9725  0.6942  0.7975
11037TIP3   OH254601   1.348   2.470   4.110 -0.4255  0.5688 -0.0405
11037TIP3    H154602   1.310   2.551   4.074  0.3725  0.2233 -1.6780
11037TIP3    H254603   1.434   2.464   4.070  0.1957 -0.2432  1.3660
11038TIP3   OH254604   1.672   5.374  13.005 -0.3108 -0.2442  0.3201
11038TIP3    H154605   1.673   5.368  12.910  1.6777 -0.6436  0.3325
11038TIP3    H254606   1.757   5.339  13.032 -0.8336 -0.1092  2.2391
11039TIP3   OH254607   6.075   0.910   1.281 -0.1726 -0.4336 -0.0738
11039TIP3    H154608   6.160   0.866   1.273  0.1872  0.1906  0.3073
11039TIP3    H254609   6.084   0.990   1.229 -0.9890 -1.0340 -1.1683
11040TIP3   OH254610   5.626   4.635  16.988  0.3594 -0.7673 -0.1862
11040TIP3    H154611   5.531   4.632  16.991  0.3998 -1.6637  0.2643
11040TIP3    H254612   5.647   4.656  16.897 -0.2907  0.8389  0.0071
11041TIP3   OH254613   2.084   2.087  13.252  0.5752 -0.1872 -0.7939
11041TIP3    H154614   2.064   2.147  13.324  0.2030 -0.0645 -1.0002
11041TIP3    H254615   2.165   2.044  13.279 -0.3841 -1.2856  0.4216
11042TIP3   OH254616   1.480   2.304   1.918  0.1400 -0.0318  0.1798
11042TIP3    H154617   1.521   2.383   1.953 -0.9160  1.2760 -1.4997
11042TIP3    H254618   1.401   2.293   1.971 -0.4103  0.8135 -0.4480
11043TIP3   OH254619   0.765   0.234  10.763  0.0169 -0.2822 -0.2014
11043TIP3    H154620   0.821   0.270  10.694  0.4055 -0.6570 -0.0798
11043TIP3    H254621   0.676   0.259  10.736  0.2640  0.6222 -0.2082
11044TIP3   OH254622   2.516   1.422  12.496  0.1913 -0.0435 -0.0189
11044TIP3    H154623   2.539   1.499  12.444  1.3672  0.8805  1.8041
11044TIP3    H254624   2.430   1.443  12.533  0.1277  0.0378 -0.2142
11045TIP3   OH254625   3.066   5.547  12.353 -0.5731 -0.1486 -0.4009
11045TIP3    H154626   3.094   5.631  12.388 -3.2127  0.2994  0.6936
11045TIP3    H254627   3.124   5.483  12.394  1.3952  1.0995 -1.1808
11046TIP3   OH254628   3.493   6.212   3.147  0.4263 -0.8532 -0.3847
11046TIP3    H154629   3.535   6.254   3.072  0.2215  0.6277  0.3283
11046TIP3    H254630   3.566   6.180   3.201  0.5998 -0.3911 -0.3461
11047TIP3   OH254631   1.553   0.448   1.572 -0.1487  0.1905 -0.4213
11047TIP3    H154632   1.557   0.400   1.655 -0.6731 -0.4016 -0.7381
11047TIP3    H254633   1.542   0.381   1.505  2.7166  0.4334 -1.2283
11048TIP3   OH254634   4.540   6.028  16.000  0.0143 -0.6390  0.5182
11048TIP3    H154635   4.632   6.043  15.975 -0.2082  2.4138  1.4130
11048TIP3    H254636   4.497   6.002  15.918  1.3844 -0.7836 -0.1719
11049TIP3   OH254637   2.141   2.872  16.025  0.0275 -0.6104  0.3831
11049TIP3    H154638   2.067   2.933  16.022 -1.3441 -2.2654 -0.1065
11049TIP3    H254639   2.167   2.869  16.117 -1.2710 -0.9154  0.7337
11050TIP3   OH254640   0.337   6.683  11.682  0.4339  0.1078 -0.5693
11050TIP3    H154641   0.429   6.695  11.657  0.6751 -0.7239 -0.1321
11050TIP3    H254642   0.341   6.664  11.776 -0.2722  1.0815 -0.3400
11051TIP3   OH254643   3.498   2.731  13.447  0.3907 -0.1806 -0.0400
11051TIP3    H154644   3.586   2.768  13.440  0.4177 -0.3013 -0.3426
11051TIP3    H254645   3.510   2.637  13.432  0.5523 -0.5787  2.2996
11052TIP3   OH254646   3.266   2.056   5.585 -0.0605  0.2617  0.0679
11052TIP3    H154647   3.180   2.036   5.623  0.5864  3.3880  3.4290
11052TIP3    H254648   3.327   2.000   5.634  0.1054 -0.1507 -0.6107
11053TIP3   OH254649   0.503   3.696  14.863  0.3298 -0.5518  0.4365
11053TIP3    H154650   0.530   3.605  14.874 -0.0598 -0.5911  1.0834
11053TIP3    H254651   0.555   3.728  14.789  0.9526 -1.1011  0.6360
11054TIP3   OH254652   1.362   0.977  12.808 -0.3317  0.4117  0.4219
11054TIP3    H154653   1.422   1.045  12.841 -1.1012  1.0577  0.5157
11054TIP3    H254654   1.419   0.916  12.761  0.2424  1.7623 -0.6899
11055TIP3   OH254655   4.124   3.321  13.544  0.6917  0.4388 -0.5512
11055TIP3    H154656   4.133   3.354  13.633 -0.0444 -0.2359 -0.2094
11055TIP3    H254657   4.034   3.286  13.541  1.3147 -1.1845 -0.9858
11056TIP3   OH254658   4.586   5.780   2.412 -0.4352 -0.4863  0.3440
11056TIP3    H154659   4.594   5.692   2.376 -0.9928 -0.5628  0.3993
11056TIP3    H254660   4.584   5.838   2.335 -0.0155 -0.5190  0.3106
11057TIP3   OH254661   2.126   4.065   4.914 -0.6452  0.1037  0.0002
11057TIP3    H154662   2.051   4.123   4.927 -0.6154  0.0159  0.5764
11057TIP3    H254663   2.105   3.986   4.964 -0.0676  0.1744  0.3675
11058TIP3   OH254664   1.314   1.209   5.473 -0.2538 -0.2140 -0.6435
11058TIP3    H154665   1.267   1.270   5.529  0.4985  1.1955 -1.5185
11058TIP3    H254666   1.405   1.214   5.503 -0.1841 -0.9193 -0.7164
11059TIP3   OH254667   1.363   2.072  14.880 -0.2300 -0.0397 -0.1369
11059TIP3    H154668   1.393   2.152  14.835 -0.0453 -0.2465 -0.3832
11059TIP3    H254669   1.319   2.022  14.811  1.5266 -1.1401 -0.4986
11060TIP3   OH254670   1.659   3.784  12.562 -0.2506 -0.3772  0.0895
11060TIP3    H154671   1.728   3.755  12.503 -0.0329  0.0359  0.1401
11060TIP3    H254672   1.608   3.848  12.511 -0.3462 -0.3729  0.1900
11061TIP3   OH254673   2.981   5.423   2.322  0.1347 -0.2692  0.3029
11061TIP3    H154674   3.052   5.363   2.299 -0.0388 -0.5296  0.4437
11061TIP3    H254675   2.957   5.398   2.411 -0.7637 -0.8088 -0.0761
11062TIP3   OH254676   6.467   2.458   5.206  0.5655  0.0410 -0.4215
11062TIP3    H154677   6.450   2.385   5.147 -0.3233 -1.0848  1.1798
11062TIP3    H254678   6.559   2.479   5.193  0.0307  0.7873 -3.2586
11063TIP3   OH254679   3.929   1.578   0.340  0.4684  0.7456 -0.2185
11063TIP3    H154680   3.855   1.516   0.343 -0.0364  1.2763 -1.3744
11063TIP3    H254681   3.938   1.608   0.430  0.3325 -0.5598  0.2492
11064TIP3   OH254682   1.163   1.496   2.031  0.1450  0.5829 -0.2108
11064TIP3    H154683   1.119   1.524   1.951  1.2604  1.5189 -0.5100
11064TIP3    H254684   1.128   1.409   2.049  0.3364  0.1001 -2.0721
11065TIP3   OH254685   6.437   3.925   5.275  0.3810  0.3027 -0.4209
11065TIP3    H154686   6.469   3.986   5.208  0.1671 -1.5574 -2.2850
11065TIP3    H254687   6.353   3.960   5.302  0.3970  0.9963 -1.2683
11066TIP3   OH254688   2.991   1.527   6.491 -0.1130 -0.0406  0.0560
11066TIP3    H154689   2.997   1.597   6.426  1.0366 -0.9401 -0.8524
11066TIP3    H254690   3.000   1.571   6.575  2.8169  0.7240 -0.5838
11067TIP3   OH254691   1.966   3.725  12.884  0.0822  0.1299  0.1138
11067TIP3    H154692   2.001   3.670  12.954 -0.1421 -2.1363 -1.4966
11067TIP3    H254693   2.033   3.721  12.815 -0.4605  0.9732 -0.4710
11068TIP3   OH254694   0.139   2.109   5.526 -0.0531  0.8882 -1.4674
11068TIP3    H154695   0.062   2.071   5.485  0.2288  0.5934 -1.7313
11068TIP3    H254696   0.173   2.040   5.583 -0.2115  1.1573 -1.0471
11069TIP3   OH254697   5.837   6.416  11.221 -0.2506  0.1996  0.3881
11069TIP3    H154698   5.810   6.468  11.144 -0.0709 -0.8682 -0.4134
11069TIP3    H254699   5.823   6.474  11.295  0.3986  1.5696 -0.5352
11070TIP3   OH254700   4.101   1.325   3.617 -0.0617  0.3659  0.3932
11070TIP3    H154701   4.177   1.298   3.667  0.9979  0.1094 -1.3179
11070TIP3    H254702   4.114   1.418   3.601 -0.6877  0.5764  1.0874
11071TIP3   OH254703   0.377   3.061  17.160  0.1900 -0.3127 -0.8877
11071TIP3    H154704   0.384   3.153  17.184  3.0113 -0.7827  0.2171
11071TIP3    H254705   0.321   3.023  17.228  1.6947 -0.0408  0.5406
11072TIP3   OH254706   6.144   5.464   3.620 -0.0017 -0.2908  0.2077
11072TIP3    H154707   6.190   5.443   3.538 -0.1595  0.0512  0.0317
11072TIP3    H254708   6.052   5.442   3.602 -0.2089  0.7458 -0.0530
11073TIP3   OH254709   2.033   0.292  14.053  0.4852 -0.1238  0.0125
11073TIP3    H154710   2.124   0.286  14.023  0.5053  1.1669 -0.2160
11073TIP3    H254711   1.981   0.261  13.979  0.6361  1.1761 -0.6477
11074TIP3   OH254712   3.144   6.197  11.393 -0.4571 -0.0898  0.3387
11074TIP3    H154713   3.093   6.255  11.337 -2.7269 -0.8968  1.5078
11074TIP3    H254714   3.223   6.178  11.343 -0.9172  1.8382 -1.1713
11075TIP3   OH254715   4.677   1.914  12.121 -0.6514  0.1319  0.1537
11075TIP3    H154716   4.764   1.873  12.129 -0.8573  0.0562  2.3981
11075TIP3    H254717   4.655   1.904  12.029  1.5014 -0.3300 -0.3595
11076TIP3   OH254718   3.194   2.978   5.921  0.2317 -0.2472 -0.0829
11076TIP3    H154719   3.261   2.952   5.984 -1.6471 -1.8526  1.3153
11076TIP3    H254720   3.120   2.921   5.940 -1.6488  1.6789 -1.4084
11077TIP3   OH254721   0.346   1.596   2.841  0.0132  0.2142  0.1725
11077TIP3    H154722   0.375   1.507   2.862  1.3364  0.4772 -0.4891
11077TIP3    H254723   0.372   1.648   2.917  1.5991  0.5069 -0.5499
11078TIP3   OH254724   4.969   2.060  12.637  0.2054  0.2724  0.1442
11078TIP3    H154725   4.906   2.102  12.579 -0.1996  1.6288  1.5314
11078TIP3    H254726   4.918   1.995  12.685  0.3879 -0.3295 -0.4646
11079TIP3   OH254727   3.397   2.509  13.941 -0.4434  0.2331  0.5938
11079TIP3    H154728   3.360   2.595  13.924  1.7989  0.9119 -1.0750
11079TIP3    H254729   3.400   2.467  13.855 -0.8359 -1.2740  1.2818
11080TIP3   OH254730   3.406   1.410   3.359 -0.5792  0.1962 -0.3313
11080TIP3    H154731   3.450   1.382   3.439  1.0491 -0.4603 -1.4209
11080TIP3    H254732   3.452   1.363   3.289 -0.1852  2.7829 -1.8839
11081TIP3   OH254733   2.405   0.189  12.687  0.0756  0.6287 -0.2376
11081TIP3    H154734   2.349   0.257  12.725  1.1261  0.4113  1.7458
11081TIP3    H254735   2.366   0.107  12.717  0.3791  0.4310 -0.3846
11082TIP3   OH254736   0.141   3.392  17.172 -0.0320  0.1720  0.0271
11082TIP3    H154737   0.170   3.483  17.163  0.5355  0.1274  1.2806
11082TIP3    H254738   0.203   3.342  17.118  0.2595  0.4289  0.1176
11083TIP3   OH254739   0.426   6.749   0.405  0.1094 -0.4428  0.0690
11083TIP3    H154740   0.436   6.676   0.343  2.0166  0.3372 -0.5961
11083TIP3    H254741   0.381   6.816   0.354 -1.4497 -1.0552  0.6146
11084TIP3   OH254742   0.388   1.956   1.910 -0.4798 -0.1507 -0.6548
11084TIP3    H154743   0.397   1.904   1.830 -0.8388 -2.4264  0.7349
11084TIP3    H254744   0.455   1.922   1.969 -2.2060 -0.6130  1.0926
11085TIP3   OH254745   5.484   0.307   0.366 -0.7700  0.0617  0.1530
11085TIP3    H154746   5.484   0.232   0.306 -1.3242  0.6496 -0.6016
11085TIP3    H254747   5.391   0.323   0.382 -0.6288  0.0799  0.9659
11086TIP3   OH254748   1.616   3.309  12.437  0.6428 -0.1978  0.0048
11086TIP3    H154749   1.592   3.359  12.358 -0.2451 -0.9138 -0.1945
11086TIP3    H254750   1.599   3.218  12.413 -0.0977 -0.3798  1.1925
11087TIP3   OH254751   5.931   5.812  12.071 -0.0907 -0.0562 -0.0695
11087TIP3    H154752   6.016   5.783  12.038  0.6603  0.6786  1.1812
11087TIP3    H254753   5.873   5.737  12.059  0.4101 -0.1197 -2.1264
11088TIP3   OH254754   2.462   3.798  13.431  0.0383 -0.0397 -0.0317
11088TIP3    H154755   2.462   3.891  13.409 -2.1726 -0.2262 -0.9161
11088TIP3    H254756   2.554   3.777  13.446  0.3875  2.7002  2.0261
11089TIP3   OH254757   6.334   1.345   2.399  0.0095 -0.0317 -0.6678
11089TIP3    H154758   6.401   1.290   2.439  0.2673  2.9010  3.1954
11089TIP3    H254759   6.374   1.378   2.319  0.5267 -3.8681 -2.0757
11090TIP3   OH254760   4.700   5.530  13.805  0.5423  0.0335  0.1645
11090TIP3    H154761   4.736   5.443  13.821 -0.5389 -0.6680 -1.0546
11090TIP3    H254762   4.770   5.591  13.829  0.6874 -1.1018  2.7383
11091TIP3   OH254763   0.434   1.278  13.101 -0.3343  0.1575 -0.3009
11091TIP3    H154764   0.356   1.273  13.046 -0.9262 -0.0550  0.5575
11091TIP3    H254765   0.432   1.199  13.154 -0.1978  0.7438  0.5952
11092TIP3   OH254766   3.345   4.492  15.940  0.2720 -0.4330 -0.8393
11092TIP3    H154767   3.429   4.537  15.941  0.2790 -0.4593  1.8106
11092TIP3    H254768   3.280   4.561  15.953  0.1387 -0.8624  0.8769
11093TIP3   OH254769   4.516   2.373  16.000  0.2066  0.4684  1.1724
11093TIP3    H154770   4.433   2.376  16.049 -0.0464 -0.5630  0.8319
11093TIP3    H254771   4.496   2.316  15.924  0.1793  3.1260 -0.8845
11094TIP3   OH254772   0.503   1.219  16.490 -0.4634  0.3738 -0.0273
11094TIP3    H154773   0.408   1.213  16.473 -0.4667  0.7722 -0.1611
11094TIP3    H254774   0.540   1.247  16.406 -0.2837  0.7316  0.1734
11095TIP3   OH254775   3.129   1.995  16.797 -0.7715 -0.0664 -0.1447
11095TIP3    H154776   3.223   2.013  16.795 -0.2579 -2.5293  0.4856
11095TIP3    H254777   3.089   2.074  16.760  1.4517  1.5105  0.7024
11096TIP3   OH254778   0.465   2.679   4.392  0.0790 -0.2995  0.3118
11096TIP3    H154779   0.508   2.610   4.442 -0.1200 -0.4005  0.3445
11096TIP3    H254780   0.505   2.760   4.424 -0.3500 -0.3327  0.9481
11097TIP3   OH254781   2.968   4.255  13.809 -0.5313 -0.0721  0.0503
11097TIP3    H154782   2.989   4.299  13.891  1.6577 -1.3690  0.2217
11097TIP3    H254783   2.923   4.175  13.835 -0.6599 -0.0383 -0.0670
11098TIP3   OH254784   2.717   5.702  14.965 -0.1119  0.8159  0.3169
11098TIP3    H154785   2.796   5.652  14.989 -1.5047 -1.1394  0.9721
11098TIP3    H254786   2.738   5.792  14.987  1.0252 -0.0399  2.9272
11099TIP3   OH254787   6.250   1.505   0.726  0.1104 -0.0394  0.2388
11099TIP3    H154788   6.166   1.484   0.768 -0.3285  0.9336 -0.1399
11099TIP3    H254789   6.245   1.462   0.641 -0.0951  0.1776  0.1381
11100TIP3   OH254790   4.190   3.062   0.214 -0.6049 -0.2533  0.4347
11100TIP3    H154791   4.275   3.040   0.175 -0.5840 -2.8938  1.8696
11100TIP3    H254792   4.128   3.058   0.141  0.0548 -1.1676 -0.0786
11101TIP3   OH254793   1.864   0.873   3.609  0.4854 -0.7772  0.0876
11101TIP3    H154794   1.914   0.885   3.689  2.1466  1.2846 -1.2191
11101TIP3    H254795   1.927   0.889   3.538 -1.5975  0.1242 -1.6156
11102TIP3   OH254796   1.048   0.279  11.673  0.2538 -0.2827  0.0665
11102TIP3    H154797   1.119   0.316  11.620  0.4010  0.4079  0.7250
11102TIP3    H254798   0.971   0.282  11.617  0.4029  0.4614 -0.1030
11103TIP3   OH254799   1.385   2.682  12.100  0.2676 -0.5773 -0.5027
11103TIP3    H154800   1.391   2.698  12.006  1.7483 -1.5058 -0.5776
11103TIP3    H254801   1.474   2.659  12.127  0.5401  2.7118  1.7124
11104TIP3   OH254802   2.363   6.657   1.959  0.6239 -0.4005 -0.1953
11104TIP3    H154803   2.330   6.700   1.880  0.0314  0.0104  0.2660
11104TIP3    H254804   2.284   6.628   2.004  1.0126 -1.7232 -0.3570
11105TIP3   OH254805   3.381   6.419  11.475  0.5427 -0.2313  0.6438
11105TIP3    H154806   3.338   6.488  11.423 -1.6020 -2.1930 -0.2542
11105TIP3    H254807   3.386   6.344  11.415  1.7700 -1.2283  1.9914
11106TIP3   OH254808   4.068   5.522   1.576  0.3111 -0.1733  0.2863
11106TIP3    H154809   3.995   5.463   1.595  1.0669 -1.5022 -0.9241
11106TIP3    H254810   4.097   5.498   1.489  4.4337 -2.0418  2.0436
11107TIP3   OH254811   1.313   6.802  13.309  0.2728  0.4628  0.6613
11107TIP3    H154812   1.288   6.889  13.340  0.5681  1.3425 -1.5326
11107TIP3    H254813   1.231   6.764  13.277  1.1421  2.3812 -4.1884
11108TIP3   OH254814   3.273   6.242   6.290  0.2313  0.6445 -0.1076
11108TIP3    H154815   3.260   6.194   6.372 -1.1810 -0.1049 -0.7513
11108TIP3    H254816   3.320   6.321   6.316  1.3315 -0.3913  1.1842
11109TIP3   OH254817   3.357   0.778   4.156  0.3799 -0.0401  0.3363
11109TIP3    H154818   3.286   0.718   4.179 -0.6465  2.0159  2.8518
11109TIP3    H254819   3.323   0.829   4.082 -0.8775  1.0099  1.5976
11110TIP3   OH254820   1.871   3.434  11.833 -0.0022  0.0958  0.2583
11110TIP3    H154821   1.811   3.446  11.760 -0.9007 -0.3999  0.9120
11110TIP3    H254822   1.863   3.514  11.885  1.9064  1.1966 -1.0809
11111TIP3   OH254823   1.024   6.235   3.302  0.3724 -0.0894  0.0307
11111TIP3    H154824   1.048   6.192   3.383  1.9515 -0.2020 -0.4811
11111TIP3    H254825   1.090   6.208   3.239  0.0939  1.2682 -0.8879
11112TIP3   OH254826   4.756   0.207   3.723 -0.3327 -0.2254 -0.3712
11112TIP3    H154827   4.740   0.113   3.730 -0.2949 -0.2173 -0.1551
11112TIP3    H254828   4.775   0.234   3.813  0.7578 -0.2118 -0.6010
11113TIP3   OH254829   5.722   1.818   1.609 -0.0313 -0.3727  0.3021
11113TIP3    H154830   5.805   1.770   1.609  0.6445  0.7401  1.9490
11113TIP3    H254831   5.743   1.902   1.649 -2.2518 -0.6499  2.1445
11114TIP3   OH254832   3.422   0.250   2.519 -0.5900 -0.0637  0.0262
11114TIP3    H154833   3.408   0.156   2.528 -1.4362 -0.1593 -1.9144
11114TIP3    H254834   3.353   0.290   2.571 -0.2800 -0.5125  0.7859
11115TIP3   OH254835   3.579   2.389   4.399 -0.2407  0.4221 -0.4482
11115TIP3    H154836   3.564   2.457   4.464  0.5462  1.5183 -1.4069
11115TIP3    H254837   3.492   2.369   4.365 -0.6592 -0.1598  0.9271
11116TIP3   OH254838   1.705   0.405   0.871 -0.1175  0.2923  0.0631
11116TIP3    H154839   1.626   0.456   0.855 -0.1760  0.3656  0.5713
11116TIP3    H254840   1.734   0.377   0.785 -0.8091  0.0979 -0.1038
11117TIP3   OH254841   3.160   4.861   3.565  0.0774 -0.6574  0.8929
11117TIP3    H154842   3.194   4.915   3.494 -1.1268 -0.6891  0.2904
11117TIP3    H254843   3.212   4.780   3.560  2.4329  0.6941  2.3065
11118TIP3   OH254844   0.178   4.997   4.898 -0.2811 -0.0340  0.9884
11118TIP3    H154845   0.229   4.989   4.817  1.3431  0.1340  1.9887
11118TIP3    H254846   0.238   5.035   4.961 -2.2549  2.2179  1.6198
11119TIP3   OH254847   0.222   4.373  10.978 -0.0032  0.3194  0.5889
11119TIP3    H154848   0.269   4.364  10.895 -0.8899 -0.1561  0.1356
11119TIP3    H254849   0.231   4.466  11.001  0.9113  0.2907  0.3612
11120TIP3   OH254850   4.506   1.332  15.555 -0.9100  0.0733 -0.3020
11120TIP3    H154851   4.534   1.351  15.645  1.2874  0.2215 -0.9808
11120TIP3    H254852   4.566   1.264  15.526 -1.7989 -0.1806 -1.5729
11121TIP3   OH254853   0.180   2.627   2.090 -0.1674  0.3521  0.3283
11121TIP3    H154854   0.167   2.641   2.184 -2.6270  1.1607 -0.0948
11121TIP3    H254855   0.241   2.695   2.063 -0.5569  0.9982  1.0710
11122TIP3   OH254856   5.391   4.755  13.325  0.0275  0.0131 -0.2699
11122TIP3    H154857   5.456   4.825  13.335 -0.8775  0.3948  3.9717
11122TIP3    H254858   5.443   4.675  13.320  0.9402  0.5786 -0.0367
11123TIP3   OH254859   6.424   4.716   4.035 -0.0967  0.6732  0.2894
11123TIP3    H154860   6.503   4.745   3.988  0.1500  0.7582  0.7570
11123TIP3    H254861   6.361   4.697   3.965 -0.2243  2.2270 -0.0481
11124TIP3   OH254862   1.711   2.908  11.251  0.1172 -0.6107 -0.2642
11124TIP3    H154863   1.685   2.826  11.295 -2.1794 -0.7195 -1.7208
11124TIP3    H254864   1.805   2.914  11.265 -0.3156 -1.2337  3.6714
11125TIP3   OH254865   4.794   2.404   6.566  0.2907 -0.0764 -0.8203
11125TIP3    H154866   4.750   2.405   6.481  0.5728 -1.5532 -1.0021
11125TIP3    H254867   4.803   2.311   6.587  2.0033  0.2320 -0.1158
11126TIP3   OH254868   5.145   2.851  14.098  0.4260 -0.3499  0.6884
11126TIP3    H154869   5.134   2.824  14.007  0.8350 -0.4583  0.6712
11126TIP3    H254870   5.146   2.947  14.094 -0.0886 -0.3455  0.6408
11127TIP3   OH254871   4.936   2.818   2.080 -0.1907  0.3488 -0.0672
11127TIP3    H154872   4.933   2.745   2.142  0.9538  0.4993  0.1813
11127TIP3    H254873   4.845   2.833   2.056 -0.6416  0.2880  1.5817
11128TIP3   OH254874   3.469   6.296  14.123  0.3225 -0.3073  0.1464
11128TIP3    H154875   3.534   6.292  14.193  0.6842 -1.6819 -0.2448
11128TIP3    H254876   3.396   6.346  14.160  1.2008  0.3966  0.9251
11129TIP3   OH254877   5.417   2.603  16.708  0.0718  0.3479 -0.3378
11129TIP3    H154878   5.401   2.509  16.717  1.3610  0.0649 -0.9103
11129TIP3    H254879   5.404   2.621  16.615  1.3869  0.4274 -0.5157
11130TIP3   OH254880   0.768   6.083   1.825 -0.1183  0.4217 -0.8598
11130TIP3    H154881   0.775   6.152   1.759  1.5541  0.5953 -0.5388
11130TIP3    H254882   0.800   6.005   1.781 -1.2667  0.0245 -0.9835
11131TIP3   OH254883   5.900   1.450   3.932 -0.0760  0.1679  0.1551
11131TIP3    H154884   5.947   1.380   3.978 -0.6087  0.6541  1.4567
11131TIP3    H254885   5.826   1.406   3.891  0.1854 -0.2074  0.0867
11132TIP3   OH254886   0.314   2.253  16.013 -0.8041 -0.0584  0.0249
11132TIP3    H154887   0.360   2.311  15.952  0.3365 -0.9090  0.0592
11132TIP3    H254888   0.346   2.279  16.100 -1.6199  0.4375  0.1787
11133TIP3   OH254889   0.393   0.711   2.208 -0.6011 -0.8118 -0.4966
11133TIP3    H154890   0.453   0.641   2.183  0.7509  0.4879 -1.0043
11133TIP3    H254891   0.412   0.727   2.301  1.5421  1.1704 -1.2257
11134TIP3   OH254892   5.435   6.614  14.445 -0.6193  0.6193 -0.1425
11134TIP3    H154893   5.485   6.615  14.364  1.6993 -0.2473  1.2327
11134TIP3    H254894   5.495   6.649  14.511 -1.2894 -1.8152  1.8517
11135TIP3   OH254895   3.275   5.996  14.215  0.0010 -0.0661  0.9320
11135TIP3    H154896   3.184   5.989  14.246 -0.0146  0.0860  0.9215
11135TIP3    H254897   3.268   5.985  14.120 -0.0029 -0.0922  0.9349
11136TIP3   OH254898   5.985   6.600  14.171  0.1557 -0.1802  0.2384
11136TIP3    H154899   5.969   6.517  14.127  1.6156 -1.1362  1.4443
11136TIP3    H254900   6.065   6.634  14.132  0.6323 -0.3013  1.0912
11137TIP3   OH254901   5.271   5.369  12.656  0.4938 -0.1415 -0.4020
11137TIP3    H154902   5.279   5.276  12.634 -0.4117 -0.3525  0.1430
11137TIP3    H254903   5.181   5.391  12.632  0.1330  0.1380  1.1908
11138TIP3   OH254904   2.186   0.222  13.242 -0.1500 -0.1509  0.1394
11138TIP3    H154905   2.243   0.292  13.210  2.2236 -2.7403 -1.5357
11138TIP3    H254906   2.121   0.210  13.173 -1.8024  1.6855  1.3181
11139TIP3   OH254907   2.491   4.152  13.658  0.4147 -0.4300  0.8382
11139TIP3    H154908   2.542   4.184  13.731 -1.7418 -0.0418  2.2261
11139TIP3    H254909   2.475   4.230  13.604 -0.6175 -0.1101  1.5965
11140TIP3   OH254910   1.115   1.393  12.184 -0.3596  0.0278 -0.1181
11140TIP3    H154911   1.123   1.352  12.270 -1.6811  0.9584  0.4494
11140TIP3    H254912   1.081   1.480  12.201 -1.7230 -0.1841 -1.6728
11141TIP3   OH254913   4.261   0.504   5.112  0.2033  0.0531 -0.7653
11141TIP3    H154914   4.274   0.489   5.206  1.6383  3.3883 -0.3616
11141TIP3    H254915   4.169   0.530   5.104  0.2914  0.5760 -0.1479
11142TIP3   OH254916   5.282   5.992   5.666  0.2037 -0.0776 -0.2031
11142TIP3    H154917   5.277   5.922   5.730  1.9987 -0.2269 -0.2028
11142TIP3    H254918   5.299   5.948   5.583  1.8095  0.3657 -0.1251
11143TIP3   OH254919   0.524   2.458  10.314  0.4620  0.7073 -0.4771
11143TIP3    H154920   0.506   2.369  10.284  3.2113  0.3846 -1.2383
11143TIP3    H254921   0.477   2.465  10.398 -0.1209 -1.2946 -0.6183
11144TIP3   OH254922   0.721   5.021   4.384  0.7296 -0.1522  0.3299
11144TIP3    H154923   0.710   4.977   4.300  1.3838  1.3080 -0.5397
11144TIP3    H254924   0.780   4.965   4.433 -1.8870 -2.4990  0.9343
11145TIP3   OH254925   4.754   5.298  12.340  0.4205 -0.0631 -0.2242
11145TIP3    H154926   4.687   5.364  12.319  1.0288  0.7288  0.3075
11145TIP3    H254927   4.729   5.267  12.427  0.3329 -0.2900 -0.3289
11146TIP3   OH254928   3.743   1.448  17.239  0.2491  0.3729 -0.3256
11146TIP3    H154929   3.815   1.386  17.251 -0.9484 -0.9052  0.5184
11146TIP3    H254930   3.680   1.401  17.184 -0.6665  0.8142  0.3101
11147TIP3   OH254931   3.962   3.157  16.990  0.2961 -0.1267  0.1463
11147TIP3    H154932   3.981   3.172  16.897 -0.3075 -0.5477 -0.0415
11147TIP3    H254933   4.036   3.199  17.036  0.5177  0.2124 -0.5121
11148TIP3   OH254934   6.346   3.673  15.658  0.3410  0.3016  0.4930
11148TIP3    H154935   6.362   3.590  15.614 -0.5400  0.4915 -0.2057
11148TIP3    H254936   6.299   3.726  15.594 -0.7505  0.6728  1.5760
11149TIP3   OH254937   2.621   5.102   2.015 -0.4051  0.2180  0.3004
11149TIP3    H154938   2.668   5.125   1.935  1.1803 -1.2517  0.7904
11149TIP3    H254939   2.588   5.014   1.999 -0.9025  0.2835  0.9148
11150TIP3   OH254940   2.067   4.172  11.757  0.5516  0.7571  1.0548
11150TIP3    H154941   2.031   4.178  11.669 -0.3704  0.1782  1.3845
11150TIP3    H254942   2.121   4.093  11.756  2.7217  2.2078  0.2506
11151TIP3   OH254943   6.209   0.383   4.081  0.6641 -0.6132  0.2277
11151TIP3    H154944   6.126   0.430   4.073  1.9097  1.6639  0.2075
11151TIP3    H254945   6.202   0.335   4.163  0.1314  1.2941  1.3218
11152TIP3   OH254946   1.619   2.634  15.295  0.0610  0.7113 -0.4646
11152TIP3    H154947   1.650   2.655  15.207 -0.0883  0.0036 -0.6887
11152TIP3    H254948   1.552   2.567  15.281  0.5739  0.0498  0.2484
11153TIP3   OH254949   3.199   6.146   3.189 -0.4991  0.3486  0.1120
11153TIP3    H154950   3.199   6.196   3.270  1.4512  1.3608 -0.4692
11153TIP3    H254951   3.288   6.156   3.155 -0.8982 -1.1790 -1.4619
11154TIP3   OH254952   1.668   3.851   5.913 -0.8684 -0.2635 -0.3812
11154TIP3    H154953   1.754   3.815   5.894 -0.8748  0.4560 -1.8158
11154TIP3    H254954   1.621   3.780   5.957 -0.6171 -1.7390 -2.4803
11155TIP3   OH254955   1.972   1.852  14.988 -0.4038 -0.0144 -0.6198
11155TIP3    H154956   2.038   1.921  14.998 -0.1593 -0.0557 -1.8866
11155TIP3    H254957   1.890   1.893  15.016  0.3675 -0.4070  2.4099
11156TIP3   OH254958   4.534   4.714   0.303 -0.1985  0.5699 -0.2402
11156TIP3    H154959   4.455   4.755   0.340  0.0260  1.3154 -0.5793
11156TIP3    H254960   4.604   4.776   0.321  0.3273 -0.1065  0.0825
11157TIP3   OH254961   3.073   2.563   4.556 -0.1367  0.0974 -0.1891
11157TIP3    H154962   3.150   2.608   4.592 -0.3525  0.8620 -0.6843
11157TIP3    H254963   3.063   2.598   4.468 -1.1854  0.1511 -0.0511
11158TIP3   OH254964   6.047   3.139   1.497 -0.1366 -0.5096 -0.0503
11158TIP3    H154965   6.026   3.106   1.584  1.5732 -1.5652 -0.0243
11158TIP3    H254966   5.987   3.092   1.439  0.7275 -1.9996  0.2441
11159TIP3   OH254967   2.210   3.016  13.287  0.4535 -0.6977  0.2079
11159TIP3    H154968   2.298   3.044  13.310  0.7782 -0.8284 -0.8347
11159TIP3    H254969   2.155   3.092  13.301  1.0540 -0.0265 -0.9875
11160TIP3   OH254970   5.480   1.860   4.032 -0.0283  0.6481  0.5386
11160TIP3    H154971   5.552   1.803   4.058  0.3106  0.1727 -1.3947
11160TIP3    H254972   5.492   1.940   4.084  2.5755  1.0627 -0.6592
11161TIP3   OH254973   4.188   1.191  13.870 -0.0006 -0.2486 -0.2500
11161TIP3    H154974   4.099   1.157  13.867 -0.5025  0.9252  0.9986
11161TIP3    H254975   4.223   1.162  13.954  0.7927 -0.6686 -0.7130
11162TIP3   OH254976   4.470   1.973   6.410  0.0322 -0.4343 -0.0025
11162TIP3    H154977   4.475   1.878   6.393 -2.0461 -0.1859 -2.2625
11162TIP3    H254978   4.402   1.982   6.476  0.1086 -0.5124  0.0860
11163TIP3   OH254979   0.449   4.514   5.044  0.1247 -0.2449 -0.5091
11163TIP3    H154980   0.535   4.553   5.057  0.0909  0.2576 -1.7905
11163TIP3    H254981   0.468   4.425   5.014  0.1968 -0.4990  0.2862
11164TIP3   OH254982   6.210   5.349   0.176  0.1213  0.1198 -0.0733
11164TIP3    H154983   6.192   5.378   0.086  1.5500  1.1878 -0.0390
11164TIP3    H254984   6.222   5.255   0.169 -1.6549 -0.0838 -0.6839
11165TIP3   OH254985   0.228   2.569   1.777  0.1808 -0.5279  0.5001
11165TIP3    H154986   0.137   2.599   1.775  0.3532 -0.0916 -1.0681
11165TIP3    H254987   0.270   2.624   1.844  0.2492  2.1207 -1.6062
11166TIP3   OH254988   5.634   4.191  12.791  0.0056 -0.0511  0.4933
11166TIP3    H154989   5.633   4.149  12.877 -2.2309  0.0661  0.5561
11166TIP3    H254990   5.715   4.243  12.791  2.2127 -3.3184  0.8677
11167TIP3   OH254991   0.604   6.546  13.420  0.2945 -0.5245 -0.2095
11167TIP3    H154992   0.647   6.461  13.414 -1.4105 -1.4328  0.1088
11167TIP3    H254993   0.548   6.549  13.343  1.7027  1.1061 -1.2012
11168TIP3   OH254994   6.809   4.608  16.460 -0.2664  0.3852  0.0326
11168TIP3    H154995   6.856   4.532  16.425 -3.3816 -1.3334 -0.6249
11168TIP3    H254996   6.794   4.586  16.551 -0.4388  0.5999  0.0559
11169TIP3   OH254997   1.166   2.938  12.672 -0.7521  0.3208 -0.0777
11169TIP3    H154998   1.196   2.899  12.754 -0.4493 -0.7994 -0.7094
11169TIP3    H254999   1.245   2.953  12.621 -1.0808 -0.8734 -0.9763
11170TIP3   OH255000   4.751   4.663  12.228 -0.0559  0.2632  0.2244
11170TIP3    H155001   4.825   4.628  12.277 -0.4434 -0.7642  0.0822
11170TIP3    H255002   4.764   4.631  12.138 -0.6972  0.0468  0.2082
11171TIP3   OH255003   3.038   3.374  15.001 -0.1161  0.1035 -0.6038
11171TIP3    H155004   2.996   3.292  14.975 -0.5756  0.1278  0.0413
11171TIP3    H255005   2.994   3.399  15.083  1.2694  0.0436  0.1700
11172TIP3   OH255006   1.000   0.576  12.654  0.2412 -0.4210 -0.0528
11172TIP3    H155007   0.959   0.513  12.595 -1.5926  1.4460 -0.8615
11172TIP3    H255008   0.937   0.588  12.724  0.5896  0.4694  0.1151
11173TIP3   OH255009   6.430   5.781   5.716 -0.4977  0.2361 -0.0856
11173TIP3    H155010   6.335   5.770   5.715 -0.7937  2.4749  0.7930
11173TIP3    H255011   6.443   5.875   5.727  1.8257 -0.2055  1.2101
11174TIP3   OH255012   6.591   5.468   5.589 -0.1226  0.7239 -0.5239
11174TIP3    H155013   6.655   5.405   5.555 -0.9113  0.2349 -1.0998
11174TIP3    H255014   6.637   5.511   5.662  0.1415 -1.0587  0.3803
11175TIP3   OH255015   2.270   1.575   5.095 -0.7270 -0.5047  0.7299
11175TIP3    H155016   2.347   1.629   5.079 -0.5132 -0.7478  0.9319
11175TIP3    H255017   2.226   1.569   5.010  0.4249 -1.8401  0.2209
11176TIP3   OH255018   0.336   4.418   3.832 -0.1238 -0.5099  0.4058
11176TIP3    H155019   0.355   4.326   3.818  0.1875 -0.1087 -2.0267
11176TIP3    H255020   0.419   4.455   3.862 -0.3543 -1.0803  1.7694
11177TIP3   OH255021   0.534   3.840  15.793 -0.1114  0.7369 -0.1437
11177TIP3    H155022   0.531   3.900  15.867  0.3781  0.2476  0.2775
11177TIP3    H255023   0.525   3.753  15.832  1.1721  0.4159 -0.5505
11178TIP3   OH255024   2.496   6.407  14.675 -0.0069 -0.2443  0.7152
11178TIP3    H155025   2.471   6.324  14.715  1.0284 -1.1595 -0.4495
11178TIP3    H255026   2.583   6.426  14.712  0.1109 -0.1091  0.3728
11179TIP3   OH255027   5.602   6.653  14.242  0.7201  0.4519  0.1128
11179TIP3    H155028   5.666   6.583  14.232 -0.7529 -1.2415  2.1436
11179TIP3    H255029   5.556   6.657  14.158  2.9104  1.1551 -1.0838
11180TIP3   OH255030   6.111   6.269  12.732 -0.2959  0.0420  0.8311
11180TIP3    H155031   6.166   6.211  12.680  0.3258  0.6367  0.8163
11180TIP3    H255032   6.164   6.348  12.744 -0.5011 -0.0221  2.2130
11181TIP3   OH255033   2.888   3.363  17.114 -0.2834 -0.0423  0.2311
11181TIP3    H155034   2.877   3.425  17.186 -1.1453  0.4960 -0.3561
11181TIP3    H255035   2.886   3.277  17.156  1.2251  0.3169  1.0919
11182TIP3   OH255036   4.187   0.516  14.974  0.0191  0.3148  0.1459
11182TIP3    H155037   4.222   0.528  14.886 -1.2431  0.0531 -0.4102
11182TIP3    H255038   4.190   0.602  15.014  2.0243  0.1405  0.3929
11183TIP3   OH255039   2.065   0.900   3.807 -0.3479 -0.2043  0.4624
11183TIP3    H155040   2.151   0.874   3.838 -0.9678 -0.2832  2.1346
11183TIP3    H255041   2.077   0.987   3.770  0.4174 -0.1942  0.7409
11184TIP3   OH255042   4.245   2.675  16.581  0.0069  0.5471  0.3606
11184TIP3    H155043   4.297   2.602  16.548  1.5061  1.7419  0.0261
11184TIP3    H255044   4.308   2.747  16.589 -1.0786  1.2987  2.3860
11185TIP3   OH255045   4.941   1.487   1.546 -0.1537 -0.2238  0.2642
11185TIP3    H155046   4.936   1.487   1.451  3.6550  0.0579 -0.0163
11185TIP3    H255047   4.947   1.395   1.571  1.4922 -0.2074 -0.0045
11186TIP3   OH255048   6.692   6.775   1.702 -0.3577  0.2274  0.2530
11186TIP3    H155049   6.639   6.707   1.744  0.7710 -0.1629  1.0556
11186TIP3    H255050   6.674   6.854   1.753 -2.0290  0.6532 -0.9637
11187TIP3   OH255051   5.047   0.707  11.006  0.2756 -0.1462  0.0302
11187TIP3    H155052   5.071   0.741  10.920 -0.7208  0.8291  0.1367
11187TIP3    H255053   4.976   0.646  10.988  0.5154 -0.4516  0.0998
11188TIP3   OH255054   0.159   1.988   4.060  0.2215  0.4017 -0.1634
11188TIP3    H155055   0.074   2.031   4.072  0.2902 -0.1928  3.0588
11188TIP3    H255056   0.217   2.035   4.121  1.6036 -0.7293 -0.5973
11189TIP3   OH255057   2.185   4.188   0.432  0.0357 -0.6515 -0.3984
11189TIP3    H155058   2.121   4.209   0.364 -0.4351 -1.2357 -0.1418
11189TIP3    H255059   2.132   4.173   0.511  0.5801  0.1400  0.1290
11190TIP3   OH255060   6.552   6.141  15.087  0.5880 -0.1955 -0.2198
11190TIP3    H155061   6.477   6.191  15.119 -0.1934 -1.4403 -0.0786
11190TIP3    H255062   6.613   6.207  15.055  0.5950  0.9986  2.1296
11191TIP3   OH255063   3.135   2.265  11.416  0.1072 -0.6189  0.3435
11191TIP3    H155064   3.099   2.337  11.468 -0.6279 -0.9462  0.2934
11191TIP3    H255065   3.199   2.223  11.474  1.1459  0.5649  0.0939
11192TIP3   OH255066   0.243   1.451   2.098  0.2907  0.0815 -0.2219
11192TIP3    H155067   0.175   1.477   2.160 -1.5812 -1.0858 -1.7505
11192TIP3    H255068   0.263   1.360   2.121  1.3108  0.3926  0.1722
11193TIP3   OH255069   1.617   1.459  11.828  0.1363  0.3432 -0.1173
11193TIP3    H155070   1.648   1.440  11.917 -1.3827  1.9396  0.7820
11193TIP3    H255071   1.620   1.554  11.821  1.3107  0.1830 -2.1914
11194TIP3   OH255072   6.530   1.054   0.954  0.8563  0.2630 -0.0970
11194TIP3    H155073   6.454   1.014   0.910  0.7924  0.8651 -0.5366
11194TIP3    H255074   6.571   1.108   0.887  0.9616  0.9191  0.4882
11195TIP3   OH255075   4.364   2.635   6.976  0.3996  0.3934 -1.0756
11195TIP3    H155076   4.335   2.697   6.910  0.4721  0.6852 -0.8316
11195TIP3    H255077   4.459   2.649   6.983  0.6329 -0.6418 -1.9609
11196TIP3   OH255078   2.981   4.685   3.764  0.1275  0.6121  0.5555
11196TIP3    H155079   2.928   4.756   3.799 -2.7933 -1.0196 -0.3256
11196TIP3    H255080   2.962   4.685   3.670  2.1557  0.3198  0.1182
11197TIP3   OH255081   6.418   2.013   5.877  0.1481  0.5144  0.2397
11197TIP3    H155082   6.373   1.955   5.938  1.8789 -1.9255 -0.7365
11197TIP3    H255083   6.492   2.048   5.926 -0.2623  1.0464  0.4866
11198TIP3   OH255084   0.333   0.072  14.231  0.0513  0.2353  0.4249
11198TIP3    H155085   0.413   0.078  14.283 -0.5957 -1.7082  1.6818
11198TIP3    H255086   0.275   0.138  14.269 -0.2515 -0.8632  1.9065
11199TIP3   OH255087   2.032   4.682  13.169 -0.3239  0.1883 -0.1368
11199TIP3    H155088   2.082   4.602  13.183 -0.6390  0.0119 -0.0124
11199TIP3    H255089   2.071   4.746  13.229  1.0670  0.6342 -1.4891
11200TIP3   OH255090   2.740   0.908   4.180  0.2138  0.1160 -0.3614
11200TIP3    H155091   2.728   0.820   4.216 -0.1973 -0.1356 -1.1061
11200TIP3    H255092   2.711   0.967   4.250 -0.5617 -0.3679 -0.2746
11201TIP3   OH255093   6.353   1.412  12.572  0.3837  0.4556 -0.0555
11201TIP3    H155094   6.288   1.355  12.532 -0.7492  1.2426  0.6444
11201TIP3    H255095   6.302   1.479  12.617  1.4919 -1.4255  4.2867
11202TIP3   OH255096   1.581   2.037   3.679 -0.1650  0.1786 -0.2715
11202TIP3    H155097   1.550   2.040   3.769 -0.1515 -1.4092 -0.2023
11202TIP3    H255098   1.506   2.003   3.629 -0.4189  1.7339 -0.9782
11203TIP3   OH255099   3.224   0.976  14.495  0.0026  0.4478 -0.4667
11203TIP3    H155100   3.181   1.062  14.493 -1.0794 -0.0921 -1.2692
11203TIP3    H255101   3.311   0.992  14.461 -0.3292  1.1630 -0.9933
11204TIP3   OH255102   5.255   0.859  13.911 -0.5966  0.5844  0.6756
11204TIP3    H155103   5.273   0.774  13.870 -0.6527  0.2418  1.3534
11204TIP3    H255104   5.267   0.922  13.841 -0.2589  0.0386  0.2351
11205TIP3   OH255105   5.101   1.520   2.098 -0.4235  0.1642 -0.2099
11205TIP3    H155106   5.137   1.510   2.010 -2.3409 -0.5993 -0.9471
11205TIP3    H255107   5.011   1.488   2.091 -0.0053 -1.7644  2.5142
11206TIP3   OH255108   1.171   1.249  12.419 -0.1992 -0.0109  0.0878
11206TIP3    H155109   1.111   1.299  12.475  0.6094 -0.5636  1.4934
11206TIP3    H255110   1.197   1.174  12.473 -0.8195 -1.5772 -1.7156
11207TIP3   OH255111   1.254   0.744   4.192 -0.1546 -0.2982  0.3224
11207TIP3    H155112   1.186   0.690   4.152  0.5921  0.0263 -1.4247
11207TIP3    H255113   1.332   0.688   4.193  0.1784  0.1593  0.0839
11208TIP3   OH255114   2.463   6.676  10.559 -0.1317 -0.2542  0.2365
11208TIP3    H155115   2.558   6.665  10.555 -0.1757 -1.5345  2.0675
11208TIP3    H255116   2.446   6.759  10.514  1.7393 -0.5187 -1.0020
11209TIP3   OH255117   5.889   4.912   5.171 -0.0037 -0.3329 -0.2499
11209TIP3    H155118   5.945   4.876   5.240  0.7276  1.9648  0.3947
11209TIP3    H255119   5.934   4.887   5.090  2.2425  1.8117  0.2657
11210TIP3   OH255120   5.423   4.067  12.018  0.1426 -0.1020 -0.2827
11210TIP3    H155121   5.466   3.986  11.991  1.5644  0.3158  0.6989
11210TIP3    H255122   5.482   4.136  11.988 -1.2964  0.6131 -1.5580
11211TIP3   OH255123   4.277   2.484   3.500  0.0771  0.4716 -0.3031
11211TIP3    H155124   4.212   2.538   3.455 -1.1377  0.8437  1.8097
11211TIP3    H255125   4.284   2.524   3.587  0.7020 -1.5355  0.5829
11212TIP3   OH255126   3.409   1.423   0.999  0.5248 -0.2945 -0.3551
11212TIP3    H155127   3.462   1.398   1.074  0.7269  0.4395 -0.2568
11212TIP3    H255128   3.470   1.423   0.925  0.7273  0.8214 -0.1947
11213TIP3   OH255129   6.496   3.134   5.797 -0.7161  0.0061  0.8001
11213TIP3    H155130   6.567   3.083   5.757 -0.8554  0.3824  0.0562
11213TIP3    H255131   6.424   3.127   5.735  0.1591  3.3665 -0.6906
11214TIP3   OH255132   1.854   0.777  16.763  0.2734 -0.4040  0.4873
11214TIP3    H155133   1.883   0.686  16.759  0.1687 -0.3840 -1.6006
11214TIP3    H255134   1.933   0.825  16.789  0.5329 -1.0218  0.8564
11215TIP3   OH255135   2.320   4.987   1.474  0.2096  0.2909 -0.3247
11215TIP3    H155136   2.274   4.904   1.466  0.0865  0.4897 -1.8170
11215TIP3    H255137   2.271   5.047   1.418 -1.5047  2.1945  3.0702
11216TIP3   OH255138   3.952   1.622  10.374 -0.1593  0.1233  0.5136
11216TIP3    H155139   3.997   1.686  10.428 -1.2482  1.6603 -0.3570
11216TIP3    H255140   3.966   1.538  10.419  0.2554  1.1339  2.3164
11217TIP3   OH255141   2.882   4.147   5.104 -0.2502 -0.2658 -0.1015
11217TIP3    H155142   2.810   4.089   5.129 -0.5666  0.0867 -0.1807
11217TIP3    H255143   2.853   4.234   5.131 -0.1938 -0.0108 -0.8372
11218TIP3   OH255144   4.555   6.706   2.010 -0.6450 -0.5386  0.2073
11218TIP3    H155145   4.579   6.631   2.064  0.2852 -0.5212 -0.1632
11218TIP3    H255146   4.596   6.687   1.925 -1.9036 -0.4667 -0.4228
11219TIP3   OH255147   6.433   3.760   1.525  0.1080 -0.1267  0.1815
11219TIP3    H155148   6.421   3.750   1.619  1.2659  2.5782  0.6644
11219TIP3    H255149   6.356   3.809   1.496 -0.9576 -2.1856 -0.5554
11220TIP3   OH255150   0.370   2.139   2.184 -0.0125 -0.0780  0.6446
11220TIP3    H155151   0.372   2.043   2.185  1.8768 -0.0513  0.1785
11220TIP3    H255152   0.396   2.164   2.273 -0.3946  0.0017  0.7332
11221TIP3   OH255153   1.341   6.016  12.599  0.3607 -0.4538  0.2487
11221TIP3    H155154   1.384   6.096  12.627 -0.6799 -0.7541  2.9897
11221TIP3    H255155   1.265   6.045  12.548 -0.5680  0.3822  2.0588
11222TIP3   OH255156   2.279   6.452  15.365 -0.1869  0.3147 -0.1014
11222TIP3    H155157   2.232   6.497  15.434 -0.1028 -0.5053  0.4920
11222TIP3    H255158   2.347   6.402  15.410  1.1486  1.3428 -0.9303
11223TIP3   OH255159   2.248   5.421   5.132  0.5562 -0.4872  0.2415
11223TIP3    H155160   2.207   5.464   5.058  2.1395 -1.2248 -1.0936
11223TIP3    H255161   2.198   5.341   5.145 -0.3988  0.1723  0.6842
11224TIP3   OH255162   2.650   0.495  17.083  0.3773 -0.0723  0.5298
11224TIP3    H155163   2.731   0.543  17.101  2.4337 -3.1941  0.0577
11224TIP3    H255164   2.659   0.467  16.992 -1.4290 -0.1006  0.3561
11225TIP3   OH255165   0.305   3.380  15.461  0.2304  0.3411  0.1410
11225TIP3    H155166   0.369   3.400  15.392 -0.8906 -0.8554 -1.2927
11225TIP3    H255167   0.322   3.289  15.484 -2.6177 -0.8305 -2.1319
11226TIP3   OH255168   5.752   0.744  17.171  0.4080 -0.4609  0.8397
11226TIP3    H155169   5.762   0.839  17.158 -0.7713 -0.4591 -0.1874
11226TIP3    H255170   5.828   0.706  17.128  0.1112 -0.0473 -0.0817
11227TIP3   OH255171   4.316   1.989   0.567 -0.2483  0.4568 -0.1529
11227TIP3    H155172   4.232   1.999   0.612 -1.8637 -1.3238 -2.6829
11227TIP3    H255173   4.320   2.063   0.506  0.3691  0.9172  0.4281
11228TIP3   OH255174   2.627   2.041  14.727  0.0244 -0.2056 -0.2519
11228TIP3    H155175   2.577   2.060  14.648 -0.4509 -2.0921 -0.4239
11228TIP3    H255176   2.708   2.090  14.716  0.9252 -2.1648 -2.9871
11229TIP3   OH255177   2.634   2.167  16.775 -0.4245 -0.2204  0.3366
11229TIP3    H155178   2.673   2.094  16.727 -0.3290 -0.6260  1.0166
11229TIP3    H255179   2.562   2.127  16.823  0.5045 -0.1533  1.8240
11230TIP3   OH255180   3.881   1.168  10.837 -0.2516 -0.2921 -0.2370
11230TIP3    H155181   3.829   1.225  10.780  0.2352 -0.0689 -0.4592
11230TIP3    H255182   3.843   1.081  10.825 -0.5397 -0.1387 -0.4369
11231TIP3   OH255183   5.427   2.771  13.212  0.4641 -0.5878 -0.1822
11231TIP3    H155184   5.419   2.824  13.132 -2.0965 -3.0492 -1.6539
11231TIP3    H255185   5.521   2.764  13.227  1.1733 -2.4703 -4.7076
11232TIP3   OH255186   1.801   4.899  16.108  0.3201  0.0702  0.5824
11232TIP3    H155187   1.789   4.902  16.013  1.7182  0.1317  0.3901
11232TIP3    H255188   1.834   4.811  16.126 -0.0696  0.0123  1.0312
11233TIP3   OH255189   4.998   5.402   1.073  0.0350 -0.3649  0.8087
11233TIP3    H155190   4.940   5.415   1.148 -1.2957  1.7505 -0.5365
11233TIP3    H255191   5.048   5.484   1.067 -0.9302  0.0878 -1.4944
11234TIP3   OH255192   2.552   6.306   1.822 -0.6063 -0.1009 -0.0724
11234TIP3    H155193   2.600   6.388   1.815 -0.3379 -0.2932 -0.5515
11234TIP3    H255194   2.505   6.311   1.905  0.5120 -0.0490  0.5555
11235TIP3   OH255195   1.672   1.635  15.208  0.2364  0.0537 -0.2003
11235TIP3    H155196   1.749   1.691  15.217  0.2655  0.2383 -1.5071
11235TIP3    H255197   1.598   1.695  15.217  0.2489  0.0599 -0.1322
11236TIP3   OH255198   0.379   6.580   5.033  0.2008 -0.5427 -0.2744
11236TIP3    H155199   0.472   6.598   5.047  0.5881 -2.4213 -0.3112
11236TIP3    H255200   0.333   6.641   5.091  1.4392  0.5833 -0.4597
11237TIP3   OH255201   4.732   3.234   1.029  0.2957  0.1483  0.5078
11237TIP3    H155202   4.743   3.286   0.949  0.7557 -1.3504 -0.4058
11237TIP3    H255203   4.820   3.203   1.050  0.0161 -0.2981  1.0229
11238TIP3   OH255204   1.601   2.709   5.123  0.3892 -0.1066 -0.4474
11238TIP3    H155205   1.548   2.716   5.045 -0.8421  0.7754  0.4506
11238TIP3    H255206   1.657   2.632   5.108 -0.3296 -0.3591 -1.8669
11239TIP3   OH255207   0.159   0.498  14.866 -0.3345  0.4090  0.0662
11239TIP3    H155208   0.217   0.560  14.910  0.6518 -0.6049  0.2223
11239TIP3    H255209   0.098   0.470  14.934 -0.3900  0.7422  0.1534
11240TIP3   OH255210   5.384   1.513   4.943  0.5155 -0.7031  0.1195
11240TIP3    H155211   5.366   1.454   5.016  0.1134 -2.0496 -1.0473
11240TIP3    H255212   5.300   1.553   4.922  0.5244 -0.7132  0.0612
11241TIP3   OH255213   5.108   2.150   2.451  0.1860  0.7154  0.3132
11241TIP3    H155214   5.151   2.235   2.455  0.8893  0.3764  0.1586
11241TIP3    H255215   5.146   2.108   2.373 -2.6671  1.5981 -1.6205
11242TIP3   OH255216   3.500   6.443  14.523  0.3493 -0.0442  0.6635
11242TIP3    H155217   3.541   6.364  14.558  0.3526 -0.2037  0.2995
11242TIP3    H255218   3.560   6.514  14.546  0.1578 -0.0957  1.3315
11243TIP3   OH255219   2.339   1.943   6.861 -0.1340  0.1245  0.1896
11243TIP3    H155220   2.272   1.881   6.831  0.5010  0.6045 -2.3415
11243TIP3    H255221   2.394   1.893   6.921 -0.5144 -1.3543 -0.6770
11244TIP3   OH255222   4.553   5.965   3.409  0.6282  0.2075 -0.1895
11244TIP3    H155223   4.578   6.057   3.414 -1.1525  0.9136 -2.9007
11244TIP3    H255224   4.457   5.967   3.405  0.5339 -1.8154  0.6030
11245TIP3   OH255225   3.966   1.552  11.742  0.5313 -0.0200  0.2303
11245TIP3    H155226   3.943   1.612  11.671 -0.2803  0.4883  0.9164
11245TIP3    H255227   3.946   1.600  11.822  1.6710 -0.5002  0.8187
11246TIP3   OH255228   1.560   5.774   2.917 -0.1080  0.6908  0.4221
11246TIP3    H155229   1.619   5.842   2.883 -0.2471  0.5189 -0.1656
11246TIP3    H255230   1.586   5.694   2.873 -1.1708  0.7292 -0.3131
11247TIP3   OH255231   6.780   2.065  12.277  0.0179  0.0240  0.3261
11247TIP3    H155232   6.810   2.007  12.346 -0.1274 -0.3322  0.0913
11247TIP3    H255233   6.689   2.040  12.262 -0.6271  1.5842  1.5370
11248TIP3   OH255234   3.608   4.259  15.987 -0.3333  0.0949 -0.2144
11248TIP3    H155235   3.648   4.203  16.054 -3.3950 -0.7172  0.9891
11248TIP3    H255236   3.602   4.203  15.909  2.3723  0.7532 -0.9427
11249TIP3   OH255237   1.139   1.942   5.203  0.0479 -0.0230  0.6938
11249TIP3    H155238   1.133   2.021   5.149  0.3320 -0.4886 -0.0321
11249TIP3    H255239   1.098   1.873   5.151  2.2586 -0.9528  0.1073
11250TIP3   OH255240   0.927   4.431  13.111  0.9188 -0.4310  0.3624
11250TIP3    H155241   0.836   4.437  13.141  1.0237  0.9553  0.4458
11250TIP3    H255242   0.929   4.484  13.031  1.2547 -1.9024 -0.6276
11251TIP3   OH255243   4.008   0.360  11.322  0.1264 -0.7247 -0.0459
11251TIP3    H155244   4.019   0.266  11.312  2.0695 -0.5613  0.4055
11251TIP3    H255245   4.083   0.398  11.278 -0.5064  0.6114 -0.0032
11252TIP3   OH255246   1.595   3.600   2.046 -0.2262  0.2274 -0.0799
11252TIP3    H155247   1.679   3.624   2.085 -0.5128 -0.7281  1.1503
11252TIP3    H255248   1.536   3.671   2.069  0.0132  0.4630 -0.1860
11253TIP3   OH255249   3.090   5.215  14.687  0.3109 -0.7213 -0.1493
11253TIP3    H155250   3.141   5.204  14.767 -1.5803  1.0674  1.3418
11253TIP3    H255251   3.118   5.300  14.652 -1.5408  0.2403  0.6429
11254TIP3   OH255252   5.694   4.741   3.906 -0.7549 -0.5465  0.0427
11254TIP3    H155253   5.601   4.746   3.883 -1.0260 -0.3362  1.1572
11254TIP3    H255254   5.734   4.816   3.863 -0.6394 -2.0339 -2.5255
11255TIP3   OH255255   5.286   4.924  16.539  0.1794  0.1577 -0.1264
11255TIP3    H155256   5.231   5.002  16.543  0.5731  0.3926  0.8332
11255TIP3    H255257   5.244   4.868  16.474 -0.1597  1.1227 -0.7514
11256TIP3   OH255258   0.782   6.137  14.691  0.1493 -0.7580  0.2450
11256TIP3    H155259   0.744   6.219  14.722  1.9037 -0.2074  0.9933
11256TIP3    H255260   0.859   6.164  14.641  0.1275 -1.9061 -0.4335
11257TIP3   OH255261   3.071   3.172   4.437  0.1708 -0.1292 -0.5727
11257TIP3    H155262   2.977   3.160   4.452  0.2171  0.6193  0.3248
11257TIP3    H255263   3.078   3.189   4.343 -0.6113  0.0177 -0.6084
11258TIP3   OH255264   1.588   0.397  16.898  0.0211  0.9632 -0.3922
11258TIP3    H155265   1.674   0.368  16.865 -0.2667 -0.7948  0.3723
11258TIP3    H255266   1.525   0.339  16.855 -0.7065  1.4972 -0.0587
11259TIP3   OH255267   2.389   6.072  11.142 -0.1684  0.4043 -0.1142
11259TIP3    H155268   2.361   6.146  11.197 -0.6382  1.0992 -1.2417
11259TIP3    H255269   2.335   6.081  11.063  1.7334  0.4646 -1.4202
11260TIP3   OH255270   1.600   1.745  12.409  0.4910 -0.4352 -0.2766
11260TIP3    H155271   1.517   1.757  12.454 -0.2036 -0.6166 -1.4993
11260TIP3    H255272   1.666   1.764  12.476 -0.5125 -0.9990  0.8975
11261TIP3   OH255273   3.309   5.864   1.898 -0.0735  0.1064 -0.3095
11261TIP3    H155274   3.228   5.898   1.937 -0.3932 -1.2691  0.2596
11261TIP3    H255275   3.333   5.930   1.832 -0.5367  1.5242  0.9059
11262TIP3   OH255276   1.129   3.844   4.437  1.0733 -0.4617  0.1158
11262TIP3    H155277   1.214   3.860   4.397  1.3703  0.8913  1.2631
11262TIP3    H255278   1.143   3.769   4.495  1.8603  0.6655  1.4099
11263TIP3   OH255279   5.166   4.139  17.248 -0.4511  0.6088 -0.7648
11263TIP3    H155280   5.168   4.067  17.184 -0.2188  0.4085 -0.5342
11263TIP3    H255281   5.086   4.125  17.298 -0.5132  0.6309 -0.8578
11264TIP3   OH255282   5.961   0.128  12.769  0.5024  0.1529  0.0396
11264TIP3    H155283   6.042   0.094  12.805 -0.1520 -0.9437  0.5009
11264TIP3    H255284   5.922   0.055  12.721  0.9776  1.3737 -2.2923
11265TIP3   OH255285   0.489   6.008  12.192  0.0709 -0.7185 -0.4628
11265TIP3    H155286   0.538   5.938  12.236  1.1946  0.3332 -0.0181
11265TIP3    H255287   0.445   5.964  12.119 -0.9633 -2.2851  1.0783
11266TIP3   OH255288   6.575   5.334  15.596  0.0915 -0.2572 -0.4828
11266TIP3    H155289   6.539   5.418  15.569 -1.5863 -1.3189 -1.6035
11266TIP3    H255290   6.630   5.307  15.522 -2.0635 -1.7126 -1.6032
11267TIP3   OH255291   4.262   0.572  10.929  0.2580 -0.3101  0.1177
11267TIP3    H155292   4.183   0.621  10.907 -0.3397 -1.6645 -0.8857
11267TIP3    H255293   4.255   0.492  10.877  2.0594 -0.6652  0.3920
11268TIP3   OH255294   0.472   0.286  13.181 -0.4810  0.0618 -0.0795
11268TIP3    H155295   0.402   0.248  13.127 -0.6466 -0.9773  0.8372
11268TIP3    H255296   0.430   0.358  13.227 -0.8908 -0.3990  0.2754
11269TIP3   OH255297   5.575   4.265  12.519 -0.2165  0.3270  0.0623
11269TIP3    H155298   5.527   4.187  12.545 -1.4842  1.7116  1.9945
11269TIP3    H255299   5.625   4.290  12.597 -0.2319  1.7385 -0.3677
11270TIP3   OH255300   6.324   3.655  14.499  0.5156 -0.9374 -0.1401
11270TIP3    H155301   6.285   3.648  14.411  1.5807 -0.3697 -0.6611
11270TIP3    H255302   6.338   3.749  14.512 -1.1888 -0.8647  1.3328
11271TIP3   OH255303   5.067   1.594   6.409 -0.4642  0.1195  0.1875
11271TIP3    H155304   5.133   1.637   6.463  0.3013  0.2060 -0.8089
11271TIP3    H255305   5.109   1.514   6.378 -1.1930 -0.3572  0.4134
11272TIP3   OH255306   2.983   4.698  11.003 -0.5691 -0.1138  0.0475
11272TIP3    H155307   2.912   4.633  11.004 -0.2508 -0.4951 -1.4484
11272TIP3    H255308   2.996   4.718  10.910  1.5762 -0.3720  0.2666
11273TIP3   OH255309   0.328   6.275  13.186  0.1008  0.0683  0.3978
11273TIP3    H155310   0.369   6.195  13.218  0.5631 -0.4178 -1.3870
11273TIP3    H255311   0.234   6.258  13.192  0.1579  0.2694  2.1717
11274TIP3   OH255312   4.951   0.232  10.348  0.9954  0.1496 -0.6986
11274TIP3    H155313   4.949   0.189  10.433 -0.7483  0.3846 -0.6114
11274TIP3    H255314   4.922   0.165  10.286 -1.3668  1.0378 -0.6086
11275TIP3   OH255315   2.715   1.096   3.765 -0.2478  0.2445 -0.2523
11275TIP3    H155316   2.730   1.003   3.784 -0.9989  0.6579  2.6034
11275TIP3    H255317   2.799   1.127   3.732  1.2009 -0.6349  2.3631
11276TIP3   OH255318   0.196   3.328   1.043  0.3888  0.0590 -0.1231
11276TIP3    H155319   0.124   3.314   1.105  1.7770  1.9173  1.9605
11276TIP3    H255320   0.157   3.381   0.974 -0.6413 -0.2488  0.2013
11277TIP3   OH255321   5.391   6.005   3.825  0.1358 -0.1835  0.1990
11277TIP3    H155322   5.311   6.049   3.855 -0.1326  1.8273 -3.1630
11277TIP3    H255323   5.454   6.018   3.895 -0.9384  2.8622  0.6732
11278TIP3   OH255324   3.038   1.003  16.759 -0.6465 -0.1026 -0.4423
11278TIP3    H155325   3.064   0.930  16.814  0.3198  0.6573  0.1275
11278TIP3    H255326   3.074   0.983  16.673  3.3883  1.6837  0.6796
11279TIP3   OH255327   2.912   1.714   1.193 -0.6416 -0.5136 -0.1342
11279TIP3    H155328   2.969   1.783   1.158 -0.7061 -0.7873 -0.7841
11279TIP3    H255329   2.828   1.757   1.208 -0.4444 -0.2575  0.2329
11280TIP3   OH255330   5.886   3.510  15.503 -0.4646 -0.1493 -0.2634
11280TIP3    H155331   5.977   3.491  15.478 -0.1878 -1.2084  1.4100
11280TIP3    H255332   5.880   3.605  15.503  1.3657  0.0202  1.8797
11281TIP3   OH255333   0.493   3.700   3.005  0.3662  0.4583 -0.3641
11281TIP3    H155334   0.560   3.648   3.049  1.2097 -0.6124 -2.8230
11281TIP3    H255335   0.412   3.651   3.017  0.3183  0.8843  1.1525
11282TIP3   OH255336   0.716   1.237   4.461  0.9664 -0.5341 -0.2055
11282TIP3    H155337   0.808   1.255   4.445  0.5898  1.4240 -0.3127
11282TIP3    H255338   0.692   1.294   4.534 -0.2034 -0.8922 -0.2916
11283TIP3   OH255339   2.403   1.270   3.203 -0.3458  0.1901  0.1354
11283TIP3    H155340   2.384   1.336   3.269 -1.9798 -0.4746  0.3719
11283TIP3    H255341   2.411   1.188   3.252  0.4924  0.0100 -0.2790
11284TIP3   OH255342   1.128   3.369   5.525  0.2875 -0.7604  0.2473
11284TIP3    H155343   1.068   3.435   5.490 -1.7577 -2.3008  0.7710
11284TIP3    H255344   1.191   3.419   5.576 -0.7099  0.8730 -0.0769
11285TIP3   OH255345   3.862   6.525   4.377  0.0400  0.2248 -0.2213
11285TIP3    H155346   3.778   6.533   4.332  0.0586 -1.6512 -0.6271
11285TIP3    H255347   3.840   6.495   4.465  0.2365  0.3319 -0.1360
11286TIP3   OH255348   5.537   3.725  14.336 -0.0426 -0.3819 -0.2883
11286TIP3    H155349   5.502   3.791  14.276  1.7084  0.3217 -0.5482
11286TIP3    H255350   5.579   3.661  14.278  1.6749  0.3110  0.1687
11287TIP3   OH255351   6.026   5.684  17.061  0.3223  0.1037  0.0685
11287TIP3    H155352   6.092   5.634  17.110 -1.3407 -1.3756  0.8757
11287TIP3    H255353   6.041   5.659  16.970  0.4341 -0.7793  0.3164
11288TIP3   OH255354   3.513   2.493  12.151  0.3931 -0.3829 -0.2531
11288TIP3    H155355   3.556   2.565  12.104 -0.4952  0.6944  0.5730
11288TIP3    H255356   3.442   2.465  12.093 -1.2801  1.5550  0.8246
11289TIP3   OH255357   3.141   0.461  15.843 -0.4423 -0.3470  0.6526
11289TIP3    H155358   3.113   0.512  15.919 -0.1176  0.3790  0.2842
11289TIP3    H255359   3.188   0.523  15.788  2.7712 -1.6926  1.7093
11290TIP3   OH255360   1.136   6.213  15.470  0.1072  0.2363  0.5259
11290TIP3    H155361   1.059   6.226  15.525 -1.3989 -0.9612 -1.2445
11290TIP3    H255362   1.173   6.130  15.500 -0.2817 -0.0448  0.2271
11291TIP3   OH255363   5.965   2.147  15.686  0.0375 -0.1874 -0.1177
11291TIP3    H155364   5.956   2.053  15.667  0.3026 -0.2051 -0.1497
11291TIP3    H255365   5.915   2.189  15.616  1.3817 -0.2359 -1.1373
11292TIP3   OH255366   6.107   4.980  15.281 -0.0270  0.0023  0.2677
11292TIP3    H155367   6.146   5.052  15.330  0.0737  0.9327 -1.1515
11292TIP3    H255368   6.167   4.906  15.296 -0.2547  0.1394  1.9055
11293TIP3   OH255369   4.276   0.055  17.222 -0.1113 -0.2925 -0.3413
11293TIP3    H155370   4.212  -0.001  17.266 -1.5243 -0.1899 -2.2057
11293TIP3    H255371   4.356   0.002  17.220 -0.2691 -0.6551  1.4795
11294TIP3   OH255372   3.332   2.464  17.198 -1.0056 -0.1783 -0.6139
11294TIP3    H155373   3.354   2.499  17.285  1.4545 -0.6642 -1.0054
11294TIP3    H255374   3.254   2.412  17.213 -0.0611 -1.0433  1.5433
11295TIP3   OH255375   1.159   4.865  16.148 -0.0012  0.1851 -0.3754
11295TIP3    H155376   1.170   4.909  16.064 -1.2295  2.5521  0.6228
11295TIP3    H255377   1.067   4.880  16.171 -0.4859 -3.1064 -0.0370
11296TIP3   OH255378   6.800   3.905  12.800  0.1407 -0.3893  0.4632
11296TIP3    H155379   6.735   3.974  12.785  1.4189  0.8034  0.2530
11296TIP3    H255380   6.772   3.863  12.882 -0.7683  0.2480  0.4853
11297TIP3   OH255381   4.647   2.941   1.321  0.1642  0.5464  0.1620
11297TIP3    H155382   4.552   2.940   1.309  0.2639 -0.2539 -0.7098
11297TIP3    H255383   4.665   3.018   1.374 -0.9108  1.0562 -0.2126
11298TIP3   OH255384   1.825   0.965   0.784 -0.2481  0.4188  0.0916
11298TIP3    H155385   1.871   0.883   0.769 -0.1878  0.8802 -2.5068
11298TIP3    H255386   1.732   0.942   0.778 -0.2257  0.5837 -0.9633
11299TIP3   OH255387   6.261   3.670   0.742 -0.1831 -0.6705 -0.2179
11299TIP3    H155388   6.348   3.697   0.770  0.0703  0.6652 -2.1305
11299TIP3    H255389   6.217   3.752   0.719 -2.1504 -1.2794  1.2378
11300TIP3   OH255390   4.939   4.483   1.364  0.8249  0.1121  0.1337
11300TIP3    H155391   4.887   4.508   1.440 -0.1714 -2.4641  0.3619
11300TIP3    H255392   5.017   4.538   1.368 -0.3470  1.6879  1.6654
11301TIP3   OH255393   6.676   1.825   5.942 -0.0213 -0.3082  0.5613
11301TIP3    H155394   6.640   1.796   5.858 -0.3858 -0.5288  0.7927
11301TIP3    H255395   6.679   1.746   5.995  0.5773 -0.2412  0.6265
11302TIP3   OH255396   2.102   5.321  10.955 -0.0576  0.0943 -0.2322
11302TIP3    H155397   2.010   5.303  10.974 -0.0434  0.3953  0.1358
11302TIP3    H255398   2.122   5.400  11.004  0.7527 -0.6968  0.7576
11303TIP3   OH255399   0.212   5.981   5.885  0.1230  0.1043 -0.5007
11303TIP3    H155400   0.163   5.979   5.802 -1.4901 -0.2816  0.4419
11303TIP3    H255401   0.205   6.072   5.914 -0.1940  0.0097 -0.2780
11304TIP3   OH255402   5.175   3.212   0.458 -0.3112  0.2778 -0.0323
11304TIP3    H155403   5.109   3.200   0.389 -0.8095  0.6778  0.3742
11304TIP3    H255404   5.125   3.241   0.534 -0.1711 -2.8940  1.3559
11305TIP3   OH255405   3.980   2.247  11.198  0.5932  0.2919  0.4767
11305TIP3    H155406   3.956   2.275  11.110 -0.6178 -2.0805  0.0081
11305TIP3    H255407   4.075   2.237  11.195  0.4354 -0.9475 -0.9319
11306TIP3   OH255408   4.067   4.098  15.099  0.0302 -0.8008  0.2163
11306TIP3    H155409   3.979   4.088  15.064 -0.3755  0.4188  0.8544
11306TIP3    H255410   4.055   4.144  15.182  0.9369 -3.9128  2.1484
11307TIP3   OH255411   4.287   4.945  13.627  0.1667  0.7492  0.0256
11307TIP3    H155412   4.255   4.887  13.696  1.7520 -0.1365  0.0358
11307TIP3    H255413   4.323   5.020  13.674  0.3749  0.5910  0.1182
11308TIP3   OH255414   4.379   5.435  13.181  0.2395  0.2977  0.3468
11308TIP3    H155415   4.326   5.510  13.209 -1.4197  0.1551 -2.2597
11308TIP3    H255416   4.461   5.475  13.150 -0.2565  0.9812 -0.1236
11309TIP3   OH255417   6.529   5.702  13.468 -0.1462  0.0751  0.9196
11309TIP3    H155418   6.460   5.701  13.402  0.5811  1.5953  0.0951
11309TIP3    H255419   6.486   5.675  13.549 -1.1277 -1.4561 -0.0861
11310TIP3   OH255420   2.324   5.163  13.023 -0.0845 -0.2266  0.4260
11310TIP3    H155421   2.338   5.255  13.044  0.0336  0.0326 -0.7322
11310TIP3    H255422   2.412   5.127  13.012 -0.1545  0.0955 -1.4292
11311TIP3   OH255423   0.212   1.876   1.281  0.2887  0.0037 -0.6450
11311TIP3    H155424   0.277   1.881   1.352 -2.2788  2.5567  1.6415
11311TIP3    H255425   0.171   1.791   1.293 -0.9058  0.8547  1.7469
11312TIP3   OH255426   3.688   6.721  17.106  0.2747 -0.0027 -0.1871
11312TIP3    H155427   3.669   6.786  17.038 -1.1696 -0.2665 -0.0448
11312TIP3    H255428   3.651   6.639  17.073  0.9284 -0.4824  0.2340
11313TIP3   OH255429   0.662   4.801  13.444 -0.6827  0.0067 -0.0556
11313TIP3    H155430   0.652   4.842  13.358 -2.3778  1.5973  0.8601
11313TIP3    H255431   0.586   4.831  13.494 -0.2397 -1.6746  1.7005
11314TIP3   OH255432   2.977   1.621   2.252  0.0957  0.2011  0.1340
11314TIP3    H155433   2.889   1.657   2.242  0.0714  0.0071 -0.3282
11314TIP3    H255434   3.035   1.698   2.246  0.1899 -0.0686 -2.9907
11315TIP3   OH255435   5.143   3.316   3.486 -0.0183  0.0489  0.1252
11315TIP3    H155436   5.221   3.314   3.542  0.0339 -0.3069  0.0415
11315TIP3    H255437   5.130   3.225   3.461  0.4997  0.3216 -1.1771
11316TIP3   OH255438   4.101   4.737  12.838  0.1230 -0.2037  0.2528
11316TIP3    H155439   4.183   4.762  12.797 -0.7464  0.6825 -0.9806
11316TIP3    H255440   4.047   4.816  12.835 -1.0817 -1.0090  0.2335
11317TIP3   OH255441   6.638   3.955   0.818 -0.4436  0.5971 -0.5061
11317TIP3    H155442   6.622   3.992   0.905  0.5000 -0.2086  0.0268
11317TIP3    H255443   6.699   4.016   0.777  0.8925 -0.1830  0.2671
11318TIP3   OH255444   0.932   4.538   2.106 -0.5788  0.2166 -0.1086
11318TIP3    H155445   0.949   4.445   2.090  2.1247  0.1488  2.5750
11318TIP3    H255446   1.007   4.582   2.065 -0.7842  1.0427  0.4098
11319TIP3   OH255447   3.841   6.013  13.322  0.1794  0.7016 -0.6574
11319TIP3    H155448   3.882   5.946  13.267 -1.2721  0.3443 -1.3307
11319TIP3    H255449   3.907   6.081  13.330  1.7255 -0.8592  0.1373
11320TIP3   OH255450   3.323   2.616  11.321 -0.8626  0.4160  0.3767
11320TIP3    H155451   3.372   2.537  11.344  1.4669  1.1295 -1.8967
11320TIP3    H255452   3.350   2.681  11.386  1.6582  0.9335 -1.1153
11321TIP3   OH255453   0.323   0.541   1.852  0.1171 -0.2246  0.3141
11321TIP3    H155454   0.251   0.489   1.817  1.2432 -1.4761 -0.2088
11321TIP3    H255455   0.315   0.626   1.808 -0.6160 -0.5919 -0.2815
11322TIP3   OH255456   5.061   1.297   5.548 -0.1512 -0.0834 -0.0321
11322TIP3    H155457   5.077   1.334   5.634  2.0001  1.4320 -1.0266
11322TIP3    H255458   4.993   1.353   5.510  1.7833  1.8355 -0.8206
11323TIP3   OH255459   1.775   2.072   3.197  0.6554 -0.1072  0.1126
11323TIP3    H155460   1.742   1.985   3.220  2.4932 -0.6468  0.7555
11323TIP3    H255461   1.834   2.095   3.268 -1.4481  2.6241  1.0690
11324TIP3   OH255462   2.934   0.500   2.891  0.5405 -0.9686  0.6289
11324TIP3    H155463   3.001   0.516   2.825  0.3915  3.0945  1.3228
11324TIP3    H255464   2.852   0.522   2.847  0.3009  0.2766  1.6485
11325TIP3   OH255465   5.741   3.655   4.875 -0.4710  0.0038  0.6635
11325TIP3    H155466   5.693   3.714   4.816 -0.4923  0.6720  1.3387
11325TIP3    H255467   5.695   3.571   4.868 -0.8839  0.2627  0.2391
11326TIP3   OH255468   0.570   5.178  13.764  0.6344 -0.1576  0.2516
11326TIP3    H155469   0.657   5.173  13.723  1.2237 -0.5860  1.5167
11326TIP3    H255470   0.566   5.267  13.800 -0.1192  0.4192 -1.2286
11327TIP3   OH255471   6.329   3.149   4.634 -0.1161  0.1797  0.3029
11327TIP3    H155472   6.322   3.204   4.712  0.9187 -0.2824  0.7350
11327TIP3    H255473   6.265   3.080   4.648 -0.0002  0.1499  0.7027
11328TIP3   OH255474   3.675   4.797  10.693 -0.4770  0.0403  0.2259
11328TIP3    H155475   3.609   4.862  10.668 -1.0766  0.2036  2.2066
11328TIP3    H255476   3.626   4.727  10.734  0.5982  0.2882  1.9593
11329TIP3   OH255477   0.406   1.503  16.130  0.0264 -0.6440 -0.2212
11329TIP3    H155478   0.315   1.484  16.108 -1.1730  3.0396  1.1260
11329TIP3    H255479   0.435   1.561  16.059  0.0919  1.1832  1.2618
11330TIP3   OH255480   4.035   1.957  11.394 -0.5533 -0.6545 -0.3170
11330TIP3    H155481   4.110   1.999  11.351 -1.0445  1.3577  0.7518
11330TIP3    H255482   3.989   1.912  11.322  0.5016 -0.1426 -1.3331
11331TIP3   OH255483   5.660   0.335  15.918 -0.1911 -0.6403  0.3126
11331TIP3    H155484   5.587   0.315  15.859 -1.6332 -0.6859  2.0742
11331TIP3    H255485   5.738   0.317  15.866 -1.4247 -0.5986 -1.6094
11332TIP3   OH255486   1.163   6.707  14.819  0.2460  0.0034 -0.0322
11332TIP3    H155487   1.250   6.736  14.845  0.7992 -0.8053 -0.9141
11332TIP3    H255488   1.179   6.642  14.751 -1.0959  1.6019 -1.9701
11333TIP3   OH255489   6.278   0.400   1.170 -0.4338 -0.0138  0.2572
11333TIP3    H155490   6.191   0.430   1.194 -0.1145  0.7306  0.5149
11333TIP3    H255491   6.305   0.344   1.243 -0.9754 -0.8167 -0.1554
11334TIP3   OH255492   5.475   2.955  13.703 -0.1456 -1.0349  0.3891
11334TIP3    H155493   5.446   3.038  13.741  0.0399 -0.8332  0.0873
11334TIP3    H255494   5.538   2.921  13.767  0.0893 -0.7430  0.3176
11335TIP3   OH255495   2.934   2.843  17.067  0.0222  0.3560 -0.1020
11335TIP3    H155496   3.022   2.826  17.101 -0.3364 -1.7717 -0.1432
11335TIP3    H255497   2.929   2.789  16.987 -1.4967  0.0441  0.1897
11336TIP3   OH255498   6.424   4.121  16.445  0.6934  0.9111 -0.2099
11336TIP3    H155499   6.443   4.203  16.491 -1.7711 -0.1340  2.8610
11336TIP3    H255500   6.360   4.146  16.378  2.0030  1.9381 -1.0995
11337TIP3   OH255501   0.424   6.055   0.131 -0.1731 -0.0436 -0.2639
11337TIP3    H155502   0.501   6.096   0.091  0.4770  0.0909  1.0929
11337TIP3    H255503   0.421   5.967   0.093 -1.5621  1.2073 -3.1645
11338TIP3   OH255504   5.630   3.838  12.116 -0.5755 -0.0250 -0.1095
11338TIP3    H155505   5.697   3.904  12.100 -0.1387 -0.2201  0.9033
11338TIP3    H255506   5.678   3.763  12.150 -1.2678 -0.2848  0.2974
11339TIP3   OH255507   3.175   0.856   0.980  0.6320 -0.1529 -0.0486
11339TIP3    H155508   3.174   0.866   0.885  1.6033  1.2039  0.0607
11339TIP3    H255509   3.122   0.778   0.997 -0.2846  0.1078 -1.6323
11340TIP3   OH255510   2.957   1.093   5.485 -0.6455  0.5533 -0.5808
11340TIP3    H155511   2.982   1.182   5.510 -1.1911  0.1257  1.5804
11340TIP3    H255512   2.884   1.105   5.424 -0.3569  1.5915 -0.7316
11341TIP3   OH255513   5.459   2.191  16.365 -0.0905  0.4355 -0.0206
11341TIP3    H155514   5.536   2.241  16.336  1.0073 -1.7678 -1.0668
11341TIP3    H255515   5.407   2.181  16.285 -0.8126  0.7619  0.4058
11342TIP3   OH255516   1.862   5.733   2.524  0.2620  0.6666 -0.1399
11342TIP3    H155517   1.940   5.775   2.561  0.1016  0.1541  0.7891
11342TIP3    H255518   1.797   5.737   2.594 -0.8396  1.8729 -1.2052
11343TIP3   OH255519   5.218   5.786   0.575  0.2606  0.8182  0.2108
11343TIP3    H155520   5.181   5.747   0.654 -0.2380  0.1856 -0.3321
11343TIP3    H255521   5.211   5.718   0.508  3.2496  0.3209  0.3198
11344TIP3   OH255522   0.392   1.205   5.569 -0.1006  0.3277 -0.1022
11344TIP3    H155523   0.356   1.143   5.505  1.0126 -1.1089  0.6291
11344TIP3    H255524   0.430   1.275   5.517 -1.1951  0.2988 -0.9480
11345TIP3   OH255525   4.340   6.450  12.964 -0.0773 -0.0268 -0.3341
11345TIP3    H155526   4.394   6.495  13.029 -0.2234 -0.1529 -0.1231
11345TIP3    H255527   4.274   6.515  12.938 -0.5637 -0.2605  0.3022
11346TIP3   OH255528   0.311   4.687   0.568 -0.3801 -0.8322 -0.0810
11346TIP3    H155529   0.348   4.682   0.656  0.5755 -3.4981 -0.5962
11346TIP3    H255530   0.314   4.597   0.535 -2.4323 -0.1868 -2.1565
11347TIP3   OH255531   3.289   4.358   2.475 -0.0913  0.6439 -0.0217
11347TIP3    H155532   3.287   4.424   2.406 -1.2864 -1.0352 -1.6464
11347TIP3    H255533   3.382   4.336   2.486  0.0320  0.1915 -1.8392
11348TIP3   OH255534   1.593   6.166   4.581 -0.5134 -0.4646  0.3126
11348TIP3    H155535   1.530   6.094   4.572 -0.1288 -1.0310  1.9523
11348TIP3    H255536   1.542   6.245   4.564 -1.0934 -1.0699 -0.8419
11349TIP3   OH255537   3.133   4.490   4.829  0.2179  0.3035  0.2391
11349TIP3    H155538   3.073   4.418   4.810 -1.3758  1.7950 -0.5006
11349TIP3    H255539   3.219   4.448   4.838 -0.5163 -1.5571 -1.1617
11350TIP3   OH255540   5.233   4.576  15.538 -0.6350 -0.1123 -0.3367
11350TIP3    H155541   5.162   4.612  15.590 -0.0294  0.5753  0.0172
11350TIP3    H255542   5.215   4.482  15.535 -1.1510 -0.0395  0.3596
11351TIP3   OH255543   3.633   5.088  13.669 -0.1933  0.0509 -0.0378
11351TIP3    H155544   3.603   5.176  13.648 -0.7347 -0.2797 -0.6902
11351TIP3    H255545   3.628   5.082  13.764 -3.2663 -0.3572 -0.1776
11352TIP3   OH255546   6.309   6.197   1.665  0.6893  0.1385 -0.4386
11352TIP3    H155547   6.372   6.134   1.630  0.7390 -0.2187  0.2842
11352TIP3    H255548   6.262   6.229   1.588 -0.3847 -1.9148 -0.6819
11353TIP3   OH255549   4.770   2.669   1.330  0.2524 -0.7004  0.1229
11353TIP3    H155550   4.826   2.694   1.404  1.1534 -0.0079 -0.7852
11353TIP3    H255551   4.719   2.748   1.311  0.2005 -0.8036 -0.1616
11354TIP3   OH255552   3.549   3.900  14.136  0.2336 -0.0096  0.3421
11354TIP3    H155553   3.494   3.971  14.104 -0.8469 -1.1138 -0.2664
11354TIP3    H255554   3.504   3.820  14.110  1.0995 -0.9331  1.5870
11355TIP3   OH255555   3.879   3.310   1.747  0.0884  0.3103  0.1942
11355TIP3    H155556   3.931   3.240   1.787  1.1194  0.3856 -0.9970
11355TIP3    H255557   3.918   3.323   1.661 -0.1375  2.2944  0.3628
11356TIP3   OH255558   5.110   6.396  12.650 -0.4217  0.1811 -0.5389
11356TIP3    H155559   5.157   6.316  12.626 -2.8793 -1.2956 -0.6134
11356TIP3    H255560   5.114   6.399  12.745 -2.9901 -1.7912 -0.3056
11357TIP3   OH255561   6.298   2.929  12.267  0.3481 -0.4842 -0.3729
11357TIP3    H155562   6.267   2.960  12.352 -0.1546 -0.5661 -0.5269
11357TIP3    H255563   6.314   3.010  12.217  0.7966 -0.4339 -0.1436
11358TIP3   OH255564   4.531   1.670   6.104 -0.3499  0.3617 -0.3434
11358TIP3    H155565   4.544   1.762   6.125  1.2643  0.5035 -1.8515
11358TIP3    H255566   4.449   1.667   6.056 -0.4038  1.0091 -0.2899
11359TIP3   OH255567   0.504   0.433   0.649  0.0740  0.1613 -0.5502
11359TIP3    H155568   0.572   0.369   0.630 -0.5177 -0.5759 -0.1994
11359TIP3    H255569   0.552   0.511   0.678  0.8026 -0.0195 -1.2663
11360TIP3   OH255570   6.079   0.949  16.383  0.2031  0.4045 -0.0198
11360TIP3    H155571   6.122   1.034  16.378 -0.4244  0.7140 -0.0921
11360TIP3    H255572   6.062   0.926  16.291  1.5214 -0.3844 -0.0836
11361TIP3   OH255573   4.893   0.997  12.359 -0.2496  0.0682  1.3463
11361TIP3    H155574   4.831   1.016  12.429 -0.4645 -1.1336  1.4861
11361TIP3    H255575   4.968   0.959  12.404 -0.5253 -1.0205  0.8858
11362TIP3   OH255576   2.292   1.496  12.659 -0.1712 -0.5841 -0.1613
11362TIP3    H155577   2.287   1.401  12.666 -0.6926 -0.6181 -0.9743
11362TIP3    H255578   2.204   1.524  12.635  0.1781  0.0340 -0.7524
11363TIP3   OH255579   6.294   3.130  14.852  0.2789  0.2007  0.3037
11363TIP3    H155580   6.359   3.197  14.872 -2.0631  2.6984 -0.1528
11363TIP3    H255581   6.307   3.111  14.759  0.4054  0.6086  0.2387
11364TIP3   OH255582   0.371   3.262   2.099 -0.2324 -0.3204 -0.6946
11364TIP3    H155583   0.392   3.262   2.006 -0.7205 -1.3778 -0.8084
11364TIP3    H255584   0.390   3.173   2.128 -1.8869 -0.5377 -0.2070
11365TIP3   OH255585   5.830   2.973   4.374 -0.0977  0.1219 -0.8960
11365TIP3    H155586   5.816   2.934   4.460  1.3642  1.4943 -0.0043
11365TIP3    H255587   5.759   3.037   4.365 -1.6138 -1.6438 -1.7261
11366TIP3   OH255588   4.890   2.420  12.271 -0.0581  0.7853 -0.2569
11366TIP3    H155589   4.849   2.492  12.225 -0.9398 -0.4426 -1.4472
11366TIP3    H255590   4.976   2.410  12.231 -0.3116  0.5677 -0.7501
11367TIP3   OH255591   4.337   6.282   5.061  0.3534 -0.1766 -0.1180
11367TIP3    H155592   4.297   6.236   4.987  0.9749 -0.5080 -0.2472
11367TIP3    H255593   4.429   6.291   5.036 -0.0671  2.5952 -0.8339
11368TIP3   OH255594   4.491   5.293   2.900  0.4665  0.7734  0.2056
11368TIP3    H155595   4.518   5.347   2.974 -0.7229  0.0740  1.1788
11368TIP3    H255596   4.539   5.211   2.911 -0.3695  0.3419  0.7147
11369TIP3   OH255597   0.281   6.796  13.485  0.0223 -0.0907 -0.2850
11369TIP3    H155598   0.371   6.789  13.518 -0.2557 -0.6445  0.3504
11369TIP3    H255599   0.227   6.805  13.563 -0.5176 -0.1684 -0.6462
11370TIP3   OH255600   3.783   3.775  16.073  0.3990 -0.0024 -0.2680
11370TIP3    H155601   3.709   3.753  16.130 -0.2452  1.3729 -0.5697
11370TIP3    H255602   3.749   3.762  15.984  0.5553  0.5442 -0.4070
11371TIP3   OH255603   6.507   4.999  15.695  0.1622 -0.0461 -0.5022
11371TIP3    H155604   6.556   4.917  15.690  1.7201  0.8226  0.4430
11371TIP3    H255605   6.558   5.054  15.753 -0.7226  1.7177 -1.3734
11372TIP3   OH255606   2.958   5.838  12.180 -0.3183  0.4923 -0.2392
11372TIP3    H155607   2.872   5.841  12.138  0.1011 -1.3159 -1.2990
11372TIP3    H255608   2.960   5.915  12.237 -2.9086  0.1540  0.3752
11373TIP3   OH255609   6.618   1.722  15.237 -0.1035 -0.0808 -0.2857
11373TIP3    H155610   6.708   1.752  15.247  0.4151 -1.3440 -1.0682
11373TIP3    H255611   6.589   1.762  15.154 -0.8936  1.8013  0.8533
11374TIP3   OH255612   1.414   0.303   0.509 -0.0336 -0.2739 -0.4007
11374TIP3    H155613   1.477   0.289   0.579  0.3026 -2.1386 -1.0510
11374TIP3    H255614   1.350   0.232   0.520 -1.5703  1.0985 -0.2568
11375TIP3   OH255615   0.377   4.541   5.337 -0.4921  0.1177 -0.0864
11375TIP3    H155616   0.336   4.459   5.366 -0.8909  0.5344  0.5572
11375TIP3    H255617   0.468   4.518   5.323 -1.0153 -0.9107 -1.9115
11376TIP3   OH255618   2.908   3.697  13.707 -0.1128 -0.3426 -0.3379
11376TIP3    H155619   2.899   3.685  13.801  0.4381  1.1494 -0.0711
11376TIP3    H255620   2.827   3.740  13.680  0.3734  0.6503 -0.2616
11377TIP3   OH255621   0.447   1.648  15.049 -0.4016  0.0691 -0.3816
11377TIP3    H155622   0.395   1.689  14.979 -0.4620 -1.3594 -1.1892
11377TIP3    H255623   0.493   1.577  15.006  0.1656 -0.3450  0.8901
11378TIP3   OH255624   3.352   4.799  12.682  0.3926  0.4360  0.2603
11378TIP3    H155625   3.336   4.746  12.759  1.3028 -0.2092  0.0232
11378TIP3    H255626   3.430   4.851  12.704  0.6618  0.2458 -0.2142
11379TIP3   OH255627   2.931   4.757  12.279  0.3479 -0.2222 -0.9515
11379TIP3    H155628   2.869   4.692  12.246  0.2520 -0.5702 -0.0983
11379TIP3    H255629   3.017   4.720  12.261  0.4858  2.0290 -5.8248
11380TIP3   OH255630   5.820   6.325   3.884  1.0074  0.1881  0.0160
11380TIP3    H155631   5.772   6.253   3.845  0.4658  1.2613 -1.3477
11380TIP3    H255632   5.903   6.327   3.837  0.3385  1.5132 -1.1460
11381TIP3   OH255633   2.614   6.567   1.848  0.0834 -0.2176 -0.2012
11381TIP3    H155634   2.527   6.600   1.869 -0.2625 -0.6081 -1.0122
11381TIP3    H255635   2.673   6.640   1.869 -0.3171 -0.3723  1.4776
11382TIP3   OH255636   2.185   1.531  15.275 -0.5975  0.1344  0.3848
11382TIP3    H155637   2.153   1.441  15.267 -1.1024  0.2030  1.4953
11382TIP3    H255638   2.195   1.561  15.185 -0.7839 -0.9083  0.0081
11383TIP3   OH255639   1.304   5.990  17.195 -0.1503 -1.0444  0.1005
11383TIP3    H155640   1.338   6.075  17.223  1.0356 -1.2690 -0.6238
11383TIP3    H255641   1.325   5.986  17.102 -0.6983 -1.8981  0.0177
11384TIP3   OH255642   3.531   1.688  12.831 -0.2705  0.2443 -0.1451
11384TIP3    H155643   3.537   1.622  12.761  0.3963  1.8299 -1.6326
11384TIP3    H255644   3.478   1.758  12.793  0.9066  1.5499  0.5804
11385TIP3   OH255645   6.082   1.600   4.780  0.1387 -0.5996 -0.2619
11385TIP3    H155646   6.060   1.508   4.765  0.9009 -0.9432  0.6848
11385TIP3    H255647   6.003   1.637   4.820  0.8115 -1.5302  1.9842
11386TIP3   OH255648   3.102   0.005  10.451  0.2548  0.4473 -0.6040
11386TIP3    H155649   3.119   0.089  10.408 -0.2770 -0.0315 -1.7853
11386TIP3    H255650   3.157  -0.058  10.404 -2.1343 -0.5119 -2.2475
11387TIP3   OH255651   2.295   3.921   3.966  0.0446 -0.1521  0.0650
11387TIP3    H155652   2.359   3.991   3.973 -0.9743  0.6027  2.4747
11387TIP3    H255653   2.211   3.966   3.956 -0.2626 -1.0995 -1.6893
11388TIP3   OH255654   2.647   5.794   6.464  0.2611 -0.6370  0.5514
11388TIP3    H155655   2.580   5.851   6.503  1.0035 -0.3760  1.4640
11388TIP3    H255656   2.604   5.756   6.387 -1.1626 -1.0093  1.5074
11389TIP3   OH255657   4.269   6.702   0.459 -0.1791 -0.0890  0.2498
11389TIP3    H155658   4.205   6.758   0.415  1.2150  0.9569 -0.4849
11389TIP3    H255659   4.272   6.734   0.549 -2.1525 -1.4533  0.8414
11390TIP3   OH255660   6.528   1.715   0.390 -0.1943 -0.3282  0.4220
11390TIP3    H155661   6.525   1.740   0.483  0.0994 -0.6980  0.5335
11390TIP3    H255662   6.524   1.619   0.391  1.6505 -0.4289  0.1538
11391TIP3   OH255663   6.549   2.541  13.529 -0.5755 -0.0055  0.0519
11391TIP3    H155664   6.565   2.446  13.532  0.4223  0.1515 -0.1490
11391TIP3    H255665   6.487   2.552  13.457  0.7512 -0.3253 -1.1653
11392TIP3   OH255666   3.979   2.137  14.078 -0.3595  0.2951 -0.6076
11392TIP3    H155667   4.025   2.060  14.043  0.3676  0.5819 -0.2757
11392TIP3    H255668   4.047   2.204  14.086 -0.7668  0.6023  0.2410
11393TIP3   OH255669   3.008   2.065   3.351  0.0045 -0.1977 -0.0690
11393TIP3    H155670   2.977   1.980   3.381  0.7544  0.0046  1.3415
11393TIP3    H255671   3.101   2.065   3.370  0.1516  0.6646 -0.7372
11394TIP3   OH255672   3.346   0.095  13.582  0.1426 -0.1566  0.1990
11394TIP3    H155673   3.431   0.052  13.583  0.0844 -0.2716  0.1797
11394TIP3    H255674   3.287   0.031  13.542 -0.3075 -0.7388  1.7973
11395TIP3   OH255675   5.557   1.384   5.298  0.0233 -0.3138  0.8536
11395TIP3    H155676   5.646   1.359   5.273  0.3434  0.7568  0.8786
11395TIP3    H255677   5.550   1.476   5.273 -1.0581 -0.3710  0.9148
11396TIP3   OH255678   1.306   4.187  12.559 -0.5456 -0.4258 -0.2958
11396TIP3    H155679   1.282   4.096  12.579 -1.1011 -0.3937 -0.7869
11396TIP3    H255680   1.394   4.197  12.595  0.0011 -1.5094 -1.2825
11397TIP3   OH255681   1.036   5.678   3.027  0.3393  0.6411  0.1385
11397TIP3    H155682   1.059   5.586   3.014 -0.7288  0.2353  1.0515
11397TIP3    H255683   1.120   5.722   3.041  0.8105 -0.3008  0.3028
11398TIP3   OH255684   4.051   4.291   1.672 -0.1781  0.6363 -0.3348
11398TIP3    H155685   4.056   4.382   1.644 -0.4924  0.1695 -1.9509
11398TIP3    H255686   3.957   4.273   1.679 -0.1107  0.6538  0.7631
11399TIP3   OH255687   4.145   2.316  13.495  0.2639 -0.0106 -0.8117
11399TIP3    H155688   4.204   2.246  13.468  0.8473 -0.3017  1.1152
11399TIP3    H255689   4.146   2.312  13.591 -2.5757  0.2198 -0.7381
11400TIP3   OH255690   3.870   1.826   0.258 -0.7571 -0.0720  0.5801
11400TIP3    H155691   3.881   1.731   0.261 -0.5420 -0.2538 -3.4364
11400TIP3    H255692   3.956   1.861   0.277  0.1520 -0.8435 -1.8585
11401TIP3   OH255693   5.392   5.820  11.903  0.4498  0.3479  0.2349
11401TIP3    H155694   5.422   5.734  11.872 -0.4761  0.4275 -0.9094
11401TIP3    H255695   5.313   5.837  11.852  0.9679  2.1622  0.0129
11402TIP3   OH255696   6.657   1.092   5.957  1.1783  0.1823 -0.3438
11402TIP3    H155697   6.751   1.078   5.946  1.3246  1.5581 -0.9953
11402TIP3    H255698   6.651   1.174   6.006  0.3407 -0.9491  1.4438
11403TIP3   OH255699   2.487   0.843   0.612 -0.0997  0.1250  0.6259
11403TIP3    H155700   2.481   0.876   0.522  1.6103  0.3822  0.5974
11403TIP3    H255701   2.429   0.900   0.662 -0.0221  0.8252 -0.0733
11404TIP3   OH255702   4.561   4.101   2.885  0.5005  0.3221  0.2366
11404TIP3    H155703   4.569   4.011   2.854  0.8728  0.4604 -0.0767
11404TIP3    H255704   4.475   4.129   2.854  0.2533 -0.0290  0.6059
11405TIP3   OH255705   6.213   4.091   5.961  0.0928  0.7775 -0.1573
11405TIP3    H155706   6.226   4.164   5.899 -1.5730 -0.8104 -2.4831
11405TIP3    H255707   6.262   4.018   5.922 -0.8129 -0.1923  0.5120
11406TIP3   OH255708   1.631   4.599   0.950  0.7878 -0.7127 -0.0144
11406TIP3    H155709   1.724   4.592   0.969  1.5854  1.1241 -2.9600
11406TIP3    H255710   1.617   4.538   0.877  0.5849  1.9508 -2.2861
11407TIP3   OH255711   2.092   4.429   0.384  0.3049 -0.3325 -0.0159
11407TIP3    H155712   2.016   4.371   0.375  0.9505 -0.8052 -2.9364
11407TIP3    H255713   2.167   4.371   0.388  0.6422  0.1828  1.1284
11408TIP3   OH255714   0.707   2.483  12.396  0.2538  0.2698  0.1232
11408TIP3    H155715   0.785   2.434  12.423  0.9339  2.4271  2.2472
11408TIP3    H255716   0.741   2.553  12.341 -0.1583  1.1609  0.9797
11409TIP3   OH255717   4.495   2.414  12.229  0.5598 -0.4069  0.6042
11409TIP3    H155718   4.473   2.502  12.260  0.9203 -0.2421  0.4028
11409TIP3    H255719   4.440   2.355  12.280  0.6134 -0.0870  1.0286
11410TIP3   OH255720   6.206   0.042  15.563  0.0923  0.2282 -0.1516
11410TIP3    H155721   6.188   0.019  15.472  0.2128  1.4456 -0.4866
11410TIP3    H255722   6.299   0.023  15.575 -0.2114 -1.1369  0.0888
11411TIP3   OH255723   1.504   0.744   1.344  0.0465 -0.0672  0.2634
11411TIP3    H155724   1.432   0.807   1.351 -0.6644 -0.6521 -1.4918
11411TIP3    H255725   1.568   0.786   1.286  1.8717  1.0998  3.0206
11412TIP3   OH255726   3.190   2.025   2.460  0.2148 -0.1614 -0.1122
11412TIP3    H155727   3.104   2.022   2.502 -0.2763  0.1298 -1.0739
11412TIP3    H255728   3.249   1.984   2.522 -0.3724  0.8866  1.1581
11413TIP3   OH255729   5.733   1.226  15.065  0.0281  0.5600 -0.0091
11413TIP3    H155730   5.718   1.170  15.142 -1.0285  2.1368  0.9477
11413TIP3    H255731   5.822   1.204  15.038 -0.4949 -1.9045  0.0823
11414TIP3   OH255732   2.623   5.848   2.306 -0.4221  0.0498  0.4940
11414TIP3    H155733   2.637   5.756   2.281 -0.2248  0.0820  0.4837
11414TIP3    H255734   2.709   5.888   2.295 -0.7113  0.4455 -0.3706
11415TIP3   OH255735   0.302   2.424  13.570 -0.0407 -0.0172  0.2128
11415TIP3    H155736   0.221   2.388  13.607 -0.1450 -0.3308 -0.3240
11415TIP3    H255737   0.371   2.394  13.630 -0.3622  0.6069  0.9109
11416TIP3   OH255738   6.388   6.025  13.009  0.3719  0.3736 -0.6579
11416TIP3    H155739   6.336   6.024  13.089  0.4599  0.0790 -0.6017
11416TIP3    H255740   6.339   5.971  12.947  0.3537  0.5175 -0.7698
11417TIP3   OH255741   0.243   2.623  16.715  0.2354 -0.4289 -0.1375
11417TIP3    H155742   0.155   2.587  16.720 -0.0116  0.0554 -0.9172
11417TIP3    H255743   0.297   2.550  16.686 -0.1932 -0.3032 -1.2906
11418TIP3   OH255744   4.942   2.246  12.861 -0.5625 -0.0092  0.3023
11418TIP3    H155745   4.962   2.182  12.792 -2.0204  0.6365 -0.7464
11418TIP3    H255746   5.009   2.314  12.850 -1.5912  0.7793 -1.4096
11419TIP3   OH255747   2.924   0.224   3.915  0.2079 -0.1611  0.2881
11419TIP3    H155748   2.972   0.252   3.993  0.0539  1.4420 -0.1766
11419TIP3    H255749   2.989   0.224   3.845 -0.1873  0.8527 -0.0926
11420TIP3   OH255750   6.684   3.417  16.977 -0.8068  0.0057  0.2987
11420TIP3    H155751   6.605   3.470  16.970 -2.1669 -2.1391 -1.4853
11420TIP3    H255752   6.652   3.328  16.990  1.2846 -0.9532 -0.7525
11421TIP3   OH255753   6.638   4.155  14.755  0.0456 -0.5074  0.0189
11421TIP3    H155754   6.730   4.142  14.780 -0.5096 -1.6026  1.5416
11421TIP3    H255755   6.624   4.092  14.684  0.4416 -0.4013 -0.1554
11422TIP3   OH255756   6.195   2.735  13.530  0.2343  0.6324 -0.5014
11422TIP3    H155757   6.198   2.785  13.449 -1.2483  0.0549 -0.9317
11422TIP3    H255758   6.216   2.798  13.599  0.7320  1.2931 -1.2628
11423TIP3   OH255759   2.034   3.991  12.959  0.6326  0.2073  0.0034
11423TIP3    H155760   2.042   4.083  12.933  0.0455  0.0247 -0.8646
11423TIP3    H255761   2.018   3.944  12.877 -0.5947 -0.4765  0.6122
11424TIP3   OH255762   6.188   2.664  11.564 -0.3255 -0.2379  0.2870
11424TIP3    H155763   6.238   2.612  11.627  1.6863 -0.4448 -1.4468
11424TIP3    H255764   6.250   2.684  11.494 -2.7775 -0.9735 -2.2056
11425TIP3   OH255765   2.608   3.642  13.192 -0.3363  0.1796  0.5625
11425TIP3    H155766   2.664   3.666  13.265 -0.0262  1.5784 -0.1183
11425TIP3    H255767   2.525   3.688  13.208 -1.1004 -1.3929  1.2490
11426TIP3   OH255768   4.596   5.292  12.826  0.1871  0.3529 -0.1712
11426TIP3    H155769   4.636   5.351  12.890 -0.3409  1.1104 -0.5342
11426TIP3    H255770   4.559   5.221  12.879  0.2237  0.7059  0.3269
11427TIP3   OH255771   2.921   1.275  12.236 -0.1492  0.6020  0.2099
11427TIP3    H155772   2.897   1.238  12.321  0.9382  1.7796  1.0502
11427TIP3    H255773   2.927   1.369  12.252  0.1918  0.8229 -1.1469
11428TIP3   OH255774   1.672   6.270   3.664  0.1090 -0.2655 -0.3418
11428TIP3    H155775   1.736   6.239   3.728  1.1808  1.3495 -0.6162
11428TIP3    H255776   1.641   6.353   3.699 -0.7940 -0.3419 -0.9341
11429TIP3   OH255777   2.435   0.513   3.551  0.3208  0.4944 -0.0620
11429TIP3    H155778   2.385   0.579   3.599 -0.5744 -0.0916 -0.1753
11429TIP3    H255779   2.402   0.518   3.461  0.5569  0.1962 -0.1692
11430TIP3   OH255780   6.209   2.294   1.314  0.5749  0.2176 -0.2254
11430TIP3    H155781   6.135   2.309   1.255 -0.3260 -2.2128  0.2377
11430TIP3    H255782   6.230   2.201   1.303  2.6538  0.5569  0.7000
11431TIP3   OH255783   0.784   3.460  16.109 -0.0443 -0.4162  0.4135
11431TIP3    H155784   0.850   3.410  16.060  0.6201 -0.8019  1.6673
11431TIP3    H255785   0.810   3.551  16.098 -1.5517 -0.2451 -2.3188
11432TIP3   OH255786   6.755   3.350   1.618 -0.6705 -0.2215 -0.9577
11432TIP3    H155787   6.712   3.336   1.702 -1.3302  0.1908 -1.2261
11432TIP3    H255788   6.684   3.350   1.554 -0.1528 -0.7527 -1.5424
11433TIP3   OH255789   4.397   4.311   5.398 -0.0930  0.1632  0.2668
11433TIP3    H155790   4.309   4.299   5.434  0.1934  2.1911  1.7119
11433TIP3    H255791   4.382   4.330   5.305 -1.0171 -1.9533 -0.0501
11434TIP3   OH255792   4.131   6.705  16.209 -0.0211 -0.1374  0.1097
11434TIP3    H155793   4.118   6.794  16.176 -0.6917 -0.4998 -0.6260
11434TIP3    H255794   4.081   6.702  16.291 -1.4760 -0.3730 -0.7711
11435TIP3   OH255795   3.477   0.961  14.385 -0.4088 -0.0043 -0.2729
11435TIP3    H155796   3.516   1.038  14.426  0.8309  0.1562 -1.6914
11435TIP3    H255797   3.508   0.964  14.294 -0.6609 -1.9527 -0.4518
11436TIP3   OH255798   2.990   6.220  16.891  0.2167  0.0755  0.2230
11436TIP3    H155799   2.939   6.199  16.969  2.2530  1.0637  1.8304
11436TIP3    H255800   2.924   6.248  16.827 -1.3857  0.0671  1.8208
11437TIP3   OH255801   3.286   1.156   6.111  0.0877  0.0445  0.2105
11437TIP3    H155802   3.375   1.190   6.123 -0.7039  1.7676  1.4083
11437TIP3    H255803   3.235   1.195   6.182 -1.9323  0.1888 -1.2632
11438TIP3   OH255804   1.817   5.186   1.020  0.4375  0.1868 -0.1510
11438TIP3    H155805   1.756   5.134   1.072 -0.6772  1.6452  0.0310
11438TIP3    H255806   1.851   5.251   1.080  1.4180  0.0190 -0.5132
11439TIP3   OH255807   1.786   3.366  11.421 -0.2847  0.7820 -0.1027
11439TIP3    H155808   1.836   3.433  11.374  2.2135  0.3234  1.8448
11439TIP3    H255809   1.813   3.283  11.382 -0.6247  0.6301 -0.0218
11440TIP3   OH255810   5.810   0.936  16.867 -0.0102  0.1343  0.0080
11440TIP3    H155811   5.840   0.967  16.952 -2.4821  1.1733  0.5565
11440TIP3    H255812   5.720   0.906  16.883 -1.7799  3.5661 -2.9057
11441TIP3   OH255813   0.795   5.646   3.638  0.2678 -0.1092  0.0983
11441TIP3    H155814   0.783   5.731   3.596  0.1901  0.6150  1.5482
11441TIP3    H255815   0.886   5.623   3.620  0.2229  0.1530 -0.5031
11442TIP3   OH255816   4.211   3.810  12.683 -0.0156  0.2171  0.7288
11442TIP3    H155817   4.209   3.737  12.620 -0.7602  0.7875  0.0771
11442TIP3    H255818   4.170   3.883  12.636 -1.5354  0.3619  2.2670
11443TIP3   OH255819   1.236   6.427   6.099  0.1418 -0.3319  0.0471
11443TIP3    H155820   1.200   6.408   6.013  1.0778 -0.4440 -0.3188
11443TIP3    H255821   1.287   6.507   6.087  1.4769 -1.1628  0.1757
11444TIP3   OH255822   2.484   2.813  15.388 -0.1144  0.1719 -0.7215
11444TIP3    H155823   2.451   2.892  15.346 -1.1423 -1.0516 -2.2358
11444TIP3    H255824   2.431   2.804  15.467 -0.5353  0.5390 -0.9619
11445TIP3   OH255825   4.282   2.829   6.806 -0.3896 -0.1254  0.5206
11445TIP3    H155826   4.348   2.822   6.737 -1.2534 -0.2993 -0.3084
11445TIP3    H255827   4.237   2.912   6.787 -0.7960 -0.2971  0.7322
11446TIP3   OH255828   6.545   6.414   5.041  0.1109  0.3021 -0.0518
11446TIP3    H155829   6.477   6.476   5.013  1.1881  1.6457  0.2580
11446TIP3    H255830   6.627   6.455   5.014  0.9123 -0.4054  1.2610
11447TIP3   OH255831   5.673   0.954  12.113  0.1314  0.3661 -0.3483
11447TIP3    H155832   5.745   0.979  12.055  2.2872  1.0051  2.5034
11447TIP3    H255833   5.661   0.860  12.097  1.4344  0.3026 -1.0374
11448TIP3   OH255834   6.155   1.295   2.965  0.1597  0.8517 -0.4482
11448TIP3    H155835   6.240   1.250   2.956 -0.4698 -0.3374 -0.4901
11448TIP3    H255836   6.134   1.323   2.876 -1.7361 -3.0005 -1.2959
11449TIP3   OH255837   5.508   5.466  14.817 -0.3334  0.1451 -0.0174
11449TIP3    H155838   5.585   5.491  14.869 -0.2432 -1.4702  0.6588
11449TIP3    H255839   5.461   5.548  14.802 -0.1898  0.6866  2.3536
11450TIP3   OH255840   2.087   5.887  14.656 -0.1807 -0.2518 -0.1976
11450TIP3    H155841   2.065   5.968  14.701  1.2041 -0.2575  0.5220
11450TIP3    H255842   2.045   5.818  14.709  0.7107 -0.1897  0.5987
11451TIP3   OH255843   3.590   6.193  14.597  0.5799 -0.2669 -0.5883
11451TIP3    H155844   3.530   6.153  14.660 -0.8751  2.0988 -0.4154
11451TIP3    H255845   3.663   6.223  14.650 -0.0840  0.6433 -0.1746
11452TIP3   OH255846   1.869   3.186  12.311 -0.7355  0.5440  0.2203
11452TIP3    H155847   1.890   3.235  12.231 -1.3998  0.1203 -0.2298
11452TIP3    H255848   1.800   3.237  12.353  1.3958  2.1379  1.8963
11453TIP3   OH255849   0.901   5.456  16.674 -0.2306 -0.2338 -0.5380
11453TIP3    H155850   0.914   5.466  16.579  1.1017 -2.2422 -0.5934
11453TIP3    H255851   0.937   5.537  16.712 -0.8689  0.6335 -1.7365
11454TIP3   OH255852   5.420   5.881   2.780 -0.5590  0.1306 -0.1055
11454TIP3    H155853   5.470   5.890   2.861 -0.2104  0.1044 -0.3132
11454TIP3    H255854   5.399   5.788   2.775 -0.5603  0.1287 -0.0542
11455TIP3   OH255855   5.544   0.870  13.577 -0.9504 -0.0077  0.3453
11455TIP3    H155856   5.547   0.961  13.605 -2.1979  0.7045 -1.7017
11455TIP3    H255857   5.633   0.838  13.590 -0.3504  1.6906  0.5375
11456TIP3   OH255858   6.270   3.357   5.165 -0.1898 -0.1566 -0.2291
11456TIP3    H155859   6.201   3.348   5.231  0.5921  2.1365  0.9574
11456TIP3    H255860   6.238   3.425   5.105  0.7309  0.4625 -0.0382
11457TIP3   OH255861   5.426   4.725  13.942  0.1428  0.0101  0.2380
11457TIP3    H155862   5.413   4.647  13.889 -2.7095  0.7075 -0.1799
11457TIP3    H255863   5.428   4.693  14.033  1.5921 -0.7984 -0.0649
11458TIP3   OH255864   2.022   6.686  13.060 -0.5845  0.5130 -0.2071
11458TIP3    H155865   1.962   6.670  13.133 -0.5724  1.5085  0.0200
11458TIP3    H255866   1.995   6.771  13.025  0.4972  0.8218 -0.2915
11459TIP3   OH255867   5.126   2.893  12.235 -0.3842  0.2518 -0.0286
11459TIP3    H155868   5.154   2.897  12.143 -1.9600  0.0680 -0.5319
11459TIP3    H255869   5.118   2.985  12.262  3.0798  0.3414  0.8945
11460TIP3   OH255870   0.359   1.231   5.852 -0.9960  0.5043  0.4474
11460TIP3    H155871   0.362   1.231   5.756 -2.5823  1.3986  0.3786
11460TIP3    H255872   0.442   1.191   5.879  0.7921  2.9151 -1.2456
11461TIP3   OH255873   1.540   1.309  14.802  0.4237  0.1963  0.0148
11461TIP3    H155874   1.561   1.402  14.811 -1.5761  0.6194  0.5320
11461TIP3    H255875   1.562   1.288  14.712 -0.5135  1.5455 -0.5411
11462TIP3   OH255876   3.044   0.324   6.458  0.4591 -0.1320  0.3347
11462TIP3    H155877   2.970   0.289   6.507 -0.3892  0.5049 -0.4756
11462TIP3    H255878   3.017   0.412   6.432  0.2999 -0.9577 -2.4914
11463TIP3   OH255879   4.374   4.436   2.689 -0.4620  0.5695  0.6135
11463TIP3    H155880   4.355   4.506   2.627  0.1100  0.1038 -0.0871
11463TIP3    H255881   4.452   4.465   2.735 -0.4834  0.5943  0.6335
11464TIP3   OH255882   3.965   3.089   1.880  0.1128 -0.0055  0.4854
11464TIP3    H155883   4.051   3.057   1.905 -0.1364  0.9599  2.6442
11464TIP3    H255884   3.905   3.019   1.905  0.0287  0.2890  1.1041
11465TIP3   OH255885   6.731   5.080   2.981  0.6017  0.2696 -0.5665
11465TIP3    H155886   6.816   5.045   3.007  0.6662 -0.6235 -1.9205
11465TIP3    H255887   6.750   5.171   2.956  1.1946  0.0150 -1.0594
11466TIP3   OH255888   6.789   2.268  14.541 -0.4090  0.7299  0.4228
11466TIP3    H155889   6.882   2.281  14.525  0.0564  0.6119  2.8566
11466TIP3    H255890   6.765   2.337  14.604 -1.2354 -1.1209  2.1940
11467TIP3   OH255891   6.281   3.757   2.107  0.3729 -0.2064  0.0601
11467TIP3    H155892   6.211   3.822   2.099  0.0548 -0.6201 -0.4480
11467TIP3    H255893   6.271   3.700   2.032  0.1551 -1.3431  0.9400
11468TIP3   OH255894   4.815   3.244  15.858  0.7263 -0.2009 -0.0745
11468TIP3    H155895   4.785   3.191  15.932  0.4691 -1.1577 -0.8480
11468TIP3    H255896   4.745   3.237  15.794  0.7698  0.9508 -0.2638
11469TIP3   OH255897   0.788   4.344   0.674  0.3405  0.2457  0.9441
11469TIP3    H155898   0.695   4.351   0.697  0.1428 -0.2874  0.3378
11469TIP3    H255899   0.832   4.405   0.733 -0.5107  1.2721  0.5258
11470TIP3   OH255900   2.875   2.945   2.206  0.3357  0.2215  0.0749
11470TIP3    H155901   2.936   2.970   2.275  0.3994 -0.9538  0.4660
11470TIP3    H255902   2.800   3.003   2.217 -0.1735 -0.7320  1.8989
11471TIP3   OH255903   6.525   0.619   1.532 -0.3567  0.0999 -0.6932
11471TIP3    H155904   6.595   0.674   1.497  1.6032 -2.2688 -0.6888
11471TIP3    H255905   6.455   0.680   1.555  1.6671  2.5410 -0.7832
11472TIP3   OH255906   6.539   3.427   4.632 -0.5218 -0.2845 -0.3934
11472TIP3    H155907   6.485   3.380   4.696  1.0961 -1.0588  0.4237
11472TIP3    H255908   6.622   3.380   4.631  0.0318  0.6733 -1.9160
11473TIP3   OH255909   1.055   2.955   1.569 -0.0059 -0.1275  0.5550
11473TIP3    H155910   1.070   2.932   1.661 -0.7913 -0.2441  0.6570
11473TIP3    H255911   0.972   3.002   1.569 -0.0514 -0.1988 -0.1085
11474TIP3   OH255912   4.587   2.775   5.349 -0.1317 -0.0335  0.2092
11474TIP3    H155913   4.537   2.805   5.425  1.6360  0.4317  1.2046
11474TIP3    H255914   4.650   2.713   5.384  1.2808  0.8424 -0.7185
11475TIP3   OH255915   1.082   3.559  11.539 -0.3066 -0.0232  0.5053
11475TIP3    H155916   1.015   3.626  11.555  0.0939  0.3064  0.7904
11475TIP3    H255917   1.064   3.529  11.450 -1.4471 -0.6278  0.9304
11476TIP3   OH255918   4.675   1.726  16.805 -0.2134 -0.0123  0.0863
11476TIP3    H155919   4.584   1.742  16.781 -0.5633 -1.8850  0.0822
11476TIP3    H255920   4.717   1.700  16.723  0.0615 -0.2851  0.3160
11477TIP3   OH255921   6.285   3.061  11.755  0.1713  0.2506  0.2056
11477TIP3    H155922   6.258   3.058  11.663 -2.1934  2.5028  0.7927
11477TIP3    H255923   6.229   3.127  11.795  1.0465 -0.8195  3.3380
11478TIP3   OH255924   1.211   5.285  13.437 -0.2381  0.3553  0.3033
11478TIP3    H155925   1.136   5.237  13.404  0.4519 -1.3359  1.1192
11478TIP3    H255926   1.287   5.236  13.405  0.5078  1.4698  0.3304
11479TIP3   OH255927   3.418   4.450  12.700 -0.1950 -0.1807  0.1186
11479TIP3    H155928   3.334   4.419  12.667  0.6109 -0.0990 -2.0882
11479TIP3    H255929   3.397   4.494  12.783 -2.1485 -1.1997  0.1811
11480TIP3   OH255930   3.787   3.847  14.614 -1.0856  0.0681  0.3075
11480TIP3    H155931   3.873   3.886  14.629 -1.3648  0.3674  1.1616
11480TIP3    H255932   3.727   3.903  14.663 -1.6994 -0.4347  0.1245
11481TIP3   OH255933   1.739   4.206  14.137 -0.3986  0.3570  0.7360
11481TIP3    H155934   1.753   4.216  14.231  1.3142  0.5788  0.4699
11481TIP3    H255935   1.677   4.276  14.115  2.2395  2.8593  1.0145
11482TIP3   OH255936   2.090   5.272   3.934 -0.6196  0.3647 -0.1288
11482TIP3    H155937   2.035   5.251   4.010  0.5508 -0.4702  0.4952
11482TIP3    H255938   2.179   5.272   3.968 -0.0230 -0.7401 -1.6623
11483TIP3   OH255939   0.993   2.067  10.783  0.3454  0.3645  0.0144
11483TIP3    H155940   0.951   2.092  10.866  0.2247 -0.0710  0.0856
11483TIP3    H255941   0.998   1.972  10.787  2.1010  0.4614  0.3722
11484TIP3   OH255942   1.905   2.746  12.560 -0.0644 -0.0406 -0.0701
11484TIP3    H155943   1.919   2.780  12.472  0.3158  0.2523  0.1007
11484TIP3    H255944   1.967   2.795  12.615 -2.3734  1.9083  0.8486
11485TIP3   OH255945   3.389   1.756  13.811  0.3150  0.1318 -0.2944
11485TIP3    H155946   3.375   1.839  13.856  0.8937  1.6191 -2.7150
11485TIP3    H255947   3.328   1.759  13.737  2.1214 -0.4343 -1.8452
11486TIP3   OH255948   2.011   5.440   1.884 -0.3295  0.0791 -0.3301
11486TIP3    H155949   2.099   5.478   1.889 -0.2843  0.0208 -0.6785
11486TIP3    H255950   1.967   5.471   1.963  0.6235 -1.4663  0.8560
11487TIP3   OH255951   3.016   0.577  13.273 -0.4480 -0.0609  0.0500
11487TIP3    H155952   3.044   0.558  13.183  2.2663 -2.2111  1.2777
11487TIP3    H255953   3.074   0.647  13.302 -1.3234  0.6339  0.1629
11488TIP3   OH255954   3.711   3.156  14.020  0.4227  0.3295  0.0130
11488TIP3    H155955   3.759   3.074  14.013  0.3745  0.3765 -0.9244
11488TIP3    H255956   3.664   3.164  13.937 -0.2436  0.8824  0.4359
11489TIP3   OH255957   0.219   4.837   3.751  0.4087 -0.1767  0.5045
11489TIP3    H155958   0.186   4.845   3.840 -4.9484  1.9459 -1.4442
11489TIP3    H255959   0.218   4.927   3.717  1.3390 -1.0646 -1.9787
11490TIP3   OH255960   5.246   4.649   1.940  0.5127  0.7251 -0.0109
11490TIP3    H155961   5.201   4.648   1.855 -1.4621  0.6330  1.0127
11490TIP3    H255962   5.273   4.558   1.953 -0.4861  0.4338  0.1165
11491TIP3   OH255963   0.228   5.726   1.771 -0.9389  0.3941 -0.1407
11491TIP3    H155964   0.181   5.665   1.715 -0.3599 -1.7842  1.6624
11491TIP3    H255965   0.318   5.694   1.771 -1.1059 -0.2349  2.7189
11492TIP3   OH255966   4.442   1.726   4.208  0.0957  0.1128  0.0911
11492TIP3    H155967   4.444   1.636   4.241  0.3275 -0.7865 -2.2653
11492TIP3    H255968   4.351   1.740   4.183  0.1321  0.4084  0.1191
11493TIP3   OH255969   0.345   0.730  14.520  0.2842  0.1380 -0.1294
11493TIP3    H155970   0.250   0.742  14.530  0.5818  1.3629  1.3868
11493TIP3    H255971   0.383   0.804  14.566  2.0120 -0.7767 -0.0589
11494TIP3   OH255972   6.156   2.973   5.098  0.2874  0.1398 -1.1434
11494TIP3    H155973   6.174   3.056   5.142  2.6609 -0.8122 -0.2032
11494TIP3    H255974   6.227   2.965   5.034  0.4077 -1.4071 -0.8276
11495TIP3   OH255975   5.885   3.212   0.593  0.5295  0.1466 -0.1550
11495TIP3    H155976   5.950   3.212   0.523 -0.1897 -0.2235 -0.8190
11495TIP3    H255977   5.902   3.131   0.641 -0.4066 -0.6880 -1.2233
11496TIP3   OH255978   3.182   3.448   4.734  0.6257  0.1351  0.4266
11496TIP3    H155979   3.098   3.495   4.727  0.3975 -0.2512  0.5868
11496TIP3    H255980   3.159   3.356   4.726  1.0374  0.0267  0.4836
11497TIP3   OH255981   2.910   4.590  15.169 -0.8284 -0.5587  0.2191
11497TIP3    H155982   2.851   4.516  15.175 -1.6346 -0.1832 -2.2461
11497TIP3    H255983   2.998   4.552  15.168 -1.2035 -1.4124 -0.0956
11498TIP3   OH255984   4.119   3.949  12.367  0.0881 -0.1814 -0.8955
11498TIP3    H155985   4.047   3.982  12.312 -0.3604 -0.8122 -0.6995
11498TIP3    H255986   4.094   3.973  12.456 -0.0396 -0.6805 -0.7941
11499TIP3   OH255987   5.894   4.743   0.857  0.4620  0.1191  0.2128
11499TIP3    H155988   5.817   4.799   0.847  0.7519  0.0233 -2.9931
11499TIP3    H255989   5.867   4.658   0.825  1.6936 -0.1041 -0.2749
11500TIP3   OH255990   6.691   3.077  10.834  0.0704  0.0193  0.1683
11500TIP3    H155991   6.769   3.130  10.820  1.2042 -0.5504  3.9727
11500TIP3    H255992   6.618   3.137  10.818  1.2948  1.5334  0.2023
11501TIP3   OH255993   3.362   1.445   3.038  0.0295  0.0163  0.2985
11501TIP3    H155994   3.289   1.500   3.063 -1.5712 -0.6675 -2.6528
11501TIP3    H255995   3.390   1.478   2.953  0.3131 -2.4710 -0.6269
11502TIP3   OH255996   1.869   4.378   0.872 -1.1817 -0.2551 -0.5638
11502TIP3    H155997   1.917   4.324   0.935  0.4846  0.5494 -1.1127
11502TIP3    H255998   1.937   4.425   0.824 -2.4290 -0.8065 -2.9289
11503TIP3   OH255999   2.471   2.708  17.139  0.5019  0.0342  0.3942
11503TIP3    H156000   2.447   2.764  17.213 -1.5349 -1.3041  0.7684
11503TIP3    H256001   2.425   2.746  17.064 -0.2006 -0.6592  0.4782
11504TIP3   OH256002   0.983   0.367  12.166 -0.2445  0.0609  0.1440
11504TIP3    H156003   0.892   0.363  12.135 -0.0228  1.1273 -0.6533
11504TIP3    H256004   1.034   0.329  12.094 -0.0381 -0.3241  0.4945
11505TIP3   OH256005   4.201   5.656  13.246  0.4047  0.2061 -0.4561
11505TIP3    H156006   4.108   5.638  13.257  0.2981  0.7649 -0.4383
11505TIP3    H256007   4.216   5.737  13.294  0.6732  0.7175 -1.3867
11506TIP3   OH256008   5.368   3.572  13.300 -0.2506  0.0391 -0.2491
11506TIP3    H156009   5.279   3.588  13.332  0.2207 -0.1211  1.1592
11506TIP3    H256010   5.398   3.657  13.268 -0.7479  0.1952 -0.3011
11507TIP3   OH256011   1.382   4.413   4.494  0.4252  0.3384  0.3314
11507TIP3    H156012   1.303   4.361   4.476  0.6456  1.2439 -3.7990
11507TIP3    H256013   1.449   4.347   4.514 -0.7284 -0.5710  1.3580
11508TIP3   OH256014   6.728   0.182  14.787 -0.2920 -0.3159 -0.0185
11508TIP3    H156015   6.794   0.251  14.784 -0.6036 -0.0479 -1.1852
11508TIP3    H256016   6.763   0.116  14.847  1.3065 -0.4563 -1.0877
11509TIP3   OH256017   5.142   0.031  15.557  0.0491 -0.4265 -0.7531
11509TIP3    H156018   5.221   0.031  15.504  0.7328 -0.4780  0.2517
11509TIP3    H256019   5.160  -0.031  15.627 -2.1387 -2.9944 -2.3529
11510TIP3   OH256020   0.636   4.609  11.589 -0.3160  0.4350  0.7477
11510TIP3    H156021   0.559   4.628  11.536 -0.6796  0.8959  1.4295
11510TIP3    H256022   0.697   4.566  11.529 -0.1898  2.1339 -0.3824
11511TIP3   OH256023   5.933   1.488  14.647 -1.1957  0.1514  0.5916
11511TIP3    H156024   5.861   1.457  14.592 -0.5228 -0.2861 -0.0490
11511TIP3    H256025   5.952   1.576  14.615 -1.9040  0.5406  1.2230
11512TIP3   OH256026   0.165   2.554   4.310 -0.3864 -0.0791  0.6227
11512TIP3    H156027   0.209   2.510   4.236  2.1876  2.5162  0.5046
11512TIP3    H256028   0.074   2.562   4.283  0.2465 -0.3888 -1.7167
11513TIP3   OH256029   6.243   4.653  11.796  0.1743  0.6000  0.0835
11513TIP3    H156030   6.216   4.644  11.704  2.3691  0.1377 -0.5312
11513TIP3    H256031   6.284   4.740  11.800  0.1750  0.5744  0.6142
11514TIP3   OH256032   1.477   1.688   1.180 -0.2751  0.0454  0.2469
11514TIP3    H156033   1.560   1.708   1.225  1.9004 -2.3569 -2.4997
11514TIP3    H256034   1.458   1.767   1.130  0.1110  0.7799  1.2262
11515TIP3   OH256035   1.613   3.834  16.811  0.4860  1.1512  0.2953
11515TIP3    H156036   1.631   3.740  16.810  2.2634  1.4694 -1.4752
11515TIP3    H256037   1.520   3.840  16.790  0.3591 -0.2074  0.4003
11516TIP3   OH256038   1.183   6.090   2.548  0.2575  0.0202 -0.2777
11516TIP3    H156039   1.252   6.024   2.560  1.6943  1.3765 -0.9042
11516TIP3    H256040   1.117   6.068   2.614  0.5809 -2.2029 -0.6653
11517TIP3   OH256041   5.883   3.823  16.252  0.2079  0.7420  0.2290
11517TIP3    H156042   5.945   3.786  16.189 -0.2131  2.5492 -1.3078
11517TIP3    H256043   5.935   3.840  16.331  0.5595 -2.3618  0.7048
11518TIP3   OH256044   1.761   1.904  15.521 -0.2654 -0.3742 -0.2680
11518TIP3    H156045   1.812   1.854  15.457  0.1616 -0.5699  0.2163
11518TIP3    H256046   1.720   1.837  15.576  0.3709 -0.2013  0.4331
11519TIP3   OH256047   5.695   3.199  17.188  0.3726 -0.0327 -0.1524
11519TIP3    H156048   5.747   3.137  17.240  2.5244  0.8956 -1.1245
11519TIP3    H256049   5.668   3.149  17.112 -0.2676 -0.5639  0.4209
11520TIP3   OH256050   3.129   4.696  15.957  0.2240 -0.3327  0.0659
11520TIP3    H156051   3.064   4.753  15.999  1.1217 -0.3729  1.5382
11520TIP3    H256052   3.077   4.638  15.901 -0.8131  1.0627 -0.4495
11521TIP3   OH256053   0.549   0.557  14.530 -0.3976 -0.1107 -0.0606
11521TIP3    H156054   0.522   0.465  14.539  0.9009 -0.3231  1.8902
11521TIP3    H256055   0.467   0.606  14.532 -1.1869 -1.2929 -2.2764
11522TIP3   OH256056   1.940   3.205  14.921  0.4626  0.2797 -0.1213
11522TIP3    H156057   1.928   3.207  14.826 -0.6418 -1.3436 -0.0304
11522TIP3    H256058   2.016   3.147  14.934 -0.7724 -1.3432  0.0770
11523TIP3   OH256059   3.206   1.396   1.884  0.4393 -0.1729 -0.4933
11523TIP3    H156060   3.240   1.382   1.795 -3.0097 -0.6995 -1.8205
11523TIP3    H256061   3.112   1.385   1.875 -0.0656  0.6578  3.1146
11524TIP3   OH256062   4.673   6.627   1.775 -0.3557  0.0873 -0.7598
11524TIP3    H156063   4.744   6.575   1.737  0.2058  0.4010 -0.1349
11524TIP3    H256064   4.648   6.687   1.705  1.5728  1.5601 -0.2247
11525TIP3   OH256065   2.042   1.502   6.383  0.1241  0.1794 -0.5024
11525TIP3    H156066   2.021   1.499   6.477 -0.3893 -1.2218 -0.6515
11525TIP3    H256067   2.118   1.444   6.374 -0.1760 -0.1357 -1.0386
11526TIP3   OH256068   0.345   0.519  13.323  0.0123 -0.1697  0.6753
11526TIP3    H156069   0.255   0.486  13.316 -0.0946  0.5416 -1.5229
11526TIP3    H256070   0.359   0.567  13.242  2.4315 -0.3822  0.9526
11527TIP3   OH256071   6.619   1.466   4.526  0.4218  0.1719  0.2653
11527TIP3    H156072   6.571   1.547   4.510  0.8519  0.1274 -1.2922
11527TIP3    H256073   6.665   1.481   4.609 -0.0947  1.2209  0.3719
11528TIP3   OH256074   3.694   4.487   1.740  0.0757  0.3061  0.0004
11528TIP3    H156075   3.763   4.495   1.805 -0.5983  1.6047  0.5730
11528TIP3    H256076   3.654   4.574   1.736 -1.7313 -0.5007 -0.0905
11529TIP3   OH256077   2.160   5.247  16.851 -0.1066  0.3251 -0.4596
11529TIP3    H156078   2.157   5.158  16.815  1.1921 -0.2646  0.8126
11529TIP3    H256079   2.120   5.238  16.937  2.2699  0.4200  0.7010
11530TIP3   OH256080   6.050   5.144  12.377  0.1104  0.4365 -0.2083
11530TIP3    H156081   6.126   5.201  12.366  0.7298 -0.2615  0.3893
11530TIP3    H256082   5.985   5.179  12.316  0.4775  1.7788  0.1558
11531TIP3   OH256083   6.661   5.040  17.123 -0.4304 -0.0608  0.2059
11531TIP3    H156084   6.627   5.129  17.126  1.0076  0.6649 -2.4639
11531TIP3    H256085   6.592   4.989  17.081  0.2483  0.6621 -1.8831
11532TIP3   OH256086   6.402   5.186  13.065  0.1160 -0.1838  0.5701
11532TIP3    H156087   6.453   5.158  13.141  0.4708 -1.7981 -0.2158
11532TIP3    H256088   6.444   5.267  13.036 -0.0679  0.4795  2.1077
11533TIP3   OH256089   3.331   6.587  11.895 -0.0327 -0.2226  0.5256
11533TIP3    H156090   3.309   6.573  11.987  0.5663  0.9078  0.8509
11533TIP3    H256091   3.257   6.637  11.859  0.1522  0.1179  0.6192
11534TIP3   OH256092   3.408   4.679   5.377  0.1613 -0.9863 -0.2394
11534TIP3    H156093   3.395   4.594   5.335  0.9179 -1.5730  0.6804
11534TIP3    H256094   3.397   4.660   5.471 -0.4094  0.0780 -0.0885
11535TIP3   OH256095   1.462   3.098   3.281  0.3066 -0.1504 -0.4399
11535TIP3    H156096   1.504   3.167   3.332  0.1405 -0.7354  0.4988
11535TIP3    H256097   1.432   3.141   3.201  0.7617  0.7221 -0.1399
11536TIP3   OH256098   5.687   4.034  10.965  0.5280  0.2414  0.4260
11536TIP3    H156099   5.732   3.951  10.978 -0.1906  0.0566  1.7629
11536TIP3    H256100   5.749   4.101  10.996  1.1175  0.2288 -0.6775
11537TIP3   OH256101   2.161   2.115   2.317  0.0154 -0.6575 -0.1852
11537TIP3    H156102   2.212   2.086   2.393  1.0747  0.4717 -0.4517
11537TIP3    H256103   2.208   2.192   2.285 -1.1945 -0.3205 -1.1655
11538TIP3   OH256104   1.846   2.038  16.433  0.1237  0.3778  0.4888
11538TIP3    H156105   1.797   2.107  16.388  1.0775  0.4060 -0.5422
11538TIP3    H256106   1.839   1.962  16.376  1.3038  0.3947  0.2962
11539TIP3   OH256107   4.296   0.977   3.384 -0.6567 -0.3963  0.3212
11539TIP3    H156108   4.240   1.048   3.354 -0.7271  0.4737  2.4178
11539TIP3    H256109   4.359   1.019   3.442 -0.1103 -1.9099  0.8527
11540TIP3   OH256110   1.339   4.381  12.080 -0.0703 -0.3458 -0.0223
11540TIP3    H156111   1.336   4.378  12.175  0.3579 -0.9131 -0.0171
11540TIP3    H256112   1.432   4.392  12.059 -0.0747 -0.9415 -0.3799
11541TIP3   OH256113   4.937   0.125  12.193 -0.3975 -0.4781  0.2476
11541TIP3    H156114   4.880   0.166  12.259  1.8849  1.2179  1.2328
11541TIP3    H256115   4.991   0.064  12.242  1.9371  1.4472  0.1312
11542TIP3   OH256116   4.595   4.040  12.032  0.5147  0.3989 -0.4054
11542TIP3    H156117   4.522   4.061  11.974  0.3477 -0.3329 -0.4645
11542TIP3    H256118   4.673   4.044  11.975  0.3290 -0.5297 -0.7374
11543TIP3   OH256119   2.486   0.453  15.667 -0.5573 -0.3862  0.0480
11543TIP3    H156120   2.524   0.532  15.705 -2.5568 -0.0835  1.5489
11543TIP3    H256121   2.519   0.450  15.578 -0.0242  1.8582  0.1429
11544TIP3   OH256122   1.071   4.522   4.958  0.0411  0.0802  0.6082
11544TIP3    H156123   1.138   4.559   4.901 -0.6932 -0.5993 -0.6983
11544TIP3    H256124   1.069   4.429   4.935 -1.1424  0.0439  0.8585
11545TIP3   OH256125   2.753   2.787   6.451 -0.3908 -0.0622 -0.1290
11545TIP3    H156126   2.691   2.722   6.485 -0.2664  0.2093  0.6343
11545TIP3    H256127   2.818   2.796   6.521 -0.4481  0.9419 -0.2034
11546TIP3   OH256128   2.798   4.114  11.597 -0.4616 -0.3642 -0.1087
11546TIP3    H156129   2.723   4.132  11.653 -2.1256 -2.2083 -1.7067
11546TIP3    H256130   2.808   4.019  11.600  0.3203 -0.3583 -1.8147
11547TIP3   OH256131   4.159   5.086   4.755 -0.2931  0.3953  0.1225
11547TIP3    H156132   4.172   5.015   4.691  1.6648  2.1000 -1.4309
11547TIP3    H256133   4.209   5.058   4.832  0.9450  0.3251 -0.6879
11548TIP3   OH256134   3.500   2.736  12.388  0.4943 -0.0163 -0.0615
11548TIP3    H156135   3.513   2.694  12.473 -0.0888  0.4525  0.2592
11548TIP3    H256136   3.582   2.720  12.341  0.0958 -1.9726 -0.1481
11549TIP3   OH256137   3.947   6.486  12.304  0.1497  0.0051  0.3720
11549TIP3    H156138   3.922   6.406  12.257  0.8660 -0.2264  0.3814
11549TIP3    H256139   4.015   6.458  12.366  0.2641  0.5827  0.5148
11550TIP3   OH256140   5.192   1.426  15.488  0.1121 -0.1677  0.5989
11550TIP3    H156141   5.127   1.356  15.484  0.9047 -0.9532  1.1768
11550TIP3    H256142   5.179   1.466  15.574 -0.3347  0.3849  0.2700
11551TIP3   OH256143   6.503   2.760  10.653 -0.0600 -0.4040 -0.2034
11551TIP3    H156144   6.536   2.818  10.584 -1.7007 -0.3872 -1.0096
11551TIP3    H256145   6.551   2.679  10.641 -0.7245 -0.6005 -1.7776
11552TIP3   OH256146   0.632   5.119  11.719  0.2543  1.1895  0.4074
11552TIP3    H156147   0.594   5.142  11.804 -0.5438  2.2625 -0.2196
11552TIP3    H256148   0.565   5.065  11.677 -0.1805  2.2928 -0.3233
11553TIP3   OH256149   3.370   0.202   0.904  0.6297 -0.0268 -0.6257
11553TIP3    H156150   3.457   0.166   0.921  0.6912  0.0483 -0.7778
11553TIP3    H256151   3.310   0.138   0.940  0.7511 -0.0389 -0.4431
11554TIP3   OH256152   6.034   4.175   1.789  0.0195  0.3234  0.3094
11554TIP3    H156153   5.939   4.173   1.774 -0.3468  0.9273  2.3634
11554TIP3    H256154   6.050   4.263   1.824  1.1235 -0.2991  1.3638
11555TIP3   OH256155   6.064   4.914  12.133 -0.1353  0.2471 -0.7358
11555TIP3    H156156   6.088   4.940  12.044 -1.0388 -0.4069 -1.1726
11555TIP3    H256157   6.004   4.983  12.163  1.5196  1.3922  0.0201
11556TIP3   OH256158   6.144   1.098   1.097  0.1758  0.4082  0.0699
11556TIP3    H156159   6.190   1.020   1.067 -0.4200 -0.0683  0.3900
11556TIP3    H256160   6.214   1.160   1.119  0.6426  0.0439 -0.3877
11557TIP3   OH256161   4.633   2.974  12.379 -0.1602 -0.4944  0.1054
11557TIP3    H156162   4.651   3.044  12.317  0.0877 -1.8217 -1.3732
11557TIP3    H256163   4.542   2.988  12.404  0.3540  1.2689  1.0614
11558TIP3   OH256164   1.209   3.742  14.538  0.5739  0.7432  0.1186
11558TIP3    H156165   1.264   3.817  14.560  2.6654 -0.8907  0.5569
11558TIP3    H256166   1.270   3.672  14.517 -1.3417 -0.8637 -0.2796
11559TIP3   OH256167   4.983   0.700   3.923 -0.5700  0.5937  0.2601
11559TIP3    H156168   5.042   0.683   3.996 -1.2388  3.0230  1.3925
11559TIP3    H256169   4.999   0.791   3.899 -0.6976 -0.0154 -2.3461
11560TIP3   OH256170   5.974   4.435   0.290 -0.4049 -0.5980  0.2339
11560TIP3    H156171   5.964   4.378   0.366 -1.7371 -0.4618  0.1733
11560TIP3    H256172   6.006   4.518   0.327 -0.2123 -0.8046  0.5351
11561TIP3   OH256173   2.587   2.526  13.135 -0.0410  0.2665 -0.2660
11561TIP3    H156174   2.595   2.435  13.164 -0.5457  0.5332  0.7392
11561TIP3    H256175   2.673   2.546  13.097 -0.1678 -0.8596 -1.1837
11562TIP3   OH256176   4.301   4.376   3.794  0.0495 -0.2385  0.3186
11562TIP3    H156177   4.214   4.390   3.831  1.5061 -0.2236  3.9269
11562TIP3    H256178   4.326   4.461   3.759 -0.9094  0.0177  0.2244
11563TIP3   OH256179   3.666   5.179   3.085  0.1795  0.3326 -0.3181
11563TIP3    H156180   3.733   5.155   3.021  0.6844 -1.2900  0.7875
11563TIP3    H256181   3.710   5.237   3.147  0.0455  0.8006 -0.6539
11564TIP3   OH256182   3.996   5.235  13.850  0.2236 -0.0045 -0.1128
11564TIP3    H156183   4.040   5.244  13.934  0.7921 -0.8611 -0.3111
11564TIP3    H256184   3.923   5.298  13.854  1.4618  1.4460  0.2018
11565TIP3   OH256185   5.920   2.018  11.734 -0.5533  0.4600 -0.4399
11565TIP3    H156186   6.009   2.033  11.701  0.5075 -1.0398  1.6400
11565TIP3    H256187   5.901   1.927  11.711 -0.7024  0.1103  1.0502
11566TIP3   OH256188   5.830   2.123   3.153 -0.1036 -0.9692 -0.7920
11566TIP3    H156189   5.753   2.100   3.204  0.1230 -0.5601 -0.2613
11566TIP3    H256190   5.797   2.177   3.081 -0.3501 -1.0498 -0.7379
11567TIP3   OH256191   5.278   2.082   4.218 -0.0010  0.0139 -0.4294
11567TIP3    H156192   5.330   2.097   4.139 -0.7640 -0.5620 -1.0539
11567TIP3    H256193   5.340   2.045   4.281  0.9138  1.7161 -0.3057
11568TIP3   OH256194   2.647   2.988   0.944 -0.8237 -0.1366  0.1455
11568TIP3    H156195   2.641   3.059   1.009 -1.6901 -1.1240  1.1603
11568TIP3    H256196   2.621   3.029   0.862  0.0787  1.0852  0.4445
11569TIP3   OH256197   1.648   1.830  15.995  0.0115  0.3305  0.7365
11569TIP3    H156198   1.652   1.799  16.086  0.7361  0.5944  0.8042
11569TIP3    H256199   1.738   1.859  15.976  0.1062 -0.6683 -0.4030
11570TIP3   OH256200   5.263   1.980  11.318  0.1881 -0.1184 -0.2111
11570TIP3    H156201   5.287   1.907  11.261 -0.1819 -0.7775  0.4626
11570TIP3    H256202   5.235   1.938  11.399 -0.4551  0.7570  0.0252
11571TIP3   OH256203   5.168   2.833   0.055  0.1268  0.1463  0.4363
11571TIP3    H156204   5.124   2.757   0.093  1.1248 -1.3471 -1.3331
11571TIP3    H256205   5.110   2.860  -0.017  0.8678 -0.3052 -0.3351
11572TIP3   OH256206   4.977   1.776   6.146  0.0881 -0.2960  0.7025
11572TIP3    H156207   5.060   1.797   6.189  0.6843 -2.4082  0.6373
11572TIP3    H256208   4.940   1.706   6.199  0.1280 -1.9113 -1.3542
11573TIP3   OH256209   2.467   2.824  11.380  0.2297 -0.0499  0.4446
11573TIP3    H156210   2.477   2.774  11.299 -0.2208 -1.4933  1.2681
11573TIP3    H256211   2.518   2.904  11.365 -1.1265  0.4206 -1.8332
11574TIP3   OH256212   0.403   0.669  16.916 -0.0895 -0.3193 -0.3446
11574TIP3    H156213   0.321   0.716  16.908 -0.6804 -1.3111 -0.2115
11574TIP3    H256214   0.471   0.737  16.910 -0.8401  0.2977 -2.2902
11575TIP3   OH256215   2.146   3.131  15.518  0.2072 -0.1121 -0.4202
11575TIP3    H156216   2.097   3.194  15.571 -0.1686 -0.7311 -0.0293
11575TIP3    H256217   2.230   3.175  15.501  1.4827 -0.9924  3.0662
11576TIP3   OH256218   1.527   5.785   6.508  0.0257  0.2314  0.4038
11576TIP3    H156219   1.580   5.860   6.533  1.2201 -0.0675 -1.1754
11576TIP3    H256220   1.588   5.723   6.468 -0.7950 -1.9384  2.3920
11577TIP3   OH256221   0.843   5.265  15.308  0.5260  0.1374  0.3175
11577TIP3    H156222   0.851   5.232  15.398  0.2734 -0.2662  0.1917
11577TIP3    H256223   0.849   5.187  15.253  0.0781  0.3166  0.0101
11578TIP3   OH256224   5.601   3.772  16.219 -0.1689 -0.2548 -0.3770
11578TIP3    H156225   5.695   3.784  16.210  0.2221 -2.8061 -0.0989
11578TIP3    H256226   5.572   3.847  16.271  2.1130 -0.8560  1.8419
11579TIP3   OH256227   2.847   4.437  11.169 -0.0578 -0.7105 -0.4623
11579TIP3    H156228   2.805   4.453  11.085 -0.0908 -1.0351 -0.5079
11579TIP3    H256229   2.780   4.459  11.234 -0.9489 -2.9912 -0.5561
11580TIP3   OH256230   4.126   6.310  15.858 -0.0254 -0.5472  0.4145
11580TIP3    H156231   4.202   6.260  15.888 -0.9533 -2.5117 -0.3894
11580TIP3    H256232   4.100   6.364  15.933  0.3012 -2.1611  1.7041
11581TIP3   OH256233   5.304   5.932  11.498 -0.2644 -0.2914  0.1611
11581TIP3    H156234   5.342   5.848  11.473  0.2876  0.7284 -2.6309
11581TIP3    H256235   5.270   5.918  11.586 -0.0262 -3.3703 -0.1867
11582TIP3   OH256236   2.092   0.337  13.489 -0.2500 -0.3147  0.3484
11582TIP3    H156237   2.147   0.319  13.413  1.1023  0.0386  1.2031
11582TIP3    H256238   2.036   0.260  13.498 -2.0501  0.6500 -2.3513
11583TIP3   OH256239   3.020   3.992  13.102 -0.0276 -0.3241  0.1605
11583TIP3    H156240   2.992   3.933  13.173  2.7090  0.2117  1.7265
11583TIP3    H256241   3.068   4.062  13.146 -1.1071  1.7884 -1.9384
11584TIP3   OH256242   0.068   4.527   0.980 -0.1898  1.4124 -0.1124
11584TIP3    H156243  -0.007   4.511   0.922 -1.0727 -0.0606  1.3670
11584TIP3    H256244   0.141   4.483   0.937 -1.1060 -0.7342  0.4525
11585TIP3   OH256245   4.229   4.073  10.996  0.5338 -0.4864  0.5766
11585TIP3    H156246   4.271   4.128  10.930  1.0759 -0.9938  0.4951
11585TIP3    H256247   4.163   4.129  11.036  1.1888  0.2742  0.5969
11586TIP3   OH256248   4.093   0.024   0.282  0.0563  0.5288  0.0971
11586TIP3    H156249   4.042   0.092   0.238 -0.1687  0.2782 -0.0319
11586TIP3    H256250   4.062  -0.058   0.243  0.3121  0.3520  0.2661
11587TIP3   OH256251   3.713   4.247   4.955  0.2444  0.0971 -0.4638
11587TIP3    H156252   3.698   4.242   4.860 -0.0861 -0.3560 -0.3884
11587TIP3    H256253   3.695   4.339   4.977 -0.3044  0.0577 -0.7362
11588TIP3   OH256254   5.132   5.467  15.699  0.3660  0.1377  0.6024
11588TIP3    H156255   5.192   5.452  15.772 -0.3323 -0.0169  1.1622
11588TIP3    H256256   5.080   5.543  15.727  0.3027  0.2641  0.1343
11589TIP3   OH256257   4.544   5.711  12.002 -0.0240  0.3948  0.1719
11589TIP3    H156258   4.610   5.758  12.053 -0.9369  2.1363 -0.1963
11589TIP3    H256259   4.476   5.690  12.065  1.0455 -1.7939  0.6431
11590TIP3   OH256260   0.580   1.865  15.280 -0.0639  0.0156 -0.4034
11590TIP3    H156261   0.659   1.917  15.294  0.2368 -0.3112 -0.8821
11590TIP3    H256262   0.611   1.785  15.239 -0.5700 -0.3893  0.0000
11591TIP3   OH256263   1.043   5.241   0.625  0.1941  0.4162  0.2040
11591TIP3    H156264   1.071   5.164   0.576  0.0442  0.7600 -0.4277
11591TIP3    H256265   1.057   5.314   0.564  0.3036  0.8779  0.7846
11592TIP3   OH256266   6.004   2.108   0.977 -0.2838  0.5707 -0.3614
11592TIP3    H156267   5.964   2.157   0.905 -0.2503  0.2748 -0.5849
11592TIP3    H256268   5.979   2.017   0.960 -1.4537  0.6717  0.7782
11593TIP3   OH256269   0.715   6.740  15.776 -0.1748  0.3322 -0.2542
11593TIP3    H156270   0.797   6.773  15.814 -0.5971  1.1201 -0.0287
11593TIP3    H256271   0.733   6.647  15.759  1.2554  0.8144 -1.5165
11594TIP3   OH256272   5.239   0.341  15.405 -0.2255  0.5237 -0.0274
11594TIP3    H156273   5.159   0.297  15.431  0.4267 -0.7895 -0.2344
11594TIP3    H256274   5.245   0.416  15.465  0.3125 -1.4412  2.4425
11595TIP3   OH256275   3.990   4.614   3.578 -0.4709  0.3070 -0.3347
11595TIP3    H156276   3.979   4.567   3.495 -0.0403  0.8024 -0.6789
11595TIP3    H256277   4.056   4.681   3.559  0.0066  0.0972  0.5436
11596TIP3   OH256278   3.873   1.947  11.168  0.0597 -0.3245  0.6659
11596TIP3    H156279   3.899   2.038  11.178  4.5378 -1.6161  2.2352
11596TIP3    H256280   3.916   1.918  11.088 -1.0392 -1.1976  0.3687
11597TIP3   OH256281   0.593   6.696  12.818  0.5792  0.1106  0.2844
11597TIP3    H156282   0.519   6.687  12.878 -0.1512  0.6978 -0.5142
11597TIP3    H256283   0.619   6.788  12.826  0.0503  0.3640 -0.7702
11598TIP3   OH256284   1.952   5.959  12.652  0.0341 -0.9832  0.6969
11598TIP3    H156285   2.024   5.905  12.686  0.2972  0.7175  2.9244
11598TIP3    H256286   1.983   6.049  12.663 -0.6466 -0.3252 -2.4130
11599TIP3   OH256287   2.670   6.033   4.469  0.2137 -0.1154 -0.2208
11599TIP3    H156288   2.594   5.987   4.504  0.9575 -1.0687  0.1507
11599TIP3    H256289   2.687   5.991   4.385 -0.4519  0.9624 -0.9146
11600TIP3   OH256290   0.297   5.999  16.620  0.6728 -0.3944 -0.0021
11600TIP3    H156291   0.242   6.077  16.634  0.9967 -0.1916  0.1601
11600TIP3    H256292   0.242   5.940  16.569  0.5913  0.1354 -0.5402
11601TIP3   OH256293   4.554   0.472  11.445  0.3910  0.2876 -0.1161
11601TIP3    H156294   4.491   0.545  11.440 -0.9742 -0.9339 -1.1509
11601TIP3    H256295   4.599   0.486  11.529 -0.9700  1.4216  0.4590
11602TIP3   OH256296   2.507   3.234  14.471  0.1833 -0.3015 -0.5616
11602TIP3    H156297   2.574   3.267  14.411  1.5426 -1.3638  0.3070
11602TIP3    H256298   2.536   3.264  14.558 -0.2350 -1.0940 -0.1361
11603TIP3   OH256299   1.206   4.490   3.189 -0.4684 -0.1477 -0.0420
11603TIP3    H156300   1.193   4.397   3.170 -0.7941 -0.2243  0.5234
11603TIP3    H256301   1.197   4.496   3.285 -3.7717  0.9424 -0.3443
11604TIP3   OH256302   4.044   0.286  13.775 -0.5765 -0.1520 -0.2997
11604TIP3    H156303   4.079   0.197  13.780 -0.8192 -0.2446 -0.2300
11604TIP3    H256304   3.989   0.295  13.853  0.4127  0.4854  0.3266
11605TIP3   OH256305   0.789   2.210   4.021  0.1527  0.1552 -0.0903
11605TIP3    H156306   0.768   2.284   3.965  0.3676 -0.7336 -1.3758
11605TIP3    H256307   0.807   2.249   4.107 -0.0866  1.5422 -0.6569
11606TIP3   OH256308   3.729   2.521  12.841  0.4052 -0.2580 -0.0768
11606TIP3    H156309   3.714   2.527  12.935 -0.4661 -1.4972 -0.1198
11606TIP3    H256310   3.770   2.436  12.828  2.0031  0.5819 -0.6567
11607TIP3   OH256311   2.669   5.238  12.721 -0.0114  0.7231 -0.0403
11607TIP3    H156312   2.646   5.310  12.662  0.8489  0.8133 -0.2827
11607TIP3    H256313   2.601   5.173  12.707  1.2379 -0.1023 -2.6360
11608TIP3   OH256314   2.823   1.049   0.642  0.3883  0.4309  0.2995
11608TIP3    H156315   2.821   1.005   0.726  1.7170  1.3983  0.8604
11608TIP3    H256316   2.839   1.141   0.664  0.9491  0.6553 -1.0177
11609TIP3   OH256317   5.923   2.331   1.562 -0.1379 -0.1262 -0.1021
11609TIP3    H156318   5.889   2.421   1.567  0.8516  0.2773 -0.5811
11609TIP3    H256319   6.013   2.338   1.594 -1.1394 -1.5788  3.3259
11610TIP3   OH256320   1.106   4.301  14.137 -0.4738  0.2650 -0.3639
11610TIP3    H156321   1.015   4.324  14.156 -0.4355  0.8389 -0.8682
11610TIP3    H256322   1.144   4.380  14.098  0.1634 -0.0628 -0.4242
11611TIP3   OH256323   5.009   5.436  12.630 -0.6199  0.3328 -0.2390
11611TIP3    H156324   4.972   5.368  12.686 -0.2661 -0.8311 -1.3906
11611TIP3    H256325   4.983   5.519  12.672 -0.9934 -0.4969  1.2133
11612TIP3   OH256326   6.558   5.412  13.336 -0.6098 -0.1809  0.1301
11612TIP3    H156327   6.567   5.471  13.262  0.3643 -2.0905 -1.3104
11612TIP3    H256328   6.596   5.330  13.306 -1.2201 -1.3164  2.3650
11613TIP3   OH256329   4.495   1.502  11.327  0.2339 -0.3034  0.1334
11613TIP3    H156330   4.505   1.530  11.236 -0.1404  0.5382  0.3434
11613TIP3    H256331   4.419   1.443  11.326 -2.7428  3.2996  0.6112
11614TIP3   OH256332   1.695   0.068   5.483 -0.0395 -0.2867  0.3271
11614TIP3    H156333   1.762   0.028   5.539  0.1328 -0.5397 -0.0588
11614TIP3    H256334   1.653   0.134   5.539  0.3350 -0.3300  0.6605
11615TIP3   OH256335   2.237   6.351  12.016 -0.7245  0.4630 -0.0807
11615TIP3    H156336   2.210   6.378  11.929 -0.5901  0.1275 -0.2314
11615TIP3    H256337   2.314   6.404  12.035 -0.5302  0.2693 -0.3236
11616TIP3   OH256338   6.330   3.687   0.373  0.5711  0.1810  0.0869
11616TIP3    H156339   6.333   3.620   0.441 -0.1484 -0.7792 -0.8140
11616TIP3    H256340   6.421   3.708   0.355  0.8210 -0.9579 -0.0158
11617TIP3   OH256341   0.977   4.431  14.608 -0.0155 -1.0566 -0.2484
11617TIP3    H156342   0.911   4.413  14.675  0.9404 -2.0125  0.4434
11617TIP3    H256343   1.014   4.345  14.587  3.2058 -0.2494  1.6550
11618TIP3   OH256344   0.916   2.622  10.416 -0.1311  0.6402  0.4863
11618TIP3    H156345   0.990   2.564  10.435 -0.6558 -0.0633  0.3686
11618TIP3    H256346   0.956   2.695  10.367  0.4704  0.2071  0.3175
11619TIP3   OH256347   0.308   5.008  14.525 -0.4120  0.3339  0.1934
11619TIP3    H156348   0.229   5.008  14.470 -0.5666 -0.2265  0.4105
11619TIP3    H256349   0.289   5.072  14.594 -1.2798 -0.8733  1.0971
11620TIP3   OH256350   3.987   3.109  12.916 -0.6780  0.1015  0.2919
11620TIP3    H156351   3.937   3.189  12.933 -0.5065  0.2888 -0.0906
11620TIP3    H256352   3.923   3.049  12.878  0.2209  1.6677 -4.0020
11621TIP3   OH256353   1.137   4.900   4.415 -0.4125 -0.2635 -0.0671
11621TIP3    H156354   1.196   4.974   4.427  0.1291 -0.5296 -1.0198
11621TIP3    H256355   1.171   4.832   4.473  1.6148 -1.2151 -2.2837
11622TIP3   OH256356   4.734   6.201   4.445  0.3907  0.0790  0.5087
11622TIP3    H156357   4.755   6.164   4.531 -2.2995 -0.0845  1.1364
11622TIP3    H256358   4.731   6.295   4.459  1.0201  0.1255  0.3413
11623TIP3   OH256359   3.463   0.799   2.829 -0.3632  0.6192  0.0847
11623TIP3    H156360   3.404   0.741   2.781 -0.3308  1.5058 -1.0748
11623TIP3    H256361   3.551   0.767   2.809 -0.3915  0.2268  0.5768
11624TIP3   OH256362   2.207   5.486   5.591  0.3683  0.6258 -0.1565
11624TIP3    H156363   2.163   5.537   5.523 -0.1215 -0.2807 -0.5138
11624TIP3    H256364   2.267   5.429   5.543 -0.0853 -0.1197  0.1532
11625TIP3   OH256365   5.525   4.619   0.454  0.8477 -0.2264 -0.6695
11625TIP3    H156366   5.445   4.569   0.439  0.0850  0.5422  0.7162
11625TIP3    H256367   5.583   4.593   0.383 -0.4335 -1.2071 -1.3850
11626TIP3   OH256368   3.619   0.083   0.968 -0.3712 -0.3874 -0.3521
11626TIP3    H156369   3.702   0.119   1.000 -0.4614 -0.0012 -0.5479
11626TIP3    H256370   3.638  -0.008   0.948  0.2174 -0.0853 -1.1751
11627TIP3   OH256371   3.409   6.800   2.571  0.3540  0.1651 -0.2584
11627TIP3    H156372   3.465   6.725   2.550  0.2595  0.0476 -0.0896
11627TIP3    H256373   3.370   6.778   2.655  3.1684  1.9903  1.6339
11628TIP3   OH256374   6.638   0.790  11.638  0.6179  0.2925  0.3920
11628TIP3    H156375   6.647   0.860  11.573 -0.3840 -0.4452 -0.5674
11628TIP3    H256376   6.558   0.744  11.612  1.3881 -1.3589  0.8802
11629TIP3   OH256377   4.698   3.562   6.086 -0.1234  0.4500 -0.6102
11629TIP3    H156378   4.709   3.500   6.158 -1.3001  1.0404  0.0912
11629TIP3    H256379   4.754   3.527   6.016 -0.0727 -0.9083  0.0852
11630TIP3   OH256380   3.123   3.028   0.076 -0.6597  0.0468  0.2876
11630TIP3    H156381   3.110   3.025   0.171 -0.4383  0.6894  0.3423
11630TIP3    H256382   3.174   2.949   0.057 -1.8662 -0.7988  0.5105
11631TIP3   OH256383   3.662   1.604  14.271 -0.4861  0.3554  0.4952
11631TIP3    H156384   3.629   1.575  14.186 -0.6608  0.2298  0.6066
11631TIP3    H256385   3.587   1.645  14.313 -0.1692  1.2614  0.2110
11632TIP3   OH256386   3.280   2.343   4.443  0.0031  0.2976  0.2504
11632TIP3    H156387   3.291   2.248   4.450  0.9427  0.4353  0.6449
11632TIP3    H256388   3.245   2.370   4.528 -0.8651  0.2214 -0.0799
11633TIP3   OH256389   1.137   6.238  12.513  0.5433 -0.1761  0.5974
11633TIP3    H156390   1.115   6.257  12.422  1.0728  0.4715  0.6048
11633TIP3    H256391   1.052   6.222  12.555  0.3221 -0.7953 -0.0768
11634TIP3   OH256392   6.543   6.001  14.274 -0.1639 -0.2848  0.0326
11634TIP3    H156393   6.603   6.001  14.350 -0.9947 -0.0724  0.6941
11634TIP3    H256394   6.544   6.092  14.244 -4.0726  0.9691  3.2068
11635TIP3   OH256395   6.342   1.102  16.537 -0.0257  0.5282  0.1125
11635TIP3    H156396   6.294   1.023  16.513 -2.1361  1.9603 -0.6454
11635TIP3    H256397   6.276   1.172  16.532  2.2276  2.6633 -1.3945
11636TIP3   OH256398   6.118   2.761  10.979  0.1726  0.0713 -0.0764
11636TIP3    H156399   6.131   2.801  10.893  0.1587 -1.1967 -0.6784
11636TIP3    H256400   6.201   2.716  10.997 -0.4475 -1.1614 -0.2362
11637TIP3   OH256401   4.930   5.783  12.966 -0.5328 -0.0373  0.8322
11637TIP3    H156402   5.017   5.815  12.943 -0.7228 -0.4001 -0.4360
11637TIP3    H256403   4.878   5.862  12.980 -0.1035  0.1803  1.2350
11638TIP3   OH256404   2.056   6.766   0.755 -0.0457 -0.0629 -0.7885
11638TIP3    H156405   2.120   6.736   0.820  1.1929 -0.8807 -2.3411
11638TIP3    H256406   2.084   6.724   0.673 -2.4401 -0.2486 -1.5441
11639TIP3   OH256407   5.279   5.664  14.450  0.1597  0.5982 -0.0621
11639TIP3    H156408   5.285   5.704  14.536 -2.0256  0.7981  0.0309
11639TIP3    H256409   5.314   5.576  14.461 -2.4044 -0.2403  1.6380
11640TIP3   OH256410   6.408   2.634  10.853 -0.4722 -0.1053  0.1359
11640TIP3    H156411   6.374   2.559  10.805 -0.5928  0.3214 -0.4419
11640TIP3    H256412   6.424   2.701  10.786  0.5507  0.0429  0.5291
11641TIP3   OH256413   1.570   2.366   4.656 -0.1097  0.4834 -0.2557
11641TIP3    H156414   1.576   2.286   4.604  1.4753 -1.4670  2.8031
11641TIP3    H256415   1.602   2.435   4.597 -1.0389 -1.1658 -2.7711
11642TIP3   OH256416   4.548   2.224  12.560 -0.1435 -0.2800 -0.4030
11642TIP3    H156417   4.582   2.149  12.609 -1.7612 -1.3814 -0.9324
11642TIP3    H256418   4.507   2.186  12.482 -0.6024  1.1783 -0.8977
11643TIP3   OH256419   1.053   4.410  16.557  0.3278 -0.1126  0.0411
11643TIP3    H156420   1.042   4.483  16.496 -2.7148 -2.1555 -2.0099
11643TIP3    H256421   1.016   4.440  16.639  1.6478  1.6023  0.0294
11644TIP3   OH256422   2.134   0.773  13.973  0.0215 -0.0583 -0.4693
11644TIP3    H156423   2.060   0.713  13.967 -0.4987  0.7655 -2.7672
11644TIP3    H256424   2.112   0.830  14.046 -0.1678 -1.7223  0.8076
11645TIP3   OH256425   3.063   1.324  12.551  0.8542  0.0942 -0.0720
11645TIP3    H156426   3.041   1.379  12.477  0.1083  0.7480  0.6349
11645TIP3    H256427   3.040   1.235  12.523 -0.5092  0.4809 -0.1992
11646TIP3   OH256428   4.764   6.240   3.098 -0.7556 -0.3817  0.2377
11646TIP3    H156429   4.782   6.217   3.007  3.3910 -0.0212  0.8520
11646TIP3    H256430   4.805   6.170   3.149  0.1362  1.2603  1.8490
11647TIP3   OH256431   0.789   2.402  17.247  0.4785 -0.4090 -0.3215
11647TIP3    H156432   0.854   2.353  17.298  1.4417  1.6123  0.4540
11647TIP3    H256433   0.798   2.369  17.158  0.8532 -1.8849  0.2504
11648TIP3   OH256434   4.361   1.847  15.466  0.0553  0.8806 -0.3031
11648TIP3    H156435   4.384   1.901  15.390  0.8342  1.8088  0.5753
11648TIP3    H256436   4.445   1.824  15.505 -0.3379  0.3664  0.2450
11649TIP3   OH256437   5.789   2.517  17.203 -0.0304 -0.6395  0.0065
11649TIP3    H156438   5.710   2.569  17.191 -0.1372 -1.0192 -0.9851
11649TIP3    H256439   5.849   2.575  17.250 -1.0255 -0.4814  1.1030
11650TIP3   OH256440   0.300   4.509   2.310  0.2955 -0.4438 -0.2032
11650TIP3    H156441   0.345   4.587   2.343  1.3200 -1.2577  0.3269
11650TIP3    H256442   0.272   4.462   2.388  0.0343 -0.8184 -0.5185
11651TIP3   OH256443   4.242   0.644   3.005 -0.2658 -0.7797 -0.2628
11651TIP3    H156444   4.309   0.627   3.072  0.2881 -0.2869 -0.6796
11651TIP3    H256445   4.249   0.569   2.945  1.7073  0.5054 -1.7268
11652TIP3   OH256446   6.302   2.462   4.389 -0.0701  0.4034  0.1848
11652TIP3    H156447   6.325   2.371   4.410 -0.1885  0.2266 -0.4427
11652TIP3    H256448   6.331   2.474   4.299  1.1589  1.4019  0.6947
11653TIP3   OH256449   4.196   5.765   2.940  0.3027  0.0692 -0.8687
11653TIP3    H156450   4.173   5.747   2.849 -0.9153  1.0645 -0.7786
11653TIP3    H256451   4.123   5.817   2.973  0.5776 -0.5682  0.7795
11654TIP3   OH256452   6.769   1.770  13.860  0.8145 -0.2434 -0.3706
11654TIP3    H156453   6.828   1.826  13.910 -0.1679  0.1423  0.3780
11654TIP3    H256454   6.750   1.696  13.919 -1.4026  0.8803  0.3698
11655TIP3   OH256455   0.173   4.238   1.804  0.2930  0.6131  0.1124
11655TIP3    H156456   0.099   4.299   1.809  0.5131  0.9922 -1.0630
11655TIP3    H256457   0.150   4.167   1.864 -0.9565  0.8052 -0.1280
11656TIP3   OH256458   3.768   5.692  13.992  0.5221 -0.1906 -0.3197
11656TIP3    H156459   3.859   5.696  14.021  1.1490  1.3078 -2.3556
11656TIP3    H256460   3.719   5.741  14.058  1.3791  0.1522  0.0602
11657TIP3   OH256461   3.680   6.185  15.056  0.0782 -0.8419  0.2640
11657TIP3    H156462   3.587   6.198  15.039  0.1667  1.2058  1.1133
11657TIP3    H256463   3.722   6.264  15.021  1.0319  0.1069  3.3475
11658TIP3   OH256464   4.238   4.845  14.551 -0.2742  0.2180  0.1049
11658TIP3    H156465   4.196   4.874  14.631 -0.8428 -0.9857  0.2491
11658TIP3    H256466   4.233   4.750  14.554  3.0609 -0.0102  0.4608
11659TIP3   OH256467   5.644   6.418  15.684 -0.0795  0.1939 -0.1230
11659TIP3    H156468   5.615   6.473  15.611 -0.7407 -1.1514 -0.9114
11659TIP3    H256469   5.573   6.354  15.695  0.0962  0.2798  1.5939
11660TIP3   OH256470   0.819   3.767   3.367  0.0867  0.2181  0.1209
11660TIP3    H156471   0.779   3.680   3.358 -0.1157  0.3860 -0.6894
11660TIP3    H256472   0.885   3.770   3.297 -0.1675  0.8543 -0.0945
11661TIP3   OH256473   5.904   3.546   5.084 -0.1505  0.3802  0.5320
11661TIP3    H156474   5.977   3.591   5.126 -0.4514  0.2996  1.1586
11661TIP3    H256475   5.874   3.605   5.016  0.1459  0.6547  0.6399
11662TIP3   OH256476   3.331   4.758   1.529 -1.3360 -0.7672  0.1183
11662TIP3    H156477   3.295   4.834   1.483 -0.1119 -0.7249 -0.7796
11662TIP3    H256478   3.361   4.792   1.613  0.2827 -0.0106 -0.7451
11663TIP3   OH256479   3.740   6.758   3.654  0.3009 -0.2793 -0.0888
11663TIP3    H156480   3.774   6.814   3.584  0.3941 -0.1929  0.0255
11663TIP3    H256481   3.671   6.707   3.612 -0.2310  0.3918 -0.0355
11664TIP3   OH256482   5.295   4.751   2.377 -0.1986 -0.5767  0.0934
11664TIP3    H156483   5.386   4.749   2.407 -0.4401  1.0120  0.9617
11664TIP3    H256484   5.301   4.760   2.282  0.5501  0.6301  0.2441
11665TIP3   OH256485   5.380   1.426  15.019  0.1159 -0.2493 -0.4179
11665TIP3    H156486   5.395   1.447  15.112 -0.6990  1.9112 -0.7394
11665TIP3    H256487   5.468   1.410  14.984  0.5759  0.4112  0.4092
11666TIP3   OH256488   0.196   2.176  11.438  0.1117  0.0644  0.1148
11666TIP3    H156489   0.131   2.246  11.437 -0.5899 -0.5823 -0.2381
11666TIP3    H256490   0.144   2.096  11.442  0.8836 -0.4632 -0.3456
11667TIP3   OH256491   3.439   6.203   4.050  0.2292  0.5677 -0.8483
11667TIP3    H156492   3.492   6.139   4.098  1.6452  1.0328 -1.7453
11667TIP3    H256493   3.453   6.285   4.096 -1.0456  0.3694 -0.0999
11668TIP3   OH256494   4.520   3.512   0.859  0.5257  0.4701 -0.1920
11668TIP3    H156495   4.504   3.537   0.768 -1.1751 -0.3054 -0.1145
11668TIP3    H256496   4.603   3.464   0.856 -0.1718 -0.6988 -1.5607
11669TIP3   OH256497   2.847   5.444  15.840 -0.1070  0.3361 -0.2124
11669TIP3    H156498   2.906   5.391  15.787 -0.2610  0.6491 -0.7079
11669TIP3    H256499   2.791   5.381  15.886  0.6916  0.0399  0.3485
11670TIP3   OH256500   4.979   0.025  17.091 -0.1388 -0.9467  0.5587
11670TIP3    H156501   4.925  -0.054  17.094  0.0895 -1.1279 -0.2449
11670TIP3    H256502   4.964   0.062  17.004 -0.1955 -0.1345  0.9028
11671TIP3   OH256503   2.369   1.738  16.044  0.2168  0.6126 -0.1714
11671TIP3    H156504   2.438   1.676  16.020  1.0227  0.5350  2.1422
11671TIP3    H256505   2.313   1.688  16.104  1.9222  2.5640  3.2292
11672TIP3   OH256506   2.073   0.746   4.766  0.2054  0.3157 -0.1267
11672TIP3    H156507   2.017   0.734   4.689 -0.0130  1.7900 -0.2085
11672TIP3    H256508   2.160   0.763   4.730 -0.1560  2.3010 -0.0750
11673TIP3   OH256509   1.248   4.815  11.800  0.1998  0.2994 -0.3542
11673TIP3    H156510   1.299   4.794  11.722  0.3571 -0.6623 -0.0021
11673TIP3    H256511   1.256   4.910  11.809 -0.6353  0.5483 -2.0658
11674TIP3   OH256512   5.497   3.827  12.370  0.0710  0.4381  0.2700
11674TIP3    H156513   5.411   3.813  12.331  0.4567  1.4738 -0.9734
11674TIP3    H256514   5.548   3.870  12.302  0.6760  2.4830  1.9596
11675TIP3   OH256515   4.664   0.048  14.566  0.1769  0.5032  0.6224
11675TIP3    H156516   4.730   0.116  14.569 -0.7204  1.3914  0.4676
11675TIP3    H256517   4.635   0.038  14.657  0.4443  0.1743  0.6761
11676TIP3   OH256518   1.122   6.235   4.073  0.6156  0.0134 -0.1283
11676TIP3    H156519   1.124   6.249   4.168  1.7261 -0.5957 -0.0550
11676TIP3    H256520   1.133   6.141   4.062  1.8182  0.2329 -0.8989
11677TIP3   OH256521   4.432   6.331  14.514 -0.1012 -0.0619 -0.2188
11677TIP3    H156522   4.394   6.389  14.448 -0.8982  2.7981  2.6373
11677TIP3    H256523   4.521   6.314  14.481 -1.2149 -0.6297 -3.1353
11678TIP3   OH256524   1.733   3.863  13.242 -0.3071 -0.0644 -0.5951
11678TIP3    H156525   1.677   3.937  13.219 -0.6392 -0.2732 -0.4735
11678TIP3    H256526   1.673   3.788  13.244 -0.4225  0.0528  1.5402
11679TIP3   OH256527   1.677   5.023   1.191 -0.0717 -0.0796  0.4300
11679TIP3    H156528   1.655   4.958   1.124 -1.6862 -0.4178  1.2462
11679TIP3    H256529   1.705   4.971   1.267  0.6001  0.2573  0.4188
11680TIP3   OH256530   3.963   0.094   4.331  0.3848  0.1816  0.2030
11680TIP3    H156531   3.935   0.185   4.332  0.3213  0.2082 -2.1517
11680TIP3    H256532   3.882   0.043   4.334  0.3912  0.1870  0.5910
11681TIP3   OH256533   1.458   0.841   5.735 -0.1254 -0.2097 -0.0880
11681TIP3    H156534   1.497   0.759   5.707 -1.5956 -2.2203  3.4113
11681TIP3    H256535   1.501   0.862   5.818 -1.4746  1.2595  0.2776
11682TIP3   OH256536   3.930   2.830   1.630  0.0807 -0.0380  0.1278
11682TIP3    H156537   3.836   2.820   1.613 -0.1505  1.1503  0.6379
11682TIP3    H256538   3.934   2.893   1.701  1.2664 -0.3199  0.3122
11683TIP3   OH256539   6.649   2.545  10.939 -0.0209  0.2600 -0.1450
11683TIP3    H156540   6.557   2.563  10.922 -0.7171 -1.0178  2.0142
11683TIP3    H256541   6.680   2.498  10.861 -1.1656  0.7520 -0.8974
11684TIP3   OH256542   2.373   4.359   2.356 -0.2036  0.0486  0.4057
11684TIP3    H156543   2.318   4.414   2.412 -0.3262 -0.1235  0.4562
11684TIP3    H256544   2.313   4.296   2.317  0.0360 -0.4748  0.8766
11685TIP3   OH256545   0.536   0.278   5.730  0.1786 -0.5852 -0.4389
11685TIP3    H156546   0.451   0.252   5.696  0.4945 -0.9725 -0.9481
11685TIP3    H256547   0.598   0.254   5.661  0.8803 -1.7404  0.5524
11686TIP3   OH256548   2.823   2.065  13.684 -0.1045 -0.0709 -0.8750
11686TIP3    H156549   2.816   1.983  13.733  1.9700 -1.0123 -2.0879
11686TIP3    H256550   2.737   2.076  13.644 -1.4473  0.0909  1.9517
11687TIP3   OH256551   2.759   3.226   3.646  0.5669 -0.5974  0.5129
11687TIP3    H156552   2.820   3.292   3.680 -0.5829  0.9518 -0.3621
11687TIP3    H256553   2.799   3.197   3.564 -0.0151  0.6583 -0.2274
11688TIP3   OH256554   5.383   2.864   3.764 -0.0190  0.0844 -0.4601
11688TIP3    H156555   5.384   2.873   3.860 -0.1932 -0.5439 -0.3956
11688TIP3    H256556   5.440   2.933   3.733  1.4838 -0.8355  0.1972
11689TIP3   OH256557   1.481   4.291   4.180 -0.1106  0.2436 -0.2745
11689TIP3    H156558   1.484   4.373   4.229 -0.8517 -0.4463  0.9391
11689TIP3    H256559   1.560   4.244   4.205  0.4295  0.6755 -1.1444
11690TIP3   OH256560   3.397   2.296  11.004  0.1708  0.0523 -0.8575
11690TIP3    H156561   3.472   2.353  10.987  1.1742 -1.7133 -2.6929
11690TIP3    H256562   3.340   2.308  10.928 -1.6276  1.6680  0.7077
11691TIP3   OH256563   2.653   4.541  11.374  0.2341  0.0493  0.0314
11691TIP3    H156564   2.580   4.588  11.333 -0.0779 -1.2245 -0.9001
11691TIP3    H256565   2.612   4.491  11.445 -0.1563 -2.2593 -1.7653
11692TIP3   OH256566   3.226   1.460   5.432  0.0563  0.2624  0.0255
11692TIP3    H156567   3.149   1.416   5.396  0.5942 -1.2536  0.6643
11692TIP3    H256568   3.268   1.500   5.355 -0.1930 -0.7615 -0.6587
11693TIP3   OH256569   5.864   2.050  15.096 -0.0695  0.2942  0.0653
11693TIP3    H156570   5.934   2.101  15.055  0.2075  0.0713  0.2642
11693TIP3    H256571   5.826   2.110  15.159 -0.1041  0.4386 -0.0913
11694TIP3   OH256572   0.235   0.205   2.509 -0.0921 -0.2102  0.0456
11694TIP3    H156573   0.242   0.261   2.431  3.1227 -1.9831 -1.0381
11694TIP3    H256574   0.151   0.161   2.500 -0.2648  0.4821 -1.8462
11695TIP3   OH256575   6.496   6.695   3.997 -0.9290  0.0927 -0.2113
11695TIP3    H156576   6.511   6.729   4.086 -1.8300  1.3675 -0.5386
11695TIP3    H256577   6.583   6.696   3.957 -0.6606  0.3507  0.3605
11696TIP3   OH256578   1.960   1.080  13.852  0.0796  0.2493  0.1733
11696TIP3    H156579   1.964   1.073  13.756 -0.7235  2.8118 -0.0811
11696TIP3    H256580   1.888   1.140  13.869 -0.5742 -1.1160  2.4765
11697TIP3   OH256581   2.657   5.099   3.510 -0.0039  0.4290 -0.3597
11697TIP3    H156582   2.592   5.048   3.559  0.0781  0.0552 -0.6454
11697TIP3    H256583   2.740   5.056   3.528 -0.1871 -0.7467 -2.1928
11698TIP3   OH256584   2.614   5.035   2.850 -0.3736 -0.5916 -0.2338
11698TIP3    H156585   2.584   5.066   2.765 -0.7635 -1.1590 -0.3050
11698TIP3    H256586   2.537   5.047   2.907  0.0281  0.2234  0.1489
11699TIP3   OH256587   6.035   4.562  12.728 -0.0298 -0.5481 -0.0579
11699TIP3    H156588   6.098   4.507  12.774 -0.3474  1.7646  3.3079
11699TIP3    H256589   5.949   4.527  12.753 -0.1826 -0.0745  0.0892
11700TIP3   OH256590   2.801   4.872   3.157  0.1772 -0.1722  0.6138
11700TIP3    H156591   2.843   4.868   3.071  0.9769  0.1095  0.9794
11700TIP3    H256592   2.782   4.965   3.169 -1.2320 -0.3904  0.1381
11701TIP3   OH256593   6.782   5.716   5.667 -0.2685  0.1184  0.2534
11701TIP3    H156594   6.811   5.807   5.663  0.5600 -0.1692 -0.3719
11701TIP3    H256595   6.747   5.698   5.580 -0.3398 -0.2011  0.3475
11702TIP3   OH256596   0.219   2.468  12.390  0.3198  0.6509 -0.5107
11702TIP3    H156597   0.127   2.458  12.368  0.5567 -1.0479 -0.8115
11702TIP3    H256598   0.223   2.456  12.485  0.4434 -1.0770 -0.7191
11703TIP3   OH256599   3.783   0.306  11.130  0.2430 -0.4212  0.6257
11703TIP3    H156600   3.841   0.288  11.056  0.4623  0.2893  0.6245
11703TIP3    H256601   3.842   0.312  11.205  0.0542 -0.8110  0.8081
11704TIP3   OH256602   0.113   3.537  16.143  0.0514 -0.1230  0.0547
11704TIP3    H156603   0.127   3.631  16.160 -0.4654  0.0033 -0.2395
11704TIP3    H256604   0.019   3.529  16.129 -0.2192 -1.0146  2.1797
11705TIP3   OH256605   0.897   4.033  13.344 -0.3195 -0.6459  0.4819
11705TIP3    H156606   0.814   4.054  13.300 -1.5488 -2.2604  2.0060
11705TIP3    H256607   0.941   3.973  13.283 -1.1194 -1.2838  0.5172
11706TIP3   OH256608   1.489   4.648  13.012  0.0729 -0.4414 -0.4753
11706TIP3    H156609   1.401   4.612  13.001 -0.8761  1.6867 -0.0266
11706TIP3    H256610   1.475   4.736  13.046  2.4136 -0.4151  0.5280
11707TIP3   OH256611   2.688   5.392   0.460 -0.0871  0.2330  0.1314
11707TIP3    H156612   2.670   5.367   0.369  1.1649 -1.1349  0.2384
11707TIP3    H256613   2.744   5.323   0.493 -1.0048  0.4155  2.1523
11708TIP3   OH256614   0.189   1.823  10.627  0.3177 -0.4063 -0.0480
11708TIP3    H156615   0.236   1.754  10.675 -0.9286 -0.9063  0.5018
11708TIP3    H256616   0.154   1.778  10.550  1.2593  0.1076 -0.7819
11709TIP3   OH256617   3.546   3.669   5.565 -0.1989  0.0213  0.1434
11709TIP3    H156618   3.496   3.638   5.490  1.1938 -1.3248 -0.2585
11709TIP3    H256619   3.482   3.716   5.619 -1.1719  1.2096 -1.9758
11710TIP3   OH256620   4.691   4.174  17.009  0.7489  0.3807  0.1468
11710TIP3    H156621   4.725   4.107  17.069  1.7357  0.7417 -0.0065
11710TIP3    H256622   4.648   4.123  16.940 -1.4118 -0.0174  1.7282
11711TIP3   OH256623   1.207   0.723  12.569  0.7082 -0.2508  0.1401
11711TIP3    H156624   1.277   0.660  12.560  0.5369 -0.3855 -0.2686
11711TIP3    H256625   1.127   0.670  12.576  0.8557 -0.1805  2.9689
11712TIP3   OH256626   1.792   5.467   4.101 -0.3114 -0.2403  0.0157
11712TIP3    H156627   1.839   5.517   4.035  1.8553 -0.6342  1.2136
11712TIP3    H256628   1.773   5.530   4.171  0.8727 -0.6729  0.7442
11713TIP3   OH256629   3.049   4.652  12.711 -0.2219 -0.2560  0.6210
11713TIP3    H156630   3.053   4.572  12.659 -0.0701  0.0696  0.1292
11713TIP3    H256631   3.129   4.651  12.764  1.3159  1.0999 -1.6286
11714TIP3   OH256632   4.022   4.026  14.326  0.2818  0.1527  0.1522
11714TIP3    H156633   4.099   3.989  14.369  0.2361  0.4824  0.5187
11714TIP3    H256634   3.996   4.099  14.382  0.5891  0.9790 -0.7933
11715TIP3   OH256635   4.200   2.536  13.011 -0.3387 -0.0536 -0.2126
11715TIP3    H156636   4.136   2.599  12.980 -1.1029 -0.7210  0.0003
11715TIP3    H256637   4.181   2.526  13.104 -0.2176 -0.5909 -0.2420
11716TIP3   OH256638   0.961   1.482  14.189  0.0369  0.1255  0.5143
11716TIP3    H156639   1.029   1.494  14.122 -1.0712  2.4312 -0.2556
11716TIP3    H256640   0.979   1.549  14.255 -0.0712 -0.8225  1.5172
11717TIP3   OH256641   3.890   4.441   4.690 -0.0715  0.0881 -0.4525
11717TIP3    H156642   3.926   4.443   4.779 -1.0483  2.0066 -0.0720
11717TIP3    H256643   3.832   4.365   4.689 -2.9776  2.1446  1.7751
11718TIP3   OH256644   5.599   5.856   1.198  0.3893  0.3102  0.1156
11718TIP3    H156645   5.539   5.855   1.124  0.1731  0.3167  0.2900
11718TIP3    H256646   5.579   5.937   1.244 -0.7993 -0.6098  1.2509
11719TIP3   OH256647   5.012   3.753  13.702 -0.0654 -0.3243 -0.1731
11719TIP3    H156648   5.077   3.684  13.712  0.4898  0.4444  1.8432
11719TIP3    H256649   5.057   3.821  13.651  0.8740  0.3556  1.5145
11720TIP3   OH256650   1.210   2.526  11.469 -0.0767  0.1184  0.3316
11720TIP3    H156651   1.130   2.555  11.515 -0.3948  1.5414 -1.0597
11720TIP3    H256652   1.239   2.604  11.421  0.5879 -1.1560 -1.3785
11721TIP3   OH256653   2.521   5.961   4.038 -0.2240 -0.0197  0.7752
11721TIP3    H156654   2.440   5.910   4.043  0.5071 -1.4475 -1.1636
11721TIP3    H256655   2.529   5.985   3.946  0.8507  1.3150  1.1867
11722TIP3   OH256656   3.941   2.609   0.879  0.3171  0.0737  0.2904
11722TIP3    H156657   3.968   2.586   0.968  0.1353 -0.1024  0.2992
11722TIP3    H256658   4.018   2.593   0.826  0.2323 -0.4150  0.3179
11723TIP3   OH256659   6.756   6.737   3.421  0.4569  0.3969  0.1519
11723TIP3    H156660   6.670   6.697   3.432  0.4836  0.3585  0.2257
11723TIP3    H256661   6.812   6.691   3.484  0.5864  0.2533 -0.0677
11724TIP3   OH256662   2.695   4.716   1.297  0.1506  0.0215  0.1848
11724TIP3    H156663   2.776   4.670   1.274 -0.5619 -0.6874 -0.9387
11724TIP3    H256664   2.630   4.646   1.306 -0.7006  0.7157 -0.5136
11725TIP3   OH256665   5.345   2.150  16.121 -0.6949  0.5195  0.3296
11725TIP3    H156666   5.335   2.081  16.056  1.2408  1.0339 -0.5434
11725TIP3    H256667   5.361   2.229  16.069  2.7532  0.6216  1.4328
11726TIP3   OH256668   6.694   0.518  14.350 -0.4748 -0.2622  0.4097
11726TIP3    H156669   6.785   0.510  14.320  0.0033 -1.7530  2.1767
11726TIP3    H256670   6.656   0.433  14.332 -1.4373  0.2543 -0.0036
11727TIP3   OH256671   5.236   1.655   4.778  0.3549 -0.1942  0.3654
11727TIP3    H156672   5.190   1.636   4.696  1.6417 -1.8033 -0.0206
11727TIP3    H256673   5.252   1.749   4.777 -0.9986  0.0343 -0.4998
11728TIP3   OH256674   3.568   1.963  11.360  0.1608  0.4927  0.1954
11728TIP3    H156675   3.572   1.992  11.269 -0.8625 -0.2306 -0.0870
11728TIP3    H256676   3.627   1.888  11.364  0.8385  1.0205  0.3329
11729TIP3   OH256677   3.487   1.877   3.781 -0.5165 -0.1191 -0.0118
11729TIP3    H156678   3.446   1.823   3.849  2.5797 -1.2289  1.0665
11729TIP3    H256679   3.556   1.924   3.827  0.5972  0.3218 -2.0907
11730TIP3   OH256680   1.975   2.442  12.478 -0.1588  0.5697  0.1574
11730TIP3    H156681   1.963   2.523  12.427 -1.3620  1.5098  1.8862
11730TIP3    H256682   1.988   2.473  12.568  0.0385 -1.1425  0.7231
11731TIP3   OH256683   4.307   3.873  10.799  0.5111 -0.4242  0.5394
11731TIP3    H156684   4.322   3.830  10.715 -1.1813 -1.0169  0.5256
11731TIP3    H256685   4.347   3.960  10.789 -1.3805  0.2560 -1.6019
11732TIP3   OH256686   1.299   6.423   2.255  0.8071  0.0848 -0.0872
11732TIP3    H156687   1.248   6.406   2.334 -0.3986  0.1715 -0.8411
11732TIP3    H256688   1.337   6.510   2.269  0.2885  0.2614  0.2217
11733TIP3   OH256689   3.763   3.823  12.364  0.0855 -0.4715  0.8208
11733TIP3    H156690   3.821   3.859  12.297  0.3374 -1.6821  0.3825
11733TIP3    H256691   3.769   3.885  12.437  2.9523 -1.2549  1.3051
11734TIP3   OH256692   2.663   6.285   4.636  0.3210 -0.0631 -0.0548
11734TIP3    H156693   2.695   6.238   4.558  1.9012  0.7218  0.0856
11734TIP3    H256694   2.737   6.342   4.661 -1.4427  2.3310 -0.0956
11735TIP3   OH256695   0.476   5.975  12.515  0.2290  0.0849  0.1814
11735TIP3    H156696   0.421   6.050  12.495  0.3200 -0.0087 -0.4330
11735TIP3    H256697   0.508   5.945  12.430  0.9572 -0.0663  0.4987
11736TIP3   OH256698   2.826   1.045  12.058  0.1131  0.4760 -0.5396
11736TIP3    H156699   2.895   1.101  12.094  0.5323  1.5645 -2.9117
11736TIP3    H256700   2.759   1.106  12.028 -2.3113 -0.5998  2.4219
11737TIP3   OH256701   2.477   1.188   5.108  0.1928  0.0279  0.2768
11737TIP3    H156702   2.485   1.229   5.022 -1.6642 -1.7953 -0.8135
11737TIP3    H256703   2.408   1.238   5.152  0.5240  0.4059  0.3679
11738TIP3   OH256704   1.425   1.426  16.332  0.0395 -0.0415  0.1232
11738TIP3    H156705   1.435   1.521  16.339  1.2689 -0.2539  1.7824
11738TIP3    H256706   1.358   1.405  16.398  3.3514 -0.8353  3.3673
11739TIP3   OH256707   4.465   5.947  16.237  0.8968  0.8366  0.2581
11739TIP3    H156708   4.480   5.997  16.157  2.6160  0.2022  0.1800
11739TIP3    H256709   4.370   5.952  16.250  0.6115  1.0178 -1.7643
11740TIP3   OH256710   1.821   5.541   4.797 -0.0932 -0.3138  0.1501
11740TIP3    H156711   1.866   5.506   4.720 -1.0813 -0.8716 -0.1810
11740TIP3    H256712   1.781   5.623   4.767  0.1804 -0.1325  0.2801
11741TIP3   OH256713   6.115   0.206  13.868  0.3787 -0.0499 -0.2345
11741TIP3    H156714   6.185   0.249  13.819 -0.6092  1.1105 -0.6799
11741TIP3    H256715   6.041   0.205  13.806  0.0041 -1.2366  0.2308
11742TIP3   OH256716   5.604   1.632  14.895  0.1485 -0.2494  0.3115
11742TIP3    H156717   5.660   1.579  14.953 -0.6444  0.8669  2.1432
11742TIP3    H256718   5.655   1.710  14.877 -0.4120  0.3211  1.1719
11743TIP3   OH256719   0.020   3.876  16.283  0.5623  0.3017 -0.3993
11743TIP3    H156720   0.014   3.968  16.311  1.0758  0.4884 -0.9012
11743TIP3    H256721  -0.041   3.870  16.209 -0.6447 -0.1440  0.6050
11744TIP3   OH256722   5.840   0.736  14.741  0.2029 -0.0505 -0.0867
11744TIP3    H156723   5.777   0.676  14.701 -0.7893 -0.0212  1.3816
11744TIP3    H256724   5.787   0.812  14.767  0.7194 -0.2912  1.7438
11745TIP3   OH256725   6.809   3.220   3.859  0.4152  0.3781 -0.2715
11745TIP3    H156726   6.824   3.312   3.881  0.3488  0.3435 -0.0785
11745TIP3    H256727   6.889   3.175   3.886  1.2308  0.6650 -2.1226
11746TIP3   OH256728   2.508   0.186   2.643  0.4087 -0.2116  0.1098
11746TIP3    H156729   2.527   0.197   2.549 -1.0490 -1.6349 -0.3880
11746TIP3    H256730   2.451   0.260   2.665 -0.2371 -0.5377 -0.4408
11747TIP3   OH256731   2.534   1.396  10.669 -0.0752 -0.1588 -0.1054
11747TIP3    H156732   2.515   1.340  10.744  0.4001  1.5769  1.3804
11747TIP3    H256733   2.474   1.471  10.680  0.6936  0.5806 -0.8924
11748TIP3   OH256734   0.262   1.214  13.969  0.1754  0.2277  0.6868
11748TIP3    H156735   0.176   1.177  13.988  0.3779 -0.1161  0.9332
11748TIP3    H256736   0.324   1.154  14.011  0.5099  0.7914  1.0032
11749TIP3   OH256737   0.456   4.219   5.824  0.1723  0.2141 -0.3141
11749TIP3    H156738   0.542   4.212   5.866  0.4764 -0.9033 -1.0922
11749TIP3    H256739   0.418   4.132   5.834 -0.7541  0.6295 -0.2283
11750TIP3   OH256740   6.467   5.083  12.759  0.7317  0.0333  0.4535
11750TIP3    H156741   6.454   5.005  12.812 -0.5072  1.1066  1.7667
11750TIP3    H256742   6.561   5.100  12.764  1.1210 -1.7258 -0.3856
11751TIP3   OH256743   4.483   3.752  12.180  0.0853  0.7549  0.8764
11751TIP3    H156744   4.567   3.708  12.194  0.7604  1.0571 -1.9178
11751TIP3    H256745   4.506   3.843  12.161 -0.7901  0.7175 -0.5084
11752TIP3   OH256746   5.538   4.664   3.236  0.1927 -0.3412 -0.2506
11752TIP3    H156747   5.494   4.636   3.156  0.2624  1.3586 -0.9048
11752TIP3    H256748   5.491   4.743   3.262  0.2453 -0.8164  1.3300
11753TIP3   OH256749   0.814   3.892   4.296  0.0973  0.7431  0.0507
11753TIP3    H156750   0.834   3.902   4.203 -0.5946 -0.9613 -0.3111
11753TIP3    H256751   0.891   3.846   4.332  0.3083  1.2859  0.2978
11754TIP3   OH256752   6.015   1.120   0.481 -0.0126  0.2698  0.2919
11754TIP3    H156753   5.966   1.135   0.561  0.2837 -0.2662  0.5773
11754TIP3    H256754   6.045   1.206   0.453 -0.3168  0.4805  0.6330
11755TIP3   OH256755   6.597   3.501  10.721 -0.1053 -0.4854  0.0001
11755TIP3    H156756   6.511   3.494  10.762 -0.9186  2.0120 -1.2117
11755TIP3    H256757   6.653   3.542  10.787 -0.2219 -0.7204  0.2456
11756TIP3   OH256758   2.803   2.933  12.825 -0.4979  0.2489  0.2481
11756TIP3    H156759   2.788   2.852  12.873 -0.7507  0.4598  0.5226
11756TIP3    H256760   2.820   2.999  12.892  0.2874  0.3075  0.0051
11757TIP3   OH256761   5.914   2.344   0.445 -0.2277  0.0513 -0.0613
11757TIP3    H156762   5.994   2.345   0.498 -0.6676 -1.7772  0.6890
11757TIP3    H256763   5.945   2.324   0.356  0.1971 -0.1036  0.1183
11758TIP3   OH256764   4.850   2.147  14.065 -0.0214 -0.2533  0.6159
11758TIP3    H156765   4.842   2.199  13.985 -1.9063 -1.2342  0.1329
11758TIP3    H256766   4.839   2.056  14.036 -2.3632 -0.5199  2.1467
11759TIP3   OH256767   6.582   5.290  13.859 -0.2422  0.2561 -0.6023
11759TIP3    H156768   6.647   5.351  13.826  0.3573 -0.1808 -0.2276
11759TIP3    H256769   6.558   5.324  13.945  0.7644 -0.5370 -0.0012
11760TIP3   OH256770   4.217   0.357   4.370 -0.8391  0.5154  0.4680
11760TIP3    H156771   4.196   0.338   4.461  0.2514 -2.4675  0.1236
11760TIP3    H256772   4.137   0.334   4.322  0.3702 -3.2098  0.0878
11761TIP3   OH256773   6.741   2.529   5.091  0.1082 -0.6585 -0.0896
11761TIP3    H156774   6.815   2.535   5.152  0.7815  0.7991 -1.0305
11761TIP3    H256775   6.781   2.539   5.005 -1.4309  2.4758 -0.5083
11762TIP3   OH256776   3.514   0.229   4.680  0.0825  0.2892  0.0574
11762TIP3    H156777   3.500   0.278   4.599 -0.7257  0.2186  0.1468
11762TIP3    H256778   3.554   0.147   4.651  1.2435  0.8971 -0.1108
11763TIP3   OH256779   3.693   2.543   1.493  0.0408 -0.2662 -0.6356
11763TIP3    H156780   3.638   2.563   1.569  1.2931  1.0284 -0.0302
11763TIP3    H256781   3.781   2.532   1.530  0.6666  0.4401 -1.8949
11764TIP3   OH256782   0.077   6.785  17.060 -0.1914  0.2890 -0.0908
11764TIP3    H156783  -0.005   6.750  17.095 -0.3631  1.0203  0.2337
11764TIP3    H256784   0.102   6.855  17.120  1.6468 -1.1273  0.8601
11765TIP3   OH256785   2.330   2.456  14.692 -0.7590  0.1457  0.0358
11765TIP3    H156786   2.404   2.446  14.632 -0.9660 -1.4713  0.0234
11765TIP3    H256787   2.368   2.495  14.770 -0.2502  1.0950 -0.6674
11766TIP3   OH256788   0.838   5.067   0.797  0.5239  0.2911  0.4552
11766TIP3    H156789   0.834   5.106   0.884  0.5911  3.0963 -0.7626
11766TIP3    H256790   0.900   5.122   0.749 -1.0255 -0.0270 -1.9500
11767TIP3   OH256791   1.648   0.491  16.073 -0.2093  0.3794  0.0191
11767TIP3    H156792   1.633   0.454  16.161  0.3533 -0.8757 -0.3934
11767TIP3    H256793   1.638   0.416  16.014 -0.4099  1.1860 -0.9753
11768TIP3   OH256794   1.088   1.825  11.846 -0.3817  0.0347 -0.0725
11768TIP3    H156795   1.070   1.902  11.792 -0.2631  0.3451  0.3288
11768TIP3    H256796   1.183   1.815  11.842 -0.5488 -1.1647 -1.5866
11769TIP3   OH256797   4.903   4.544  10.215 -0.0555 -0.1310  0.3649
11769TIP3    H156798   4.918   4.454  10.185  1.1428  0.4526 -0.8357
11769TIP3    H256799   4.812   4.562  10.193  0.9986  0.5795 -3.7683
11770TIP3   OH256800   0.115   5.675  14.101  0.2935  0.4089 -0.0538
11770TIP3    H156801   0.047   5.608  14.099  0.4701  0.2378 -0.4328
11770TIP3    H256802   0.101   5.721  14.184 -0.4743  0.5724 -0.2706
11771TIP3   OH256803   1.045   5.619  13.672  0.4449  0.0335 -0.1693
11771TIP3    H156804   1.124   5.587  13.628 -0.2735 -1.3298 -0.5161
11771TIP3    H256805   1.013   5.543  13.722 -0.0684  0.8716  0.7867
11772TIP3   OH256806   4.738   1.577  14.869  0.3558  0.0648 -0.3008
11772TIP3    H156807   4.678   1.651  14.878  1.0220  0.6859 -0.9292
11772TIP3    H256808   4.821   1.609  14.905  1.2586  0.3754 -2.6191
11773TIP3   OH256809   2.076   1.066   4.375  0.2592 -0.1543 -0.0499
11773TIP3    H156810   2.053   1.156   4.353  0.2398 -0.2825 -0.5536
11773TIP3    H256811   2.153   1.047   4.321  0.1392 -0.5107 -0.0958
11774TIP3   OH256812   6.013   4.036   5.278 -0.1274  0.5363 -0.6678
11774TIP3    H156813   5.946   3.968   5.283 -0.5772  1.0878  0.9806
11774TIP3    H256814   5.964   4.118   5.278  0.5404  0.9332  0.2107
11775TIP3   OH256815   3.894   4.120  17.090 -0.2366  0.2199 -0.0497
11775TIP3    H156816   3.867   4.029  17.074 -3.2243  1.1887 -0.8380
11775TIP3    H256817   3.933   4.148  17.007 -1.4072  0.3672 -0.5512
11776TIP3   OH256818   5.751   1.721   3.269 -0.2253 -0.1631  0.3594
11776TIP3    H156819   5.760   1.761   3.355 -1.0753  0.7154  0.0469
11776TIP3    H256820   5.819   1.763   3.216 -1.0171  0.7708  0.0724
11777TIP3   OH256821   2.029   2.696   1.928  0.3958  0.0699  0.4900
11777TIP3    H156822   2.038   2.600   1.922  0.2310  0.1855 -1.8331
11777TIP3    H256823   2.117   2.726   1.949  0.1430 -0.6697  2.8566
11778TIP3   OH256824   1.542   2.409   0.901  0.0742 -0.2840  0.3745
11778TIP3    H156825   1.605   2.386   0.969 -2.0268 -0.5123  2.3007
11778TIP3    H256826   1.521   2.502   0.917 -1.3711 -0.6727  0.8645
11779TIP3   OH256827   5.754   5.175  16.659 -0.0801 -0.3709 -0.6020
11779TIP3    H156828   5.744   5.266  16.687  2.2427  0.5243 -2.4867
11779TIP3    H256829   5.708   5.171  16.575 -0.5440 -1.0570 -0.3174
11780TIP3   OH256830   4.308   6.593  12.649  0.7618 -0.3327  0.1070
11780TIP3    H156831   4.359   6.642  12.713  0.7507 -0.0251 -0.1199
11780TIP3    H256832   4.372   6.535  12.608  1.0360  0.4228 -0.5419
11781TIP3   OH256833   5.475   4.554  15.856  0.3366  0.0558  0.7848
11781TIP3    H156834   5.499   4.635  15.810 -1.5338 -1.1433 -2.4571
11781TIP3    H256835   5.380   4.548  15.846  0.5860 -3.1276 -0.0269
11782TIP3   OH256836   2.824   3.458   2.008  0.2546  0.2405 -0.4222
11782TIP3    H156837   2.829   3.513   1.929  1.5494 -1.0550 -1.2625
11782TIP3    H256838   2.737   3.476   2.044 -1.4805 -1.2346 -3.6961
11783TIP3   OH256839   6.797   6.184  14.886  0.0201  0.0819 -0.1279
11783TIP3    H156840   6.813   6.246  14.957 -0.8745 -0.6871  0.7606
11783TIP3    H256841   6.884   6.150  14.865  0.1640 -0.5643  1.4313
11784TIP3   OH256842   1.227   4.529  14.043 -0.2044 -0.2145 -0.5156
11784TIP3    H156843   1.232   4.514  13.949  1.5626  0.7629 -0.6009
11784TIP3    H256844   1.312   4.565  14.066  0.3563 -2.9336  1.9419
11785TIP3   OH256845   4.351   6.227   4.577 -0.2097  0.0611 -0.1344
11785TIP3    H156846   4.345   6.299   4.641 -0.2618  1.2373 -1.4379
11785TIP3    H256847   4.371   6.271   4.494 -0.3177 -1.4362 -0.9643
11786TIP3   OH256848   2.684   4.356  10.349 -0.3457  0.4264 -0.0026
11786TIP3    H156849   2.635   4.373  10.429  0.2008  0.2926  0.3620
11786TIP3    H256850   2.643   4.278  10.312 -0.2258  0.1480  0.4502
11787TIP3   OH256851   0.973   1.896  16.915 -0.3949  0.3938 -0.1132
11787TIP3    H156852   0.890   1.907  16.869 -1.4661 -0.4185  1.6175
11787TIP3    H256853   0.987   1.802  16.918  0.2749  0.5007  0.1891
11788TIP3   OH256854   3.677   0.627  12.751 -0.0534  0.3545  0.1033
11788TIP3    H156855   3.603   0.626  12.812 -0.7343 -1.0326 -0.7030
11788TIP3    H256856   3.698   0.719  12.739 -0.9552  0.7103  1.1725
11789TIP3   OH256857   4.826   1.082   2.811  0.2618 -0.2592 -0.2477
11789TIP3    H156858   4.890   1.140   2.769  0.4835  0.8028  1.5268
11789TIP3    H256859   4.842   0.996   2.771  0.8403  0.6073 -1.9179
11790TIP3   OH256860   4.904   3.237  11.805 -0.3567 -0.3659  0.3248
11790TIP3    H156861   4.894   3.330  11.826 -1.4720 -0.3063 -0.4248
11790TIP3    H256862   4.917   3.195  11.890  0.5066  0.5126  0.6407
11791TIP3   OH256863   3.197   1.457  16.124  0.3649 -0.1781  0.1771
11791TIP3    H156864   3.250   1.528  16.087 -0.6096  0.8301  0.6726
11791TIP3    H256865   3.115   1.499  16.150  0.3874 -1.1674  1.9547
11792TIP3   OH256866   4.856   0.231  14.602 -0.4666 -0.5736 -0.3401
11792TIP3    H156867   4.944   0.239  14.639 -1.5127 -0.7833  2.3007
11792TIP3    H256868   4.836   0.318  14.569  0.1701 -0.1573  0.3626
11793TIP3   OH256869   5.828   2.031   1.797 -0.2990 -0.1866  0.0757
11793TIP3    H156870   5.890   2.005   1.866  0.7987  0.2353 -0.7395
11793TIP3    H256871   5.883   2.047   1.720 -1.4341  0.1520 -0.6774
11794TIP3   OH256872   1.878   0.250   5.807 -0.3606  0.2588 -0.2360
11794TIP3    H156873   1.863   0.243   5.902 -0.1100  1.8835 -0.0478
11794TIP3    H256874   1.970   0.226   5.796 -0.1357  0.9575  0.0671
11795TIP3   OH256875   0.444   0.293   3.483 -0.4351  0.2052  0.5134
11795TIP3    H156876   0.428   0.236   3.407 -1.9592  1.2799  0.0036
11795TIP3    H256877   0.484   0.371   3.447  0.0569  0.1751  0.9923
11796TIP3   OH256878   1.544   1.518  11.181  0.5271 -0.5842  0.2101
11796TIP3    H156879   1.538   1.577  11.105  0.5326  0.0375  0.6936
11796TIP3    H256880   1.486   1.556  11.246 -0.9327 -2.1325 -0.1311
11797TIP3   OH256881   5.908   2.923   4.816 -0.2892  0.3007 -0.1845
11797TIP3    H156882   5.885   2.947   4.906 -0.9001  0.0537 -0.2747
11797TIP3    H256883   5.862   2.840   4.800  0.2686  0.0546 -0.5315
11798TIP3   OH256884   0.974   6.647  13.008 -0.7030  0.1295  0.4158
11798TIP3    H156885   0.897   6.613  13.052 -0.8829 -0.5761 -0.4214
11798TIP3    H256886   0.939   6.706  12.941 -0.5190 -0.1989  0.0289
11799TIP3   OH256887   3.201   1.747  16.745  0.2144 -0.2868  0.3760
11799TIP3    H156888   3.168   1.837  16.741  0.9837 -0.0322 -0.2621
11799TIP3    H256889   3.210   1.730  16.839  0.1173  0.3254  0.5048
11800TIP3   OH256890   0.776   4.897   4.993  0.5516 -0.4371 -0.7921
11800TIP3    H156891   0.754   4.926   5.082 -0.0759 -1.4540 -0.6108
11800TIP3    H256892   0.856   4.944   4.972  0.9147 -0.4682  0.4715
11801TIP3   OH256893   4.168   2.687   3.364  0.0728 -0.1467  0.5640
11801TIP3    H156894   4.092   2.742   3.382  0.2926  0.4937 -0.4225
11801TIP3    H256895   4.230   2.746   3.321  0.4976 -1.0526 -0.0623
11802TIP3   OH256896   2.632   6.676   3.983  1.1513 -0.1177  0.8760
11802TIP3    H156897   2.674   6.662   3.898 -1.8365  0.6657 -0.7957
11802TIP3    H256898   2.647   6.768   4.003  0.4255  0.1226  0.3529
11803TIP3   OH256899   4.944   1.245  11.300 -0.0126  0.7153 -0.3897
11803TIP3    H156900   4.970   1.317  11.358  0.8948 -0.4346  0.6702
11803TIP3    H256901   4.858   1.218  11.333  0.6657 -0.1800  0.6883
11804TIP3   OH256902   4.626   0.921  12.508 -0.5956  0.2065  0.0764
11804TIP3    H156903   4.639   0.879  12.593 -3.1699  0.5412  0.6759
11804TIP3    H256904   4.652   0.855  12.444 -0.6732 -0.8126  1.0892
11805TIP3   OH256905   2.829   1.112   4.581 -0.1433 -0.4740 -0.6861
11805TIP3    H156906   2.874   1.104   4.665 -0.6770  0.3883 -0.3221
11805TIP3    H256907   2.783   1.029   4.571  0.5637 -0.8988 -0.5095
11806TIP3   OH256908   6.191   6.677  13.984 -0.3684  0.2987 -0.2355
11806TIP3    H156909   6.143   6.692  13.902 -0.4828 -0.0952 -0.2442
11806TIP3    H256910   6.207   6.764  14.019 -0.1190  0.4768 -0.7955
11807TIP3   OH256911   0.495   1.554  12.995 -0.1227  0.7114 -0.6242
11807TIP3    H156912   0.568   1.505  12.958 -0.7113 -0.0328 -0.8011
11807TIP3    H256913   0.424   1.490  13.003  0.6240  0.2837  3.7632
11808TIP3   OH256914   0.478   4.103  15.949 -0.1717  0.1730 -0.1094
11808TIP3    H156915   0.383   4.097  15.943 -0.1000  0.2089 -1.2860
11808TIP3    H256916   0.503   4.169  15.885  0.6342  0.2753  0.2996
11809TIP3   OH256917   1.301   0.529  16.976  0.6348  0.0658  0.7286
11809TIP3    H156918   1.323   0.499  16.888 -0.9757  0.9768  0.0098
11809TIP3    H256919   1.362   0.482  17.033  2.4637  0.3380 -0.9563
11810TIP3   OH256920   0.033   0.839  15.248  0.4822 -0.2232  0.0673
11810TIP3    H156921   0.124   0.850  15.276  0.8710 -0.6919 -0.9762
11810TIP3    H256922   0.000   0.929  15.239  0.7169 -0.0597  0.8444
11811TIP3   OH256923   3.318   2.717   0.412  0.2991  0.3500 -0.5476
11811TIP3    H156924   3.298   2.805   0.380 -1.0175 -0.3001 -1.5405
11811TIP3    H256925   3.414   2.714   0.413  0.3623  2.1313  0.4554
11812TIP3   OH256926   5.701   3.928   0.303  0.3560 -0.1120 -0.1014
11812TIP3    H156927   5.630   3.865   0.315  0.2123 -0.0599 -0.6571
11812TIP3    H256928   5.763   3.908   0.373  1.8806 -3.0621 -2.1556
11813TIP3   OH256929   3.195   5.873   5.987 -0.9140 -0.3924  0.0376
11813TIP3    H156930   3.227   5.867   5.897 -1.0127 -1.6932  0.0821
11813TIP3    H256931   3.208   5.965   6.011  0.9167 -0.4494 -0.6371
11814TIP3   OH256932   3.897   6.724  15.634 -0.0384 -0.4102  0.0802
11814TIP3    H156933   3.968   6.661  15.647  0.7952  0.4566 -0.1709
11814TIP3    H256934   3.920   6.798  15.691 -0.0003  0.4708 -1.0626
11815TIP3   OH256935   2.890   2.918  13.505 -0.1005  0.2439  0.5546
11815TIP3    H156936   2.889   2.886  13.595 -1.6059 -0.5094  0.2810
11815TIP3    H256937   2.851   3.005  13.510  0.8564  0.6728  0.7812
11816TIP3   OH256938   2.619   2.681   1.164 -0.0554  0.6535 -0.2655
11816TIP3    H156939   2.564   2.716   1.234  0.5094 -0.4473  0.7641
11816TIP3    H256940   2.689   2.746   1.154 -0.3871  1.0336 -0.1220
11817TIP3   OH256941   1.217   3.364   3.524 -0.2531 -0.0907  0.2554
11817TIP3    H156942   1.257   3.335   3.442 -0.3900  1.0782 -0.2271
11817TIP3    H256943   1.248   3.453   3.536 -1.7685  0.4116  0.4934
11818TIP3   OH256944   0.261   3.007   0.790 -0.2387  0.1071  0.1452
11818TIP3    H156945   0.307   3.004   0.874  1.0080 -0.6750 -0.5374
11818TIP3    H256946   0.305   2.940   0.737 -1.6800 -0.1137 -0.7886
11819TIP3   OH256947   0.495   5.584   4.623 -0.2725  0.2213  0.4431
11819TIP3    H156948   0.565   5.527   4.591 -0.2600  0.2459  0.4258
11819TIP3    H256949   0.448   5.530   4.687 -1.0784 -0.2736 -0.5356
11820TIP3   OH256950   6.131   3.712   5.208  0.4396  0.2743  0.4624
11820TIP3    H156951   6.120   3.783   5.143 -2.0712 -0.6585 -0.1997
11820TIP3    H256952   6.076   3.739   5.282 -2.0102 -1.7879 -0.5342
11821TIP3   OH256953   6.352   0.247  13.694 -0.0439  0.1585  0.6808
11821TIP3    H156954   6.385   0.176  13.639  2.1130  1.4871  0.2463
11821TIP3    H256955   6.381   0.327  13.650 -0.0845  1.2665  2.6519
11822TIP3   OH256956   0.363   3.288  12.105  0.0503 -0.3160 -0.3235
11822TIP3    H156957   0.389   3.233  12.179 -0.2595 -0.7765 -0.5580
11822TIP3    H256958   0.304   3.233  12.054 -1.2655  0.6544  0.1049
11823TIP3   OH256959   0.184   6.677   0.761  0.4972  0.2284 -0.1968
11823TIP3    H156960   0.238   6.711   0.832 -0.8256 -1.7068  1.7751
11823TIP3    H256961   0.242   6.619   0.712  0.6756 -0.5324  0.9045
11824TIP3   OH256962   2.838   3.822  16.467  0.2540 -0.2046  0.0902
11824TIP3    H156963   2.893   3.748  16.495 -0.5341 -1.5712 -1.8494
11824TIP3    H256964   2.780   3.785  16.400 -1.1252  1.8620  0.0948
11825TIP3   OH256965   3.647   4.214   2.881  0.5092 -0.0728  0.5164
11825TIP3    H156966   3.742   4.208   2.882  0.5045 -0.1338  0.5535
11825TIP3    H256967   3.617   4.127   2.907  0.4454  0.5166  2.4400
11826TIP3   OH256968   6.466   2.849  14.379 -0.1130 -0.1366  0.3367
11826TIP3    H156969   6.470   2.754  14.371 -0.6231 -0.1651  0.4421
11826TIP3    H256970   6.535   2.870  14.442  0.8495 -0.3168 -0.6345
11827TIP3   OH256971   4.660   4.778   3.088 -0.2583 -0.1252 -0.1423
11827TIP3    H156972   4.703   4.722   3.153  0.4860  0.4638 -0.1206
11827TIP3    H256973   4.725   4.846   3.069 -1.0068  0.4979 -0.4646
11828TIP3   OH256974   2.832   6.566  11.306 -0.3195 -1.0693 -0.3809
11828TIP3    H156975   2.861   6.653  11.282  1.6538 -1.2824  1.1491
11828TIP3    H256976   2.737   6.567  11.289 -0.1204  0.9426 -1.5319
11829TIP3   OH256977   2.158   6.060  12.026  0.1510 -0.8010  1.0445
11829TIP3    H156978   2.238   6.008  12.033  0.3561 -0.7373 -0.5321
11829TIP3    H256979   2.189   6.151  12.024  0.0912 -0.7903  0.0509
11830TIP3   OH256980   6.198   1.117  10.672 -0.0930  0.4837  0.7219
11830TIP3    H156981   6.188   1.034  10.624  2.3228  0.4204  0.2570
11830TIP3    H256982   6.239   1.176  10.608  0.3622  1.3213  1.7844
11831TIP3   OH256983   6.479   4.057  15.371  0.1570 -0.4913  0.0538
11831TIP3    H156984   6.538   3.990  15.404  0.8337  0.0524 -0.0182
11831TIP3    H256985   6.410   4.009  15.326  0.2681 -1.1558  0.5952
11832TIP3   OH256986   3.478   5.797  13.191  0.1522 -0.0457  0.4199
11832TIP3    H156987   3.485   5.711  13.233 -0.8377 -0.0845  0.5168
11832TIP3    H256988   3.393   5.795  13.147  0.2353  0.7978  0.2253
11833TIP3   OH256989   3.258   0.337  15.313  0.3505 -0.0817  0.1041
11833TIP3    H156990   3.278   0.431  15.315 -1.0872  0.2383 -0.2702
11833TIP3    H256991   3.265   0.313  15.221 -3.7469  0.6869 -0.5318
11834TIP3   OH256992   2.798   4.198   3.129 -0.4351  0.0623 -0.1211
11834TIP3    H156993   2.835   4.129   3.074 -0.5921  1.0088 -1.4389
11834TIP3    H256994   2.873   4.254   3.150 -0.5162  0.1195  0.0173
11835TIP3   OH256995   2.588   5.712   5.342  0.6257 -0.1834 -0.1148
11835TIP3    H156996   2.534   5.738   5.267 -1.6192 -2.6826  0.5217
11835TIP3    H256997   2.632   5.792   5.370 -0.0292  1.1880 -2.8842
11836TIP3   OH256998   4.373   2.681  15.424 -0.0623  0.5909 -0.0299
11836TIP3    H156999   4.341   2.732  15.498 -0.8848 -0.8312  0.6255
11836TIP3    H257000   4.436   2.620  15.463  0.5625  0.7839 -0.7266
11837TIP3   OH257001   2.087   6.011  12.389  0.0381 -0.3587 -0.4789
11837TIP3    H157002   2.170   5.968  12.410  0.6064 -0.2950 -2.5374
11837TIP3    H257003   2.023   5.965  12.443  1.3794 -0.4726  1.0676
11838TIP3   OH257004   5.847   5.106   4.956  0.1486  0.5033  0.3564
11838TIP3    H157005   5.753   5.102   4.938  0.1314  2.1522  0.0814
11838TIP3    H257006   5.853   5.112   5.052 -0.0244  0.6778  0.3556
11839TIP3   OH257007   1.639   2.527   2.021 -0.2186  0.0098 -0.1893
11839TIP3    H157008   1.700   2.456   2.002 -0.2911 -0.4941  1.3932
11839TIP3    H257009   1.677   2.571   2.097 -1.2148  0.4262  0.0745
11840TIP3   OH257010   1.291   0.686  14.002  0.0639  0.1603 -0.7295
11840TIP3    H157011   1.268   0.691  13.909 -0.3497  0.4398 -0.6152
11840TIP3    H257012   1.246   0.761  14.042 -0.8238 -0.7025 -0.0942
11841TIP3   OH257013   6.577   4.398   4.935  0.5717  0.5703  0.4274
11841TIP3    H157014   6.581   4.309   4.899 -0.5873  0.3275  0.8764
11841TIP3    H257015   6.488   4.427   4.916 -0.0070  0.5234  2.9147
11842TIP3   OH257016   2.664   1.745  11.895 -0.8485  0.4349  0.7968
11842TIP3    H157017   2.667   1.774  11.804 -0.3893 -0.8374  0.3983
11842TIP3    H257018   2.754   1.756  11.927 -0.8861  0.3589  0.9318
11843TIP3   OH257019   0.465   3.018   5.537  0.5752 -0.3077  0.0826
11843TIP3    H157020   0.552   2.991   5.507  0.1620 -1.8048  0.2410
11843TIP3    H257021   0.428   3.063   5.461  1.4978  0.3874  0.0254
11844TIP3   OH257022   4.388   0.589   3.759  0.4050 -0.4140  0.8527
11844TIP3    H157023   4.407   0.661   3.699 -0.2187 -0.3342  0.7509
11844TIP3    H257024   4.306   0.614   3.802  0.1579 -1.0833  0.7793
11845TIP3   OH257025   1.150   1.270   5.275  0.0160  0.1523 -0.0142
11845TIP3    H157026   1.075   1.239   5.326 -0.5459  1.0691 -0.2772
11845TIP3    H257027   1.224   1.265   5.336 -0.5129  0.5188  0.6632
11846TIP3   OH257028   3.992   0.004  13.487 -0.1107 -0.2725  0.4199
11846TIP3    H157029   3.997  -0.059  13.415  0.8023  0.2924 -0.0216
11846TIP3    H257030   3.902   0.035  13.485  0.2764  0.8228 -1.4293
11847TIP3   OH257031   3.364   3.948  15.574  0.1372  0.2023  0.1484
11847TIP3    H157032   3.376   3.981  15.485  0.1064  0.6277  0.3000
11847TIP3    H257033   3.332   3.859  15.563  0.0216  0.2966 -0.2677
11848TIP3   OH257034   0.895   6.769  12.130 -0.2111  0.4076 -0.3284
11848TIP3    H157035   0.852   6.848  12.163 -2.5829 -0.8734 -0.2184
11848TIP3    H257036   0.823   6.714  12.097  1.5759 -0.7837 -2.4153
11849TIP3   OH257037   2.951   0.877  16.075  0.0962  0.1226 -0.8584
11849TIP3    H157038   2.909   0.926  16.145 -0.6294 -0.5902 -0.7793
11849TIP3    H257039   2.884   0.872  16.006  0.5797  0.2734 -1.3455
11850TIP3   OH257040   6.353   0.546  15.997 -0.3514 -0.2096 -0.0143
11850TIP3    H157041   6.375   0.454  16.010 -0.1568 -0.1859 -0.1663
11850TIP3    H257042   6.320   0.575  16.082  2.9424  0.5029  1.1062
11851TIP3   OH257043   2.988   0.520  16.889 -0.0290 -0.0094  0.4059
11851TIP3    H157044   2.947   0.516  16.803  1.3508  1.5400 -0.3371
11851TIP3    H257045   3.006   0.613  16.904  0.8541 -0.3856  1.8458
11852TIP3   OH257046   5.270   2.483  11.026  0.6627 -0.3727  0.2141
11852TIP3    H157047   5.282   2.518  11.114 -1.8239 -1.2577  0.9481
11852TIP3    H257048   5.338   2.416  11.017  1.7107  0.5676  0.9801
11853TIP3   OH257049   6.666   2.927   5.740  0.0353 -0.1019  0.3537
11853TIP3    H157050   6.713   2.921   5.658 -0.0792  1.7319  0.1262
11853TIP3    H257051   6.680   2.842   5.783  1.6185 -0.3955 -0.7149
11854TIP3   OH257052   6.413   2.429  11.191 -0.1330 -0.4581 -0.2361
11854TIP3    H157053   6.432   2.522  11.188 -2.2038  0.0183  0.3026
11854TIP3    H257054   6.326   2.421  11.151  0.5673 -2.3168 -1.4320
11855TIP3   OH257055   0.346   3.881   1.887 -0.4706 -0.3741 -0.8595
11855TIP3    H157056   0.385   3.812   1.940 -1.4046  0.4066  0.8821
11855TIP3    H257057   0.284   3.836   1.829 -1.9651 -0.8711  1.1063
11856TIP3   OH257058   5.240   0.176  13.438 -0.3268 -0.1563  0.3587
11856TIP3    H157059   5.253   0.179  13.533  2.0278  0.8393  0.0451
11856TIP3    H257060   5.309   0.117  13.407 -0.1800  0.6533 -0.8739
11857TIP3   OH257061   1.032   3.630   6.543  0.5934 -0.7312  0.1445
11857TIP3    H157062   1.002   3.540   6.559 -0.2217 -0.1029  2.3686
11857TIP3    H257063   0.961   3.669   6.492 -0.0784 -0.7494  1.0322
11858TIP3   OH257064   5.508   3.122   4.722  0.1440 -0.0850  0.1516
11858TIP3    H157065   5.413   3.115   4.712  0.2410 -0.8479 -0.3157
11858TIP3    H257066   5.541   3.138   4.633  0.6255 -1.9984 -0.0287
11859TIP3   OH257067   1.147   2.549   1.118  0.0510  0.2422 -0.4803
11859TIP3    H157068   1.153   2.643   1.099  1.2631  0.1016 -0.8247
11859TIP3    H257069   1.190   2.539   1.203  0.3000 -0.0597 -0.6396
11860TIP3   OH257070   2.999   6.225   6.197 -0.1373  0.3460 -0.3395
11860TIP3    H157071   3.090   6.231   6.224 -0.3681  0.4651  0.4339
11860TIP3    H257072   2.951   6.271   6.266 -0.8807 -0.6616 -0.1706
11861TIP3   OH257073   4.732   4.950  16.680  0.8760  0.3688  0.4284
11861TIP3    H157074   4.640   4.966  16.656  0.3854 -1.0929  1.2962
11861TIP3    H257075   4.762   5.034  16.715 -0.8110  0.2688  2.2505
11862TIP3   OH257076   4.690   1.222   5.470  0.3413  0.1830 -0.5446
11862TIP3    H157077   4.721   1.301   5.426 -3.3914  1.8476 -0.4207
11862TIP3    H257078   4.629   1.255   5.536  1.2874 -2.6530  1.8285
11863TIP3   OH257079   2.954   1.493  13.374 -0.1271 -0.1251  0.4816
11863TIP3    H157080   2.911   1.501  13.288 -0.0324  2.5796  0.6659
11863TIP3    H257081   3.041   1.458  13.354  0.0077  0.7806 -0.5724
11864TIP3   OH257082   4.358   1.232   0.809 -0.2797  0.1782 -0.1937
11864TIP3    H157083   4.437   1.241   0.863 -1.0897  1.7114  0.7802
11864TIP3    H257084   4.357   1.311   0.754 -2.0497  1.0894  1.0835
11865TIP3   OH257085   2.605   5.751  10.762  0.6928 -0.0099 -0.0861
11865TIP3    H157086   2.694   5.726  10.785  0.8701 -1.4545 -2.1562
11865TIP3    H257087   2.615   5.834  10.716  0.6100  1.4821  2.5179
11866TIP3   OH257088   2.833   6.356  12.973 -0.1653 -0.2188  0.1261
11866TIP3    H157089   2.814   6.275  12.925 -0.5322  0.5825 -1.1052
11866TIP3    H257090   2.752   6.406  12.968  1.1602  1.8057 -2.3052
11867TIP3   OH257091   6.717   6.609  15.338 -0.6421  0.4898  0.1833
11867TIP3    H157092   6.641   6.585  15.285 -0.8262  0.5405  0.4204
11867TIP3    H257093   6.746   6.526  15.376  0.3125  0.2446 -1.0582
11868TIP3   OH257094   0.905   3.137   2.194  0.0432 -0.0524 -0.0263
11868TIP3    H157095   0.912   3.072   2.124 -2.0208  0.3687 -0.6352
11868TIP3    H257096   0.969   3.204   2.170 -1.1856  0.4646 -1.9344
11869TIP3   OH257097   6.760   0.538   4.337  0.2174  0.0105 -0.0120
11869TIP3    H157098   6.676   0.510   4.373  1.2010 -0.0781  2.2611
11869TIP3    H257099   6.822   0.472   4.367  1.8793  2.4230  2.0915
11870TIP3   OH257100   3.791   1.096   0.204 -0.3692  0.0584 -0.5878
11870TIP3    H157101   3.871   1.141   0.177 -0.5108  0.0013 -1.1171
11870TIP3    H257102   3.808   1.004   0.184 -0.5079  0.0269 -0.5632
11871TIP3   OH257103   0.515   1.077  17.191 -0.3660 -0.0516 -0.1187
11871TIP3    H157104   0.537   1.019  17.264  1.8839 -0.2061 -0.8730
11871TIP3    H257105   0.429   1.047  17.161 -0.7624 -0.7787  1.6610
11872TIP3   OH257106   4.768   3.995   4.968 -0.0622  0.5408  0.3877
11872TIP3    H157107   4.747   3.903   4.951 -0.1931  0.6472 -0.0215
11872TIP3    H257108   4.821   3.993   5.049  0.8784  0.0009 -0.2296
11873TIP3   OH257109   0.213   6.078  16.246  0.1675  0.1426  0.0180
11873TIP3    H157110   0.299   6.090  16.285  0.4973 -1.3309 -0.2143
11873TIP3    H257111   0.231   6.045  16.157 -0.6057  1.3998 -0.6208
11874TIP3   OH257112   1.780   0.256  12.607  0.9333 -0.7767  0.3974
11874TIP3    H157113   1.723   0.180  12.596  1.5513 -0.9275 -2.0501
11874TIP3    H257114   1.757   0.314  12.534  0.7884  1.2007  1.9642
11875TIP3   OH257115   6.529   5.763  12.936 -0.0028  0.0327  0.0308
11875TIP3    H157116   6.536   5.840  12.878 -2.7674 -1.4748 -2.4408
11875TIP3    H257117   6.608   5.712  12.918  0.0824  0.5264 -1.0148
11876TIP3   OH257118   4.485   2.724   4.549  0.3957 -0.2919  0.2546
11876TIP3    H157119   4.436   2.663   4.604  0.5255 -0.0454  0.6412
11876TIP3    H257120   4.554   2.670   4.509  1.0372 -0.2318  1.2545
11877TIP3   OH257121   3.974   3.698  16.939  0.0266 -1.0496 -0.5742
11877TIP3    H157122   4.047   3.717  16.880  2.1788 -0.2546  2.2043
11877TIP3    H257123   3.996   3.613  16.978  0.5930  0.1519  1.8266
11878TIP3   OH257124   5.355   5.431  12.048 -0.0781 -0.1255  0.3104
11878TIP3    H157125   5.310   5.350  12.072  0.6799 -0.2016  1.5166
11878TIP3    H257126   5.285   5.494  12.033 -0.6620 -0.8970 -0.2771
11879TIP3   OH257127   3.432   1.996  15.407 -0.1916 -0.4280 -0.1444
11879TIP3    H157128   3.402   1.968  15.321 -1.2614  1.1690 -0.3147
11879TIP3    H257129   3.527   1.981  15.406 -0.4398 -1.9640 -0.9889
11880TIP3   OH257130   4.570   5.475  14.095 -0.0615 -0.3063  0.0527
11880TIP3    H157131   4.660   5.459  14.066  0.2004  1.5227 -0.1788
11880TIP3    H257132   4.526   5.512  14.018 -1.4188 -2.5049 -0.2818
11881TIP3   OH257133   5.196   0.818  14.340 -0.1551 -0.2984 -0.0231
11881TIP3    H157134   5.162   0.855  14.259  1.0714 -3.2356 -1.9342
11881TIP3    H257135   5.286   0.850  14.345 -0.8156  1.4827  1.2661
11882TIP3   OH257136   3.986   5.826  17.271 -0.4354 -0.0905 -0.2668
11882TIP3    H157137   4.021   5.740  17.245 -0.1298  0.0340 -0.2696
11882TIP3    H257138   4.039   5.889  17.222 -0.7208  0.0985 -0.3318
11883TIP3   OH257139   2.563   1.153  15.497  0.0873  0.1692  0.1494
11883TIP3    H157140   2.584   1.233  15.448 -0.5853  1.4633  1.9093
11883TIP3    H257141   2.481   1.122  15.457  1.3288 -0.7212 -1.7751
11884TIP3   OH257142   2.294   3.772   0.040  0.3904  0.1702 -0.1877
11884TIP3    H157143   2.247   3.789   0.121  0.1691  0.0883 -0.3006
11884TIP3    H257144   2.328   3.858   0.014  0.1223  0.2642 -0.2217
11885TIP3   OH257145   2.712   0.071  14.954 -0.1221  0.2510  0.1371
11885TIP3    H157146   2.651   0.047  14.885 -0.0758 -0.5968  0.3872
11885TIP3    H257147   2.781   0.004  14.950 -0.6063 -0.3480  1.6139
11886TIP3   OH257148   5.793   0.346   1.589 -0.1443  0.2863  0.2838
11886TIP3    H157149   5.828   0.272   1.639 -0.6526  1.2872  2.1689
11886TIP3    H257150   5.827   0.333   1.500  0.5393 -1.6931  0.8067
11887TIP3   OH257151   2.746   3.920   1.112 -0.4755 -0.4861  0.6929
11887TIP3    H157152   2.742   3.888   1.022  1.7371 -0.1574  0.4527
11887TIP3    H257153   2.717   4.011   1.106 -0.3262 -0.4604  0.3113
11888TIP3   OH257154   4.779   0.824  12.196  1.1909 -0.6423 -0.4789
11888TIP3    H157155   4.851   0.826  12.133  1.0418  3.5098 -0.6830
11888TIP3    H257156   4.806   0.884  12.265 -1.3879 -0.1996  0.2022
11889TIP3   OH257157   2.902   5.301  16.588  0.4262  0.0339  0.3029
11889TIP3    H157158   2.872   5.385  16.550 -0.5376 -1.0576 -1.4387
11889TIP3    H257159   2.841   5.284  16.659  0.3682  0.6168  0.3950
11890TIP3   OH257160   1.912   0.486   2.826  0.0990  0.4128 -0.0659
11890TIP3    H157161   1.996   0.468   2.868  1.4957  0.8702 -2.6067
11890TIP3    H257162   1.906   0.581   2.826 -0.0002  0.4033 -0.7182
11891TIP3   OH257163   4.802   2.354   0.279  0.2799  0.1914  0.0523
11891TIP3    H157164   4.853   2.331   0.201  0.3591  0.7837 -0.0740
11891TIP3    H257165   4.716   2.314   0.263  1.1114 -2.0367  0.9170
11892TIP3   OH257166   5.294   6.628   6.089 -0.4058  0.1304  0.0920
11892TIP3    H157167   5.341   6.699   6.045  0.3258 -0.0044  0.6413
11892TIP3    H257168   5.303   6.554   6.030 -1.1183  0.4794 -0.4553
11893TIP3   OH257169   0.272   3.560   3.075  0.3180  0.1885 -0.2299
11893TIP3    H157170   0.247   3.498   3.144 -0.4755  0.5724 -0.1710
11893TIP3    H257171   0.189   3.590   3.039  0.7337 -0.2077 -1.5326
11894TIP3   OH257172   2.921   0.058   5.418  0.0123 -0.5899 -0.5300
11894TIP3    H157173   2.952   0.139   5.377  1.9320 -1.4213 -0.7728
11894TIP3    H257174   2.833   0.079   5.448 -0.1359  1.1003 -2.0280
11895TIP3   OH257175   1.518   3.759  13.888 -0.6471 -0.1498 -0.2029
11895TIP3    H157176   1.460   3.826  13.851 -1.2443 -0.3670  0.3274
11895TIP3    H257177   1.553   3.799  13.968 -1.1748 -0.5547  0.2293
11896TIP3   OH257178   4.025   4.279  13.123 -0.0283 -0.0891 -0.7072
11896TIP3    H157179   4.084   4.241  13.058 -0.5028 -0.2299 -1.0580
11896TIP3    H257180   3.970   4.206  13.151  1.7346 -0.5993  1.6214
11897TIP3   OH257181   5.237   5.663  10.620 -0.8297  0.0170  0.4483
11897TIP3    H157182   5.262   5.652  10.528 -0.2108  0.6178  0.5394
11897TIP3    H257183   5.150   5.702  10.617 -1.4553 -1.3907  0.1222
11898TIP3   OH257184   0.130   5.895  16.425 -0.3217 -0.5849 -0.3502
11898TIP3    H157185   0.157   5.970  16.373  0.4312 -0.4947  0.1668
11898TIP3    H257186   0.123   5.823  16.362  0.8030 -0.5303 -0.5494
11899TIP3   OH257187   5.284   3.339  15.051 -0.2800  0.2987  0.0044
11899TIP3    H157188   5.362   3.380  15.014 -0.5379  2.2320  1.5045
11899TIP3    H257189   5.278   3.254  15.007  1.6741  0.8432 -1.3869
11900TIP3   OH257190   0.902   3.116  11.501  0.0228 -0.1575  0.4273
11900TIP3    H157191   0.840   3.089  11.433 -1.1976  1.1312  1.0311
11900TIP3    H257192   0.854   3.105  11.583  1.7417 -2.4391  1.1890
11901TIP3   OH257193   6.807   0.476  17.291 -0.3124  0.2752  0.2186
11901TIP3    H157194   6.773   0.407  17.348 -1.4861  0.9006  0.2943
11901TIP3    H257195   6.737   0.491  17.227  0.3990  0.6025 -0.4890
11902TIP3   OH257196   5.534   2.545   3.848 -0.2142 -0.3834 -0.1337
11902TIP3    H157197   5.559   2.491   3.923  2.1534 -0.5702 -1.0134
11902TIP3    H257198   5.457   2.593   3.878  0.2587 -0.9852  2.1647
11903TIP3   OH257199   5.607   0.401  15.068  0.1983 -0.2326 -0.0202
11903TIP3    H157200   5.520   0.395  15.028  0.3914 -1.4879 -0.2757
11903TIP3    H257201   5.664   0.355  15.007  0.7236 -1.0404  1.0718
11904TIP3   OH257202   4.377   3.054  12.516 -0.1193 -0.1065  0.1271
11904TIP3    H157203   4.332   3.004  12.585 -1.1008 -1.9183 -1.7860
11904TIP3    H257204   4.332   3.139  12.515 -1.1582 -0.6456  0.6120
11905TIP3   OH257205   2.432   2.739   3.779 -0.2606 -0.2746 -0.2413
11905TIP3    H157206   2.469   2.800   3.844  2.1974  0.3674 -2.1897
11905TIP3    H257207   2.338   2.757   3.781  0.0432  1.3401  1.4902
11906TIP3   OH257208   4.135   0.821  16.603  0.4522  0.1643  0.8278
11906TIP3    H157209   4.144   0.752  16.668 -0.2482  0.3475  1.1235
11906TIP3    H257210   4.223   0.834  16.569  0.4348 -1.5267  0.0976
11907TIP3   OH257211   4.921   3.680   2.163 -0.3960 -0.2975 -0.5013
11907TIP3    H157212   5.005   3.723   2.177  0.9396 -2.4862 -1.5115
11907TIP3    H257213   4.877   3.685   2.248  0.6325  1.0754 -0.0256
11908TIP3   OH257214   3.405   2.842  10.587  0.2108 -0.3476 -0.2213
11908TIP3    H157215   3.390   2.748  10.578  0.3347 -0.6402  2.2887
11908TIP3    H257216   3.326   2.882  10.551  0.4333 -1.3721 -1.8979
11909TIP3   OH257217   6.678   6.153   3.874  0.3687  0.4691 -0.2377
11909TIP3    H157218   6.752   6.184   3.926  1.2534 -1.1332 -0.5270
11909TIP3    H257219   6.604   6.152   3.935  1.1309 -0.2293  0.6836
11910TIP3   OH257220   5.831   5.132  13.596  0.7695  0.1434  0.6590
11910TIP3    H157221   5.834   5.049  13.645  0.9818  0.5623  1.3627
11910TIP3    H257222   5.898   5.186  13.638  1.0476  0.4580 -0.1928
11911TIP3   OH257223   4.396   4.853  14.324  0.1654 -0.1547  0.3988
11911TIP3    H157224   4.377   4.945  14.308 -2.1782 -0.7806 -0.6454
11911TIP3    H257225   4.361   4.836  14.411 -1.3836 -0.5715 -0.2944
11912TIP3   OH257226   4.047   0.150  16.705  0.0206  0.1551  0.1672
11912TIP3    H157227   3.970   0.198  16.736  0.0358 -0.7842  1.7641
11912TIP3    H257228   4.102   0.140  16.783  1.1991 -0.2443 -0.6944
11913TIP3   OH257229   3.395   6.403  13.645 -0.3435 -0.2499 -0.2131
11913TIP3    H157230   3.390   6.328  13.703  0.0175  0.7329  1.0998
11913TIP3    H257231   3.432   6.368  13.563  1.0440 -1.2436  0.8206
11914TIP3   OH257232   1.502   4.092   2.061  0.6041 -0.0773  0.2759
11914TIP3    H157233   1.512   4.151   1.987  0.8162  2.7155  2.4531
11914TIP3    H257234   1.409   4.097   2.083  0.7132 -0.1841  0.7664
11915TIP3   OH257235   4.329   3.925   2.925 -0.3195  0.2894 -0.1811
11915TIP3    H157236   4.252   3.890   2.881 -0.3269  1.3117 -0.9930
11915TIP3    H257237   4.332   4.017   2.899  0.4534  0.5737  0.8588
11916TIP3   OH257238   0.438   3.378   0.956 -0.0270 -0.1378  0.0729
11916TIP3    H157239   0.356   3.365   1.004 -0.5709 -0.0796 -0.8242
11916TIP3    H257240   0.499   3.316   0.995 -0.8798 -1.1088 -0.1167
11917TIP3   OH257241   0.355   5.264  14.701 -0.3466  0.3503 -0.2619
11917TIP3    H157242   0.414   5.297  14.634 -0.8512  0.2425 -0.7574
11917TIP3    H257243   0.378   5.314  14.780 -0.1092  0.8357 -0.6375
11918TIP3   OH257244   2.411   4.843   5.879  0.5986 -0.0382  0.2661
11918TIP3    H157245   2.322   4.824   5.852  0.1819  0.3895  1.3079
11918TIP3    H257246   2.427   4.783   5.953  1.1618 -0.0996  0.0994
11919TIP3   OH257247   5.169   3.106   4.612 -0.3103 -0.4049 -0.2638
11919TIP3    H157248   5.158   3.201   4.621  0.1035 -0.2613 -1.2049
11919TIP3    H257249   5.129   3.085   4.527 -1.1274 -1.2005  0.3033
11920TIP3   OH257250   5.945   5.608  13.051  0.0876 -0.1483  0.4463
11920TIP3    H157251   5.987   5.529  13.085 -0.6358 -0.6964  0.0869
11920TIP3    H257252   5.890   5.577  12.978 -0.0729  0.7048  0.1940
11921TIP3   OH257253   5.064   2.643  12.391 -0.4685 -0.5716 -0.4409
11921TIP3    H157254   4.975   2.616  12.414 -1.2111  1.9931 -0.1314
11921TIP3    H257255   5.051   2.712  12.325  1.2844  0.1298 -0.0675
11922TIP3   OH257256   1.256   3.777  12.334 -0.5708  0.4917  0.8003
11922TIP3    H157257   1.258   3.689  12.295 -1.0322 -0.4316  2.7948
11922TIP3    H257258   1.163   3.799  12.340 -0.4042  2.7770 -3.1764
11923TIP3   OH257259   2.842   2.713   4.013 -0.4816  0.1583  0.9546
11923TIP3    H157260   2.933   2.691   4.031 -0.4016 -0.0062  0.3562
11923TIP3    H257261   2.805   2.737   4.099  0.0842  0.0968  1.2139
11924TIP3   OH257262   5.913   4.531   4.798  0.1172  0.1490 -0.0298
11924TIP3    H157263   5.992   4.557   4.749 -0.1207 -0.2715 -0.6341
11924TIP3    H257264   5.847   4.517   4.731 -0.2055 -0.4511  0.4161
11925TIP3   OH257265   2.236   4.704   3.285 -0.5355  0.5471  0.6674
11925TIP3    H157266   2.200   4.616   3.277  0.1072  0.3994 -0.5925
11925TIP3    H257267   2.330   4.691   3.297 -0.5400  1.0364  1.2832
11926TIP3   OH257268   2.581   0.909   5.894 -0.1900 -0.3023  0.0628
11926TIP3    H157269   2.653   0.964   5.925 -1.8201  0.1835  3.2063
11926TIP3    H257270   2.616   0.820   5.896  0.6072  0.0180  0.6439
11927TIP3   OH257271   1.826   6.699  14.548 -0.0450 -0.1042 -0.4087
11927TIP3    H157272   1.734   6.676  14.553  0.0985 -0.3153  2.3795
11927TIP3    H257273   1.870   6.632  14.601  1.5839  0.5490 -0.8994
11928TIP3   OH257274   0.089   0.526  13.586  0.6979 -0.6277  0.0627
11928TIP3    H157275   0.158   0.542  13.650  1.8821 -1.2385 -1.0242
11928TIP3    H257276   0.130   0.545  13.502 -0.4411 -1.0885 -0.6073
11929TIP3   OH257277   4.069   1.282   0.347  0.2203  0.5872  0.4042
11929TIP3    H157278   4.114   1.335   0.413 -0.5093  0.3493  1.1082
11929TIP3    H257279   4.039   1.345   0.282  1.6072  0.7451 -0.1023
11930TIP3   OH257280   0.247   5.272  11.748 -0.4125 -0.1810 -0.1454
11930TIP3    H157281   0.314   5.300  11.685 -0.8974 -0.1681 -0.6625
11930TIP3    H257282   0.221   5.353  11.792 -1.5074  0.1442 -1.3405
11931TIP3   OH257283   6.724   2.924  11.741 -0.1196  0.3321  0.0387
11931TIP3    H157284   6.646   2.926  11.686  1.0544  3.6824 -1.6704
11931TIP3    H257285   6.697   2.962  11.825 -1.1005 -1.5878  0.5916
11932TIP3   OH257286   6.408   4.852  14.524  0.6902 -0.0656  0.6452
11932TIP3    H157287   6.322   4.850  14.481  1.4513 -3.3037 -0.9242
11932TIP3    H257288   6.390   4.827  14.615 -0.4228  2.8607  1.2884
11933TIP3   OH257289   6.207   2.977  15.771 -0.4934 -0.1823 -0.2783
11933TIP3    H157290   6.202   3.070  15.793  2.9529 -0.0994  0.4101
11933TIP3    H257291   6.186   2.932  15.853  2.7753  0.0998  0.8260
11934TIP3   OH257292   0.604   2.070   5.076  0.3551 -0.4060 -0.2021
11934TIP3    H157293   0.583   2.078   5.169  0.4351 -0.4830 -0.1777
11934TIP3    H257294   0.613   1.976   5.061  1.2052 -0.3445 -0.0964
11935TIP3   OH257295   1.830   6.788   5.120  0.2783  0.0451  0.4419
11935TIP3    H157296   1.879   6.808   5.040 -0.0351  0.1571  0.2776
11935TIP3    H257297   1.871   6.844   5.186  1.0694 -0.6438  0.5427
11936TIP3   OH257298   6.209   0.565  16.807  0.2701 -0.3084  0.2796
11936TIP3    H157299   6.219   0.471  16.788 -0.3761 -0.0150 -1.6330
11936TIP3    H257300   6.137   0.593  16.751 -0.1283  1.1645  1.4932
11937TIP3   OH257301   4.717   5.965   1.971 -0.1220 -0.6932  0.2188
11937TIP3    H157302   4.662   5.945   1.896 -1.0857 -1.0585  1.0054
11937TIP3    H257303   4.659   5.954   2.047  1.2994 -2.0216  1.1303
11938TIP3   OH257304   1.439   5.134  14.125  0.6879  0.5851  0.0683
11938TIP3    H157305   1.476   5.137  14.213  0.1518 -0.8305  0.3493
11938TIP3    H257306   1.515   5.142  14.067  1.2558 -0.4913  0.6528
11939TIP3   OH257307   5.101   3.147  16.509  0.0010 -0.0192  0.1180
11939TIP3    H157308   5.092   3.051  16.507  3.8070 -0.4110 -1.2777
11939TIP3    H257309   5.095   3.169  16.602 -1.1909 -1.5490  0.4230
11940TIP3   OH257310   6.373   2.150  10.851 -0.1307 -0.6713 -0.3239
11940TIP3    H157311   6.316   2.093  10.800  1.1164 -1.6870 -0.6057
11940TIP3    H257312   6.407   2.213  10.787 -0.6536 -0.2879 -0.2246
11941TIP3   OH257313   0.915   4.926   1.915  0.5592 -0.3634  0.5163
11941TIP3    H157314   0.957   4.864   1.856 -1.2624 -0.6239 -0.5603
11941TIP3    H257315   0.823   4.926   1.888  0.1897  1.4777  1.6535
11942TIP3   OH257316   6.470   0.336   1.612 -0.0133 -0.1673  0.5077
11942TIP3    H157317   6.502   0.413   1.564 -2.5068  0.4391 -0.2694
11942TIP3    H257318   6.461   0.269   1.544 -0.4346 -0.3236  0.7238
11943TIP3   OH257319   1.054   2.534  13.711 -0.1225 -0.2701  0.2626
11943TIP3    H157320   0.960   2.541  13.731  0.3200  0.8621  2.0085
11943TIP3    H257321   1.088   2.472  13.776  0.4548 -0.2566 -0.0235
11944TIP3   OH257322   3.998   0.796  11.992 -0.2981 -0.1704  0.5525
11944TIP3    H157323   4.051   0.864  12.034 -1.6538  0.0763  1.9223
11944TIP3    H257324   3.983   0.829  11.903  1.2736  0.0549  0.3484
11945TIP3   OH257325   6.121   2.352   3.909  0.4540 -0.3709  0.1717
11945TIP3    H157326   6.051   2.340   3.844  1.2928 -1.2848 -0.5742
11945TIP3    H257327   6.193   2.297   3.878  2.2451  2.0496 -0.1309
11946TIP3   OH257328   3.926   4.181  11.996 -0.3407  0.1994 -0.0800
11946TIP3    H157329   3.985   4.157  11.925 -1.1215  1.0546 -1.0330
11946TIP3    H257330   3.841   4.192  11.954 -0.5463  1.9588  0.7715
11947TIP3   OH257331   0.494   2.002  15.049  0.5526  0.2411 -0.7797
11947TIP3    H157332   0.554   2.051  14.992  0.0381  2.9957  0.9685
11947TIP3    H257333   0.550   1.964  15.116  0.6089  0.9542 -0.4201
11948TIP3   OH257334   5.585   0.879  14.510  0.1656 -0.3445 -0.0803
11948TIP3    H157335   5.626   0.890  14.596  0.8874 -0.1987 -0.4444
11948TIP3    H257336   5.518   0.947  14.507 -1.0447 -1.4561  1.0702
11949TIP3   OH257337   5.255   1.174  15.013 -0.4624  0.2245  0.8477
11949TIP3    H157338   5.292   1.263  15.007  0.6730 -0.3225 -0.8652
11949TIP3    H257339   5.268   1.148  15.104  1.2134  0.9875  0.8480
11950TIP3   OH257340   4.838   5.341  11.296  0.4438  0.7061  0.1388
11950TIP3    H157341   4.783   5.296  11.360  0.1539 -1.3906 -1.5357
11950TIP3    H257342   4.776   5.392  11.243  0.2366 -0.5284 -0.8351
11951TIP3   OH257343   3.322   3.599   6.183 -0.0899 -0.1452  0.4532
11951TIP3    H157344   3.255   3.660   6.153 -0.0673 -0.6127 -0.5666
11951TIP3    H257345   3.398   3.619   6.128  0.2471 -0.3737  0.8359
11952TIP3   OH257346   0.086   5.221  12.020 -0.3217  0.5064  0.0369
11952TIP3    H157347   0.110   5.131  12.042 -0.9623  0.5369  0.8921
11952TIP3    H257348   0.114   5.232  11.929  0.7028 -0.2185  0.2618
11953TIP3   OH257349   6.564   3.639  15.045 -0.3330 -0.0313 -0.0816
11953TIP3    H157350   6.587   3.730  15.027 -0.2607  0.1275  0.8083
11953TIP3    H257351   6.493   3.620  14.983 -1.3974  1.1128  0.7561
11954TIP3   OH257352   1.644   4.245   0.944 -0.0703 -0.2888 -0.2064
11954TIP3    H157353   1.707   4.313   0.918 -0.2482 -0.1688 -0.3286
11954TIP3    H257354   1.690   4.163   0.931 -0.5326 -0.2961 -2.0056
11955TIP3   OH257355   0.776   1.590   2.647 -0.0645  0.4535 -0.4463
11955TIP3    H157356   0.867   1.617   2.660  0.3278 -0.7784 -0.5724
11955TIP3    H257357   0.744   1.570   2.735  1.3399 -3.9168 -0.7906
11956TIP3   OH257358   6.608   6.783   5.736 -0.3189 -0.0822  0.2191
11956TIP3    H157359   6.595   6.843   5.663 -0.9294 -1.7109 -1.0624
11956TIP3    H257360   6.697   6.749   5.724  0.0866  0.6784  1.0338
11957TIP3   OH257361   3.137   6.557  13.101 -0.3556  0.3437 -0.4916
11957TIP3    H157362   3.074   6.629  13.094 -0.7633 -0.1148 -1.6121
11957TIP3    H257363   3.086   6.484  13.136 -0.2833  0.1792 -0.7289
11958TIP3   OH257364   0.198   0.059  16.813  0.4604 -0.1461 -0.0738
11958TIP3    H157365   0.164   0.040  16.900  0.7622  0.0518  0.0890
11958TIP3    H257366   0.293   0.048  16.821  0.5474  0.4913 -0.2162
11959TIP3   OH257367   2.611   2.500  14.150 -0.1771 -0.0399  0.0142
11959TIP3    H157368   2.674   2.554  14.102  2.2797 -2.4558  0.3913
11959TIP3    H257369   2.577   2.439  14.085 -0.6920  0.0089  0.2360
11960TIP3   OH257370   3.457   4.616  11.218  0.4198  0.1757 -0.5787
11960TIP3    H157371   3.398   4.641  11.146  2.9162  0.9285 -2.4364
11960TIP3    H257372   3.542   4.604  11.176  1.3403 -2.2158  1.8320
11961TIP3   OH257373   5.416   2.206   4.005  0.3794  0.2180  0.0803
11961TIP3    H157374   5.351   2.259   3.958 -1.9710 -1.5239  1.2319
11961TIP3    H257375   5.462   2.267   4.061 -0.8935  1.3571 -0.1018
11962TIP3   OH257376   6.318   2.791  15.386 -0.6077  0.5663  0.6609
11962TIP3    H157377   6.227   2.819  15.394 -0.5075  0.9192  0.5856
11962TIP3    H257378   6.361   2.827  15.464 -0.5911  0.1677  0.8373
11963TIP3   OH257379   4.769   0.726  16.539  0.2035  0.5128 -0.3776
11963TIP3    H157380   4.746   0.813  16.507 -0.1955  0.4931 -0.1435
11963TIP3    H257381   4.728   0.666  16.476  0.6877  0.4970 -0.6787
11964TIP3   OH257382   2.848   6.501  11.609 -0.1401  0.2383 -0.0581
11964TIP3    H157383   2.928   6.448  11.600 -1.3096 -1.6739  0.5607
11964TIP3    H257384   2.814   6.508  11.519 -0.3847 -0.7190 -0.0453
11965TIP3   OH257385   3.918   0.626   5.477 -0.9776 -0.2925  0.4197
11965TIP3    H157386   3.936   0.683   5.551  1.4266 -1.4623  0.7636
11965TIP3    H257387   3.947   0.675   5.401 -1.4299  0.0237  0.4488
11966TIP3   OH257388   4.982   1.520   3.390  0.5227  0.5582 -0.5358
11966TIP3    H157389   5.032   1.465   3.329  0.1086 -0.9527  0.4428
11966TIP3    H257390   4.891   1.503   3.368  0.3772  0.2591  0.2769
11967TIP3   OH257391   1.513   0.981   4.694 -0.5892  0.0201  0.2052
11967TIP3    H157392   1.553   0.997   4.779 -0.1011 -0.2718  0.0274
11967TIP3    H257393   1.457   0.904   4.708 -0.5072 -0.0292  0.2619
11968TIP3   OH257394   3.299   1.845   2.658  0.9710 -0.1794  0.1617
11968TIP3    H157395   3.241   1.830   2.733 -0.4989 -0.2892 -0.9686
11968TIP3    H257396   3.332   1.758   2.636  0.9619 -0.2287  0.3458
11969TIP3   OH257397   0.166   1.897  13.947  0.4525 -0.3681 -0.5346
11969TIP3    H157398   0.245   1.846  13.927 -0.3193 -1.1623 -1.5565
11969TIP3    H257399   0.181   1.930  14.036  0.3643 -3.4991  0.6811
11970TIP3   OH257400   4.059   4.508   2.669 -0.1783  0.4364  0.7174
11970TIP3    H157401   4.055   4.413   2.659 -0.5309  0.6952 -2.0307
11970TIP3    H257402   3.968   4.535   2.680  0.0008  0.4008  2.4632
11971TIP3   OH257403   3.993   4.193   1.224  0.2277 -0.1761  0.5601
11971TIP3    H157404   3.974   4.180   1.131 -0.0192  1.3057  0.3938
11971TIP3    H257405   4.086   4.216   1.227 -0.5288  3.0638  0.3381
11972TIP3   OH257406   1.707   5.985  13.982  0.3415 -0.0550  0.4363
11972TIP3    H157407   1.721   5.892  13.998 -1.2486 -0.3250  0.3978
11972TIP3    H257408   1.612   5.997  13.993  0.3205  1.2711 -0.9778
11973TIP3   OH257409   4.054   1.855  16.201 -0.2485 -0.2875  0.3471
11973TIP3    H157410   4.085   1.943  16.178  0.1311 -0.4853  0.0887
11973TIP3    H257411   4.056   1.853  16.296 -0.7534  0.1598  0.3694
11974TIP3   OH257412   3.795   1.029  14.902 -0.0062 -0.1695  0.0144
11974TIP3    H157413   3.707   0.996  14.884  0.4566 -1.5504  0.2097
11974TIP3    H257414   3.803   1.022  14.997  0.8152 -1.3945 -0.1282
11975TIP3   OH257415   1.810   2.603  14.571 -0.0959 -0.3696  0.0783
11975TIP3    H157416   1.853   2.534  14.521  1.7963 -0.3617  1.6461
11975TIP3    H257417   1.754   2.647  14.508  1.8005 -0.7250 -1.8960
11976TIP3   OH257418   4.751   1.022   4.467  0.2200  0.0987 -0.3158
11976TIP3    H157419   4.728   0.988   4.554 -0.6410  2.4444  0.4117
11976TIP3    H257420   4.846   1.011   4.462  0.1533 -0.9892  0.5035
11977TIP3   OH257421   0.380   1.546   4.753 -0.3784 -0.1635 -0.4940
11977TIP3    H157422   0.408   1.474   4.697 -0.6895 -0.4896 -0.2314
11977TIP3    H257423   0.319   1.596   4.698  2.5822  2.0038 -1.9775
11978TIP3   OH257424   5.946   0.605  12.308  0.1056  0.1464  0.0946
11978TIP3    H157425   5.932   0.511  12.292 -0.1533  0.4345 -1.5193
11978TIP3    H257426   6.040   0.618  12.298 -0.2341  0.6283 -3.2582
11979TIP3   OH257427   5.284   2.618   1.486 -0.1518 -0.6135 -0.4067
11979TIP3    H157428   5.294   2.681   1.557 -0.0110 -2.7247  1.4844
11979TIP3    H257429   5.355   2.556   1.498 -0.3303 -1.2107 -2.1997
11980TIP3   OH257430   1.875   3.230  14.045 -0.0851  0.1460  0.1322
11980TIP3    H157431   1.805   3.294  14.058  0.8499  1.6825 -2.0988
11980TIP3    H257432   1.839   3.148  14.080 -2.5562  1.1630  0.0709
11981TIP3   OH257433   5.690   5.817   4.013 -0.1925 -0.6675  0.0150
11981TIP3    H157434   5.634   5.887   3.980  0.1365 -0.8972 -1.0792
11981TIP3    H257435   5.769   5.861   4.043 -0.2814 -0.4995  0.0012
11982TIP3   OH257436   3.826   3.406  14.066 -0.5122  0.0578  0.0261
11982TIP3    H157437   3.798   3.315  14.072  0.2776 -0.2303 -0.4898
11982TIP3    H257438   3.837   3.434  14.156 -0.5051 -0.4409  0.1812
11983TIP3   OH257439   2.494   1.738   2.842 -0.0572 -0.1734  0.2470
11983TIP3    H157440   2.439   1.660   2.853  1.3393 -1.5470 -2.0421
11983TIP3    H257441   2.563   1.728   2.907 -0.1452 -0.6067  0.2746
11984TIP3   OH257442   0.871   5.233  12.101  0.1612  0.0024  0.6027
11984TIP3    H157443   0.847   5.274  12.018  0.0397 -0.3894  0.4431
11984TIP3    H257444   0.791   5.190  12.131  0.2324  0.0589  0.8718
11985TIP3   OH257445   6.616   2.662   1.580 -0.5020 -0.2170  0.1660
11985TIP3    H157446   6.636   2.664   1.486  0.8047 -1.1473  0.4201
11985TIP3    H257447   6.568   2.744   1.595  1.3994  1.1308 -0.8345
11986TIP3   OH257448   4.393   1.106  12.510 -0.0459  0.1442 -0.2533
11986TIP3    H157449   4.396   1.158  12.430 -2.6276 -2.6015 -2.2523
11986TIP3    H257450   4.472   1.052  12.506  0.5312  0.9779 -0.2262
11987TIP3   OH257451   0.453   4.257  13.187 -0.1334 -0.1182  0.4136
11987TIP3    H157452   0.414   4.259  13.099  0.7869  2.1861  0.0192
11987TIP3    H257453   0.505   4.177  13.188 -0.3648 -0.3141 -1.0511
11988TIP3   OH257454   3.229   2.774  14.621  0.3733 -0.1903  0.5441
11988TIP3    H157455   3.201   2.864  14.608  2.6174  0.4994  0.2010
11988TIP3    H257456   3.179   2.743  14.696 -0.6573  1.2282  0.4526
11989TIP3   OH257457   1.596   5.151   6.140 -0.0143 -0.5966 -0.7800
11989TIP3    H157458   1.665   5.088   6.162  0.5729 -0.1335 -1.2661
11989TIP3    H257459   1.581   5.138   6.047 -0.6627 -0.7622 -0.6542
11990TIP3   OH257460   0.148   1.613   1.348 -0.4290 -1.2814  0.2888
11990TIP3    H157461   0.063   1.581   1.377 -0.7504 -1.5607 -0.9442
11990TIP3    H257462   0.211   1.562   1.398 -0.9727 -0.8209  1.4819
11991TIP3   OH257463   3.179   6.704  13.459  0.0867  0.5088 -0.4680
11991TIP3    H157464   3.251   6.695  13.398 -0.3036  0.0440 -0.8659
11991TIP3    H257465   3.102   6.720  13.404 -0.2695  0.0513 -0.1073
11992TIP3   OH257466   5.969   4.398   1.948  0.8468 -0.1336 -0.0470
11992TIP3    H157467   5.947   4.489   1.968 -0.4587 -0.4988  0.2717
11992TIP3    H257468   6.024   4.369   2.020  2.2870  0.7709 -0.7746
11993TIP3   OH257469   2.005   4.385  13.889  0.3164  0.1482  0.0711
11993TIP3    H157470   2.007   4.292  13.913 -2.1873 -0.4205 -1.7412
11993TIP3    H257471   2.069   4.392  13.818  1.2619  0.0364  0.8983
11994TIP3   OH257472   4.181   6.676  12.960  0.1398  0.2612 -0.1942
11994TIP3    H157473   4.091   6.655  12.986  0.2422  0.4351  0.2907
11994TIP3    H257474   4.206   6.750  13.015  1.3722 -1.2203  1.2912
11995TIP3   OH257475   5.467   0.013   1.982  0.2783 -0.7114  0.4340
11995TIP3    H157476   5.503   0.047   2.064 -0.4270  0.7189  0.1683
11995TIP3    H257477   5.543   0.010   1.923  0.6716 -1.1701  0.9568
11996TIP3   OH257478   6.146   4.052  12.852  0.0748  0.2844  0.1373
11996TIP3    H157479   6.070   4.032  12.797 -1.9347  0.3733  2.7703
11996TIP3    H257480   6.198   3.971  12.852 -1.6267 -0.8439  0.7529
11997TIP3   OH257481   4.395   5.185   4.089  0.3784  0.7243 -0.4282
11997TIP3    H157482   4.449   5.244   4.142 -1.0041  1.8689 -0.2593
11997TIP3    H257483   4.429   5.195   4.000  0.3606  1.5496 -0.3465
11998TIP3   OH257484   4.390   1.340  10.798 -0.6029  0.1906  0.0559
11998TIP3    H157485   4.445   1.314  10.725 -0.2123  1.7314 -0.2280
11998TIP3    H257486   4.406   1.434  10.808 -0.0508 -0.1283  2.6129
11999TIP3   OH257487   6.503   2.893   3.143  0.0658 -0.0228  0.5563
11999TIP3    H157488   6.471   2.895   3.053  0.5661  0.0931  0.3788
11999TIP3    H257489   6.424   2.898   3.197 -0.2350 -0.0885  0.1263
12000TIP3   OH257490   4.172   2.327  16.798  0.1887 -0.0252  0.0278
12000TIP3    H157491   4.113   2.326  16.873  1.3205 -0.5651  0.9161
12000TIP3    H257492   4.246   2.272  16.824  0.8579  0.2312 -1.2671
12001TIP3   OH257493   6.493   1.362  13.886  0.3891 -0.0156 -0.4968
12001TIP3    H157494   6.516   1.442  13.932  0.8779 -1.5135  1.9253
12001TIP3    H257495   6.572   1.339  13.837  0.8305  0.0513  0.1835
12002TIP3   OH257496   0.953   2.094   6.002  0.1481 -0.0280  0.1400
12002TIP3    H157497   1.035   2.123   6.043  0.2083 -0.0068  0.0025
12002TIP3    H257498   0.975   2.078   5.911  0.1284 -0.5818  0.2350
12003TIP3   OH257499   4.898   2.269  13.424  0.1654 -0.4689  0.0982
12003TIP3    H157500   4.823   2.301  13.374  0.5580  0.9441  0.3946
12003TIP3    H257501   4.971   2.326  13.397  0.5040 -0.0559  1.8586
12004TIP3   OH257502   5.677   2.259  13.085  0.4116 -0.2191  0.5921
12004TIP3    H157503   5.704   2.206  13.010  0.9317  0.7035  0.1135
12004TIP3    H257504   5.662   2.346  13.049 -0.1461  0.0350  1.4195
12005TIP3   OH257505   3.833   0.711  15.472  0.1084  0.2643 -0.7606
12005TIP3    H157506   3.780   0.789  15.484  0.0190  0.2546 -1.0929
12005TIP3    H257507   3.889   0.707  15.550 -0.4376  0.2267 -0.3715
12006TIP3   OH257508   4.884   2.928  10.396 -0.3111 -0.0922  0.2051
12006TIP3    H157509   4.906   2.839  10.368  1.4500  0.6998 -1.0240
12006TIP3    H257510   4.815   2.916  10.461 -1.3728 -2.2491 -1.2538
12007TIP3   OH257511   4.184   6.131   4.878  0.2514  0.7227  0.3154
12007TIP3    H157512   4.139   6.213   4.860  1.8093  1.5175 -0.0538
12007TIP3    H257513   4.241   6.118   4.802 -1.2930 -1.6396 -0.5057
12008TIP3   OH257514   4.691   6.158   0.710 -0.1974  0.5682  0.3196
12008TIP3    H157515   4.776   6.203   0.704 -1.6434  3.1695 -1.0839
12008TIP3    H257516   4.668   6.164   0.803  0.3445  1.3778  0.4070
12009TIP3   OH257517   3.861   3.153   2.877 -0.1254  0.6326 -0.4321
12009TIP3    H157518   3.869   3.141   2.783  0.9314 -1.1448 -0.1514
12009TIP3    H257519   3.820   3.072   2.908  1.4661  0.2835  0.8563
12010TIP3   OH257520   4.384   4.403  12.649 -0.2010  0.0539 -0.4509
12010TIP3    H157521   4.431   4.326  12.682  0.0618 -0.0488 -1.0520
12010TIP3    H257522   4.446   4.445  12.590 -0.4677  0.5434 -0.3821
12011TIP3   OH257523   6.774   1.598  15.835  0.8437 -0.3318  0.5597
12011TIP3    H157524   6.801   1.641  15.754 -0.3242 -0.0197  0.3299
12011TIP3    H257525   6.682   1.574  15.821  1.5858 -3.3308  0.5178
12012TIP3   OH257526   0.308   0.785   5.084  0.2350 -0.0555  0.6258
12012TIP3    H157527   0.242   0.815   5.146  0.1233  0.0173  0.4723
12012TIP3    H257528   0.389   0.827   5.112  0.5397 -1.3294  1.7356
12013TIP3   OH257529   4.868   3.351   3.251  0.1684  0.5932  0.1199
12013TIP3    H157530   4.791   3.353   3.195  0.7979 -0.8716 -0.8458
12013TIP3    H257531   4.871   3.438   3.292  0.0998  1.9627 -2.6770
12014TIP3   OH257532   0.459   5.982   5.988 -0.5102  0.0405  0.0458
12014TIP3    H157533   0.381   5.948   5.944  1.3774 -4.6172 -0.0588
12014TIP3    H257534   0.448   5.957   6.079  0.4237  0.1527  0.1938
12015TIP3   OH257535   1.417   3.271   0.517 -0.0039  0.2069  0.1347
12015TIP3    H157536   1.374   3.355   0.536 -0.6859 -0.3433  1.0290
12015TIP3    H257537   1.430   3.231   0.603 -0.7612 -1.1510 -0.3879
12016TIP3   OH257538   1.290   4.956  13.368  0.2798 -0.0859 -0.3341
12016TIP3    H157539   1.348   4.896  13.416 -1.4693 -0.6065  1.1813
12016TIP3    H257540   1.326   5.043  13.385  0.7696 -0.4245  0.3937
12017TIP3   OH257541   6.227   6.551  15.019 -0.3237  0.1291  0.1099
12017TIP3    H157542   6.309   6.572  14.976 -0.6446 -1.9885 -1.5741
12017TIP3    H257543   6.177   6.633  15.015  0.8178  0.7940 -0.8869
12018TIP3   OH257544   0.482   3.154  11.441  0.0829  0.6015 -0.5416
12018TIP3    H157545   0.438   3.070  11.456  0.2483  0.4517 -0.8967
12018TIP3    H257546   0.434   3.193  11.368 -0.3160  1.0456 -0.0456
12019TIP3   OH257547   4.399   2.886   5.127  0.1302  0.1173 -0.0036
12019TIP3    H157548   4.468   2.858   5.187  0.4110 -0.3981 -0.5536
12019TIP3    H257549   4.374   2.973   5.157  0.3213 -0.1048  0.8066
12020TIP3   OH257550   6.251   6.035   1.895 -1.3188 -0.5245  0.0760
12020TIP3    H157551   6.215   6.085   1.969 -3.4071 -1.1477 -0.4784
12020TIP3    H257552   6.236   6.091   1.819  0.0437 -0.2578 -0.0091
12021TIP3   OH257553   2.578   1.091  11.427  0.0479 -0.2535 -0.4717
12021TIP3    H157554   2.674   1.087  11.430 -0.0303 -1.7581  0.3690
12021TIP3    H257555   2.559   1.149  11.353  1.6069  0.2054 -0.5300
12022TIP3   OH257556   1.918   0.261  16.001  0.3039 -0.0113 -0.6436
12022TIP3    H157557   1.874   0.255  16.086  0.8577 -0.2803 -0.3685
12022TIP3    H257558   1.978   0.336  16.011  0.8515 -0.4527 -0.5639
12023TIP3   OH257559   0.230   3.800  16.469  0.1872  0.2890  0.4015
12023TIP3    H157560   0.201   3.834  16.553 -0.4114 -0.1798  0.3901
12023TIP3    H257561   0.162   3.828  16.407  2.1578  3.2557 -0.4782
12024TIP3   OH257562   5.727   2.924   3.121 -0.0858 -0.6010 -0.5190
12024TIP3    H157563   5.781   2.848   3.142  1.9408  0.3539 -2.0625
12024TIP3    H257564   5.641   2.888   3.100  0.5194 -2.3479 -0.0529
12025TIP3   OH257565   6.764   2.176   4.039  0.5173 -0.1878 -0.0018
12025TIP3    H157566   6.671   2.189   4.021  0.1846 -0.6992  1.2989
12025TIP3    H257567   6.807   2.194   3.956 -0.7594 -0.1031 -0.6553
12026TIP3   OH257568   6.763   3.495  12.142 -0.2199  0.0923  0.1215
12026TIP3    H157569   6.809   3.476  12.224 -0.7056  0.6367  0.5248
12026TIP3    H257570   6.684   3.442  12.146  0.2405 -0.6338 -0.4451
12027TIP3   OH257571   6.124   1.090   3.866 -0.1403 -0.2697  0.4412
12027TIP3    H157572   6.085   1.146   3.798 -1.1735  0.5728  1.7076
12027TIP3    H257573   6.096   1.002   3.843 -0.0129 -0.0592 -0.5479
12028TIP3   OH257574   0.531   4.486   4.029  0.0888 -0.1046  0.7820
12028TIP3    H157575   0.528   4.452   4.119  0.5895  1.4214  1.4004
12028TIP3    H257576   0.488   4.572   4.035  1.1491  0.5008 -0.1907
12029TIP3   OH257577   3.698   5.795   4.250  0.1224  0.0463 -0.0207
12029TIP3    H157578   3.748   5.773   4.171  0.6806 -0.3319  0.4358
12029TIP3    H257579   3.755   5.856   4.298  0.7750 -1.4952  1.1940
12030TIP3   OH257580   6.721   6.069   5.935  0.8954 -0.5694 -0.6943
12030TIP3    H157581   6.645   6.028   5.894  0.7332  0.6031 -1.5968
12030TIP3    H257582   6.757   6.126   5.867 -1.6498  4.4872  1.9188
12031TIP3   OH257583   6.629   2.304  12.863  0.6005 -0.0812 -0.0531
12031TIP3    H157584   6.543   2.321  12.901 -0.3841 -3.5825 -0.5091
12031TIP3    H257585   6.680   2.266  12.935  0.5676 -1.3643 -0.6866
12032TIP3   OH257586   6.771   4.937  14.702  0.1513  0.0773 -0.5587
12032TIP3    H157587   6.709   4.865  14.718  0.0091  0.0983 -0.9896
12032TIP3    H257588   6.788   4.932  14.608  0.2371  0.5302 -0.5665
12033TIP3   OH257589   3.079   0.111  14.892  0.0213  0.1128  0.4690
12033TIP3    H157590   3.021   0.049  14.936 -0.2014 -0.7775 -1.0182
12033TIP3    H257591   3.139   0.056  14.841 -0.8143  1.0878 -1.6694
12034TIP3   OH257592   3.963   2.029  13.048  0.6701 -0.3295  0.3053
12034TIP3    H157593   3.957   2.020  13.143 -1.9986 -0.7714  0.1321
12034TIP3    H257594   4.031   1.967  13.022  0.4232 -1.2423  1.7978
12035TIP3   OH257595   2.694   6.038  13.766  0.3666  0.1331  0.2845
12035TIP3    H157596   2.615   6.002  13.807  2.2687 -2.3779  1.9051
12035TIP3    H257597   2.719   5.973  13.700  1.4445  0.5368  0.2768
12036TIP3   OH257598   5.454   0.881  12.515  0.2749 -0.5691 -0.0918
12036TIP3    H157599   5.452   0.941  12.441  1.7075 -0.9287 -0.4410
12036TIP3    H257600   5.546   0.859  12.526 -0.3245 -3.7162 -0.7931
12037TIP3   OH257601   1.426   4.990   2.061  0.8683  0.1432 -0.3241
12037TIP3    H157602   1.498   5.038   2.020  0.0675  0.8669 -0.8980
12037TIP3    H257603   1.356   4.992   1.996  0.0947  0.0280  0.5010
12038TIP3   OH257604   3.298   3.011   4.989  0.1611  0.0436 -0.2331
12038TIP3    H157605   3.211   2.992   5.025  0.5482 -0.1959  0.6016
12038TIP3    H257606   3.345   2.927   4.995  0.6651  0.3355 -0.0308
12039TIP3   OH257607   6.099   5.705   0.379  0.3312  0.0261  0.2793
12039TIP3    H157608   6.098   5.615   0.412  0.2520 -0.8012 -1.9359
12039TIP3    H257609   6.087   5.696   0.285 -1.5747  2.4592  0.2530
12040TIP3   OH257610   0.441   1.624  10.625 -0.1579 -0.5901  0.4448
12040TIP3    H157611   0.463   1.709  10.587 -0.8829 -1.6526 -2.4757
12040TIP3    H257612   0.395   1.645  10.706 -0.4150  1.8007 -0.2908
12041TIP3   OH257613   0.316   1.863  14.896 -0.7210  0.2702  0.9520
12041TIP3    H157614   0.269   1.940  14.864  0.8578  0.8947  0.0934
12041TIP3    H257615   0.381   1.897  14.957  1.7757 -0.0516 -1.4252
12042TIP3   OH257616   0.799   4.020  14.394 -0.1692 -0.5862  0.1129
12042TIP3    H157617   0.749   3.947  14.360  0.1515  0.3544 -2.4849
12042TIP3    H257618   0.733   4.085  14.419 -0.3621  0.0208 -1.8448
12043TIP3   OH257619   0.081   3.864  14.186  0.7260 -0.4433  0.3083
12043TIP3    H157620   0.028   3.820  14.120  0.0776 -0.7184  1.0023
12043TIP3    H257621   0.018   3.898  14.249  1.3493 -0.4550  0.9518
12044TIP3   OH257622   0.671   2.165   2.455  0.6001 -0.4056  0.6725
12044TIP3    H157623   0.684   2.232   2.388  1.5771  1.6647  2.8988
12044TIP3    H257624   0.582   2.178   2.486  1.2575  0.7997  2.0918
12045TIP3   OH257625   5.262   3.005   2.403 -0.5674 -0.3723  0.6484
12045TIP3    H157626   5.349   2.975   2.429 -0.5078  0.4269  1.3802
12045TIP3    H257627   5.274   3.040   2.315 -0.1561 -0.2599  0.7493
12046TIP3   OH257628   2.081   0.814   2.358 -0.4269 -0.2254 -0.3738
12046TIP3    H157629   2.125   0.738   2.320  0.3324  0.1462 -0.2517
12046TIP3    H257630   1.990   0.807   2.329 -0.1733 -0.7332 -1.0446
12047TIP3   OH257631   5.239   5.671  11.333 -0.7198  0.5659  0.4186
12047TIP3    H157632   5.196   5.671  11.419  0.1216 -0.2907  0.8496
12047TIP3    H257633   5.330   5.649  11.352 -0.6358 -0.1139 -0.7485
12048TIP3   OH257634   3.205   2.472  15.127 -0.3121  0.2087 -0.2700
12048TIP3    H157635   3.169   2.496  15.042 -2.4232  0.6455  0.6934
12048TIP3    H257636   3.214   2.377  15.123  2.5314  0.5198 -2.0448
12049TIP3   OH257637   1.717   6.317  15.420 -0.2687  0.3280 -1.1403
12049TIP3    H157638   1.806   6.330  15.386  0.2219  1.2366  0.3954
12049TIP3    H257639   1.692   6.403  15.454 -0.8653 -0.4434  0.4185
12050TIP3   OH257640   2.103   6.039   5.870 -0.2512 -0.1480 -0.1549
12050TIP3    H157641   2.140   6.127   5.864  0.2954 -0.3947 -0.4187
12050TIP3    H257642   2.029   6.048   5.930 -1.0348  0.7632 -1.2527
12051TIP3   OH257643   6.661   4.809  16.314  0.5187  0.3381 -0.1427
12051TIP3    H157644   6.711   4.734  16.349 -2.4480 -1.7620 -0.2012
12051TIP3    H257645   6.679   4.808  16.220  1.1291  0.2280 -0.0305
12052TIP3   OH257646   6.667   0.565  12.807 -1.0400  0.2933  0.2526
12052TIP3    H157647   6.662   0.485  12.755 -1.4713  0.3869  0.1427
12052TIP3    H257648   6.657   0.636  12.743 -2.1463  0.3948  0.5225
12053TIP3   OH257649   5.904   3.941   1.980 -0.2456 -0.2088  0.3274
12053TIP3    H157650   5.906   3.952   2.075  0.4321 -1.2978  0.4407
12053TIP3    H257651   5.824   3.987   1.953  0.4324  1.5382  1.2196
12054TIP3   OH257652   4.597   2.242   4.612  0.8175 -0.2820 -0.1915
12054TIP3    H157653   4.523   2.295   4.640  1.0239 -0.7449  1.2688
12054TIP3    H257654   4.613   2.269   4.522 -0.7366  0.2499 -0.3176
12055TIP3   OH257655   3.436   5.477   5.599  0.0149  0.1231  0.4375
12055TIP3    H157656   3.490   5.400   5.618  1.0435  0.9892  1.0852
12055TIP3    H257657   3.396   5.499   5.683  1.0840  1.3104  0.6600
12056TIP3   OH257658   4.467   0.520  15.583 -0.5256  0.4749 -0.2237
12056TIP3    H157659   4.505   0.603  15.612 -1.2298  0.0409  2.0454
12056TIP3    H257660   4.542   0.464  15.566 -0.0659  1.2464 -0.7454
12057TIP3   OH257661   6.617   6.750  11.223 -0.2387 -0.2945  0.1506
12057TIP3    H157662   6.661   6.835  11.222 -1.1515  0.1773 -0.1473
12057TIP3    H257663   6.595   6.734  11.131  0.1505 -0.9727  0.1737
12058TIP3   OH257664   2.694   1.102  16.551  0.0258 -0.6411 -0.1233
12058TIP3    H157665   2.745   1.172  16.592  0.1446 -0.5178 -0.4828
12058TIP3    H257666   2.749   1.024  16.561  0.1381 -0.5740 -0.2145
12059TIP3   OH257667   4.080   3.677   3.968 -0.0139  0.2105  0.1798
12059TIP3    H157668   4.045   3.612   4.029  1.2251 -0.7300 -0.0885
12059TIP3    H257669   4.064   3.639   3.881  0.8525  0.1842  0.0288
12060TIP3   OH257670   3.081   5.475  13.052  0.5604  0.4937  0.1839
12060TIP3    H157671   3.077   5.398  12.995 -0.6976  1.3314 -0.9154
12060TIP3    H257672   3.098   5.439  13.139  1.5616 -0.8942 -0.5569
12061TIP3   OH257673   0.212   1.030   4.758  0.0673 -0.3747  0.1649
12061TIP3    H157674   0.266   0.953   4.771  0.8671  0.2470  0.5717
12061TIP3    H257675   0.149   1.028   4.831  0.9765  0.0949  0.9802
12062TIP3   OH257676   3.989   6.777  15.367 -0.2942  0.2446 -0.0922
12062TIP3    H157677   3.991   6.871  15.387 -1.1015  0.3961 -0.7111
12062TIP3    H257678   3.937   6.739  15.438 -1.8507  0.5738 -1.0358
12063TIP3   OH257679   1.836   2.766   3.720  0.1588  0.7098 -0.1504
12063TIP3    H157680   1.862   2.679   3.752 -1.8964 -0.2524 -1.0355
12063TIP3    H257681   1.894   2.826   3.767  1.6841 -1.1253  0.4198
12064TIP3   OH257682   1.178   2.661  11.770 -0.0550  0.3218 -0.0438
12064TIP3    H157683   1.209   2.748  11.794  0.4099 -0.2963  1.6483
12064TIP3    H257684   1.106   2.677  11.709  2.0908  1.8046 -2.2467
12065TIP3   OH257685   1.565   1.847  13.382  0.1576  1.0175 -0.0815
12065TIP3    H157686   1.642   1.902  13.397  0.4926  1.2481 -2.3865
12065TIP3    H257687   1.493   1.909  13.372  0.7049  1.1809 -3.6838
12066TIP3   OH257688   4.386   2.149  16.864  0.2115 -0.1480 -0.8554
12066TIP3    H157689   4.436   2.072  16.893  1.1848  1.0383  0.7049
12066TIP3    H257690   4.366   2.196  16.945  0.8620  1.9795 -1.9038
12067TIP3   OH257691   5.227   2.235  13.826  0.4404 -0.1436  0.8498
12067TIP3    H157692   5.228   2.268  13.736  0.4508 -1.6772  0.2731
12067TIP3    H257693   5.319   2.233  13.852  0.6196 -1.6423  0.1515
12068TIP3   OH257694   2.970   3.327  15.463 -0.5759  0.2371  0.5207
12068TIP3    H157695   3.014   3.242  15.457  0.5962  0.8827 -0.3247
12068TIP3    H257696   3.039   3.387  15.493 -0.8689  1.2689 -0.8325
12069TIP3   OH257697   2.454   3.330   2.195  0.0347 -0.0134 -0.2950
12069TIP3    H157698   2.516   3.399   2.218 -0.5518 -0.2562  2.1896
12069TIP3    H257699   2.401   3.319   2.274 -1.5694 -1.5052 -1.5522
12070TIP3   OH257700   0.056   2.720   3.882 -0.4286  0.1966  0.8409
12070TIP3    H157701  -0.024   2.773   3.880  0.4418  1.5042 -1.1450
12070TIP3    H257702   0.044   2.657   3.811 -0.3650 -0.6519  1.5721
12071TIP3   OH257703   3.280   6.095  11.622 -0.3856  0.1079  0.0073
12071TIP3    H157704   3.296   6.186  11.649  0.5140 -0.0736  0.0975
12071TIP3    H257705   3.201   6.100  11.569 -0.4763  0.9163  0.2069
12072TIP3   OH257706   0.770   2.355   1.409 -0.0242  0.1889 -0.3750
12072TIP3    H157707   0.703   2.405   1.362 -0.0500 -0.5170 -1.0987
12072TIP3    H257708   0.849   2.409   1.403 -0.2033  0.4289 -0.6278
12073TIP3   OH257709   2.654   5.816  14.674  0.8942  0.4263  0.4733
12073TIP3    H157710   2.565   5.852  14.674 -0.6166 -3.0915  0.3866
12073TIP3    H257711   2.685   5.829  14.763 -1.6104 -2.5053  1.8988
12074TIP3   OH257712   4.858   3.229   5.576 -0.0840  0.0827  0.0102
12074TIP3    H157713   4.812   3.146   5.575  0.5594 -0.2784 -0.7977
12074TIP3    H257714   4.949   3.207   5.554  0.0067  1.0425 -0.6485
12075TIP3   OH257715   5.243   4.083  16.839 -0.0295  0.4701 -0.0792
12075TIP3    H157716   5.280   4.019  16.778 -1.1344 -1.3306  1.1119
12075TIP3    H257717   5.294   4.162  16.824  2.4132 -1.1252 -0.5156
12076TIP3   OH257718   6.397   5.090   0.203 -0.8602 -0.5349 -0.1295
12076TIP3    H157719   6.486   5.124   0.201 -0.4213 -1.5430  1.2041
12076TIP3    H257720   6.407   4.995   0.196 -1.7498 -0.7413  1.0718
12077TIP3   OH257721   5.194   0.140  15.801  0.0100 -0.0000 -0.0926
12077TIP3    H157722   5.191   0.046  15.820 -0.6074 -0.0473 -0.4284
12077TIP3    H257723   5.132   0.153  15.730  1.0754  0.4570 -0.9525
12078TIP3   OH257724   0.332   5.341  15.808  0.0117 -0.4287 -0.3992
12078TIP3    H157725   0.414   5.352  15.856  1.1593  1.4752 -2.7007
12078TIP3    H257726   0.327   5.247  15.788 -1.3000 -1.6034  4.6823
12079TIP3   OH257727   4.708   2.240   5.989 -0.1832  0.3677 -0.0973
12079TIP3    H157728   4.680   2.176   6.055 -1.0431 -0.6621 -1.4286
12079TIP3    H257729   4.793   2.208   5.959 -0.4118  0.0840 -0.4492
12080TIP3   OH257730   3.326   2.334  14.839  0.0584  0.3465 -0.7707
12080TIP3    H157731   3.337   2.263  14.902 -0.1378  0.3709 -0.7108
12080TIP3    H257732   3.250   2.382  14.870  0.0538  0.4476 -0.9411
12081TIP3   OH257733   4.402   1.451   0.624 -0.3095  0.1168 -0.4955
12081TIP3    H157734   4.351   1.524   0.658 -0.1468 -0.3431  0.7942
12081TIP3    H257735   4.479   1.491   0.584  0.7590  0.6075  1.9182
12082TIP3   OH257736   5.062   4.191  13.345 -0.0713  0.3707 -0.6315
12082TIP3    H157737   5.143   4.142  13.358 -0.0815  0.6346  0.4746
12082TIP3    H257738   5.073   4.235  13.260  0.4189 -0.5925 -1.0777
12083TIP3   OH257739   6.800   2.380   1.008  0.1736 -0.4134 -0.0930
12083TIP3    H157740   6.822   2.404   1.098 -0.9701  2.2970 -0.4965
12083TIP3    H257741   6.820   2.458   0.957 -2.3120 -0.7629 -1.6882
12084TIP3   OH257742   5.837   0.943  13.579 -0.0895 -0.9174 -0.7873
12084TIP3    H157743   5.832   1.021  13.525 -0.1244  0.1161  0.6818
12084TIP3    H257744   5.919   0.901  13.553  0.1432 -0.1631 -1.2783
12085TIP3   OH257745   6.602   4.699   5.158  0.0713  0.1598 -0.0759
12085TIP3    H157746   6.664   4.628   5.147 -0.2017  0.1392 -1.6703
12085TIP3    H257747   6.560   4.707   5.072 -1.0507  1.1592  0.5525
12086TIP3   OH257748   1.328   5.630   0.803  0.9140 -0.2528 -0.5385
12086TIP3    H157749   1.233   5.638   0.818  1.1107  0.8769  0.1734
12086TIP3    H257750   1.351   5.710   0.755  1.6609 -0.1054  0.0651
12087TIP3   OH257751   4.819   4.476   1.118  0.3698  0.2202  0.3115
12087TIP3    H157752   4.853   4.474   1.207  1.2966  1.6356  0.0064
12087TIP3    H257753   4.765   4.555   1.115 -1.4308 -0.9768  0.2317
12088TIP3   OH257754   3.177   3.416   0.553  0.0980  0.1825  0.4126
12088TIP3    H157755   3.150   3.505   0.530 -2.3896 -0.5465  0.3287
12088TIP3    H257756   3.164   3.411   0.648 -1.8250 -0.7367  0.1144
12089TIP3   OH257757   0.764   0.533   0.290 -0.1929  0.4417  0.3592
12089TIP3    H157758   0.828   0.553   0.358  0.6992  1.2884 -0.7075
12089TIP3    H257759   0.702   0.606   0.293  0.3987  0.9888 -0.3684
12090TIP3   OH257760   5.512   2.073  15.475  0.1578 -0.1319 -0.2482
12090TIP3    H157761   5.581   2.046  15.536  1.5980  3.5151 -0.1616
12090TIP3    H257762   5.537   2.031  15.392  1.0285 -0.9480  0.4040
12091TIP3   OH257763   3.832   2.663   6.519  0.3665 -0.5340  0.7210
12091TIP3    H157764   3.919   2.647   6.482  0.6636 -2.0514  2.0271
12091TIP3    H257765   3.842   2.645   6.612 -0.9017  1.1237  1.1982
12092TIP3   OH257766   5.941   6.160  11.156  0.1703  0.3008  0.1558
12092TIP3    H157767   5.957   6.150  11.062 -1.7129  1.0505 -0.2776
12092TIP3    H257768   5.884   6.237  11.162  0.3050  0.2738  1.9139
12093TIP3   OH257769   4.513   3.218  13.764  0.1542 -0.4241  0.1359
12093TIP3    H157770   4.562   3.136  13.771  1.4342  0.1423 -1.8872
12093TIP3    H257771   4.487   3.223  13.672  0.0252  1.4255  0.2532
12094TIP3   OH257772   3.186   6.690  16.807 -0.1111  0.2321 -0.0421
12094TIP3    H157773   3.126   6.696  16.881 -0.6881 -0.7764 -0.4292
12094TIP3    H257774   3.137   6.643  16.740  1.1896 -0.7808 -0.2909
12095TIP3   OH257775   4.256   5.993  13.716  0.3339 -0.2906  0.3146
12095TIP3    H157776   4.178   5.939  13.705 -1.0700  1.7447 -0.1669
12095TIP3    H257777   4.317   5.960  13.650 -0.3003 -1.5800  0.3512
12096TIP3   OH257778   5.733   0.957   4.045  0.2152  0.0396 -0.7010
12096TIP3    H157779   5.794   1.003   3.988  1.5166  0.5811  1.0885
12096TIP3    H257780   5.728   1.011   4.124 -0.3186 -1.4848  0.3328
12097TIP3   OH257781   0.878   6.310  16.737  0.0676 -0.0173 -0.0396
12097TIP3    H157782   0.945   6.297  16.804 -0.0381  0.1307  0.0938
12097TIP3    H257783   0.851   6.222  16.712  1.3544 -0.1246 -1.1360
12098TIP3   OH257784   2.788   5.611   3.447 -0.1332 -0.3898 -0.2383
12098TIP3    H157785   2.726   5.666   3.494  1.0415  0.0172  0.8576
12098TIP3    H257786   2.870   5.621   3.495  0.4301 -2.0378 -0.8301
12099TIP3   OH257787   0.046   6.269  15.970  0.0004  0.9649 -0.5811
12099TIP3    H157788   0.116   6.276  16.036 -0.7487  0.9434  0.2157
12099TIP3    H257789   0.076   6.200  15.911 -0.2737 -0.4226  0.8836
12100TIP3   OH257790   1.560   4.303   4.819 -0.2802 -0.2280  0.3596
12100TIP3    H157791   1.642   4.340   4.786 -0.8449  0.7589  0.0411
12100TIP3    H257792   1.582   4.268   4.905 -0.4667  4.0124  2.2891
12101TIP3   OH257793   0.899   0.733   1.548 -0.2877 -0.1764 -0.1062
12101TIP3    H157794   0.927   0.665   1.486  0.7794 -0.5107  0.7037
12101TIP3    H257795   0.892   0.686   1.632  2.9234  1.1639  0.9949
12102TIP3   OH257796   2.570   1.860  16.743  0.4393 -0.7094  0.6145
12102TIP3    H157797   2.619   1.792  16.698 -0.6530 -1.1411  0.0617
12102TIP3    H257798   2.543   1.821  16.826  1.1783 -0.4132  0.9952
12103TIP3   OH257799   5.186   5.401   1.589 -0.5783 -0.1885  0.2370
12103TIP3    H157800   5.162   5.465   1.656 -1.0428  2.5564 -2.4134
12103TIP3    H257801   5.282   5.405   1.587 -0.5325 -0.7062  1.1105
12104TIP3   OH257802   0.120   4.209  12.092  0.2348 -0.2695 -0.1405
12104TIP3    H157803   0.032   4.191  12.058  0.5515 -2.2967  0.0578
12104TIP3    H257804   0.157   4.122  12.109  1.1439  0.6233  2.6482
12105TIP3   OH257805   0.873   4.969  12.649 -0.3953  0.1615 -0.0804
12105TIP3    H157806   0.915   5.005  12.727 -0.5292 -0.8035  0.4506
12105TIP3    H257807   0.916   5.012  12.576  0.9770 -0.2418  0.4810
12106TIP3   OH257808   0.014   6.753  16.148 -0.6420  0.5192  0.0843
12106TIP3    H157809   0.075   6.686  16.180 -0.8140  0.3644  0.0846
12106TIP3    H257810   0.044   6.772  16.059 -1.1539 -0.2372 -0.2584
12107TIP3   OH257811   0.633   2.620  16.446 -0.0527  0.2207  0.1246
12107TIP3    H157812   0.685   2.629  16.526  0.6696  0.7058 -0.3956
12107TIP3    H257813   0.636   2.526  16.426  0.7749  0.2680 -0.0040
12108TIP3   OH257814   4.023   1.298  15.465  0.0109  0.0618 -0.1118
12108TIP3    H157815   4.086   1.360  15.427  0.3876 -0.6641 -0.6891
12108TIP3    H257816   4.028   1.313  15.559  1.1305 -0.0552 -0.1448
12109TIP3   OH257817   2.733   6.220   1.109  0.3749  0.2017 -0.5166
12109TIP3    H157818   2.687   6.158   1.053 -0.3969  0.7290 -0.4650
12109TIP3    H257819   2.790   6.165   1.164 -0.1068 -0.4356 -0.6587
12110TIP3   OH257820   4.986   0.232   0.457 -0.0654  0.1004  0.1279
12110TIP3    H157821   4.938   0.203   0.535  1.4340 -2.3750  0.2099
12110TIP3    H257822   4.949   0.180   0.385  1.3854 -0.7289 -0.0534
12111TIP3   OH257823   5.464   6.141   4.525 -0.1404  0.4695  0.9394
12111TIP3    H157824   5.524   6.067   4.521  2.6931  2.7664 -0.6620
12111TIP3    H257825   5.437   6.145   4.617 -0.9024 -2.9029  0.9354
12112TIP3   OH257826   1.744   4.982   2.052 -0.3569  0.0484 -0.0546
12112TIP3    H157827   1.789   4.977   2.136  0.8173 -2.3648 -0.7797
12112TIP3    H257828   1.774   5.064   2.013  0.2607  0.4338  1.2120
12113TIP3   OH257829   0.051   6.605  16.848  0.1909 -0.3771  0.1460
12113TIP3    H157830   0.100   6.615  16.767  0.3926 -0.9508  0.1932
12113TIP3    H257831   0.091   6.668  16.908  0.5393 -0.4876  0.0320
12114TIP3   OH257832   1.496   2.147  14.117 -0.1650 -0.8293 -0.7031
12114TIP3    H157833   1.423   2.126  14.176 -1.4283  1.0939 -1.5431
12114TIP3    H257834   1.456   2.150  14.030  0.9434  0.0704 -1.1904
12115TIP3   OH257835   0.826   1.649   5.390  0.0532  0.0754  0.0487
12115TIP3    H157836   0.793   1.725   5.437  1.4822  0.4134  0.5339
12115TIP3    H257837   0.852   1.587   5.458 -0.8764 -0.7565 -0.3432
12116TIP3   OH257838   2.218   1.041  17.258  0.1691 -0.2877  0.0432
12116TIP3    H157839   2.285   1.072  17.318 -1.4282  0.0917  1.6927
12116TIP3    H257840   2.255   1.054  17.171  2.0174  0.3485  0.8992
12117TIP3   OH257841   0.746   5.380   6.065 -0.2871  0.5291 -0.3478
12117TIP3    H157842   0.732   5.426   6.148 -0.6933  3.3034 -1.8768
12117TIP3    H257843   0.695   5.430   6.001 -0.7906 -2.1534 -2.1080
12118TIP3   OH257844   6.139   3.294   5.828 -0.1568 -0.1204  0.7950
12118TIP3    H157845   6.059   3.254   5.862 -0.0938 -0.9536 -0.0191
12118TIP3    H257846   6.113   3.380   5.798 -0.9222 -0.6992 -0.2261
12119TIP3   OH257847   1.056   0.909   2.072  0.3767 -0.3005 -0.2600
12119TIP3    H157848   1.111   0.965   2.127  0.6849 -1.0177  0.1672
12119TIP3    H257849   1.117   0.844   2.036 -0.1142 -0.8290 -0.1419
12120TIP3   OH257850   3.354   0.696  11.928  0.3398  0.1137  0.5389
12120TIP3    H157851   3.311   0.693  11.842  0.0413  0.2127  0.6815
12120TIP3    H257852   3.440   0.657  11.914  0.7632  1.2751 -0.0779
12121TIP3   OH257853   1.041   6.081  12.160 -1.0698 -0.5490 -0.3286
12121TIP3    H157854   1.122   6.059  12.205 -1.0072  1.6100  0.6956
12121TIP3    H257855   1.029   6.174  12.178 -3.2288 -0.6098 -1.3510
12122TIP3   OH257856   1.024   0.192   0.746 -0.0893 -0.0360 -0.2058
12122TIP3    H157857   1.018   0.282   0.777  0.1489 -0.4733  1.1936
12122TIP3    H257858   1.113   0.165   0.770 -0.4115 -0.8761  0.0842
12123TIP3   OH257859   3.578   5.182  14.793  0.0283  0.2816 -0.2714
12123TIP3    H157860   3.660   5.137  14.814 -1.1158 -2.3420 -1.1657
12123TIP3    H257861   3.594   5.221  14.707  0.9378  1.3669  0.3785
12124TIP3   OH257862   1.915   0.373   5.531 -0.1013  0.3321 -0.4149
12124TIP3    H157863   1.964   0.291   5.525  0.1285  0.4520 -0.1869
12124TIP3    H257864   1.902   0.386   5.625 -1.0171  0.0403 -0.4941
12125TIP3   OH257865   3.192   6.055   4.375 -0.7444 -0.3168  0.3375
12125TIP3    H157866   3.281   6.091   4.377 -0.5223 -0.7877 -0.7842
12125TIP3    H257867   3.165   6.053   4.467  0.3017  0.0797  0.6608
12126TIP3   OH257868   2.721   1.135   5.313 -0.2464 -0.0621 -0.3351
12126TIP3    H157869   2.781   1.132   5.239  1.0124  0.3937  0.6590
12126TIP3    H257870   2.638   1.164   5.275 -0.2232 -1.9868 -1.9467
12127TIP3   OH257871   4.049   6.089   2.123  0.7360 -0.1809  0.6637
12127TIP3    H157872   3.993   6.052   2.191  0.2641  0.4023  0.5956
12127TIP3    H257873   3.993   6.151   2.076  1.1722 -0.2782  0.0001
12128TIP3   OH257874   2.026   1.438   4.911 -0.4198 -0.1454 -0.2036
12128TIP3    H157875   2.022   1.377   4.984  1.5521 -0.2632 -0.1636
12128TIP3    H257876   2.087   1.397   4.849  1.2126  1.9295 -0.0134
12129TIP3   OH257877   6.283   0.840  17.098  0.1821  0.7328  0.0540
12129TIP3    H157878   6.264   0.926  17.061 -0.3484  0.7383  0.3371
12129TIP3    H257879   6.216   0.827  17.165  0.9173  0.5705  0.7643
12130TIP3   OH257880   0.766   4.944   2.321 -0.5727 -0.0229 -0.5012
12130TIP3    H157881   0.858   4.955   2.298 -0.0084  0.3148  1.7508
12130TIP3    H257882   0.725   4.912   2.241  1.8712 -2.2038 -0.9674
12131TIP3   OH257883   5.790   0.502   0.900  0.3148 -0.4212  0.0453
12131TIP3    H157884   5.731   0.470   0.967  1.1469  0.9642  1.4812
12131TIP3    H257885   5.742   0.490   0.818 -0.4995 -2.6315  0.7992
12132TIP3   OH257886   3.190   3.275   6.280  0.0396  1.0983 -0.2984
12132TIP3    H157887   3.172   3.184   6.257 -0.3611  0.3329  2.8901
12132TIP3    H257888   3.285   3.285   6.272  0.4987 -0.5580  2.4796
12133TIP3   OH257889   4.274   5.662   2.254 -0.0558  0.3589  0.0366
12133TIP3    H157890   4.356   5.618   2.275 -0.3986  0.4233  1.5643
12133TIP3    H257891   4.289   5.754   2.277 -0.1615  0.5892 -0.8009
12134TIP3   OH257892   6.435   5.128  14.321 -0.0388  0.2338  0.8273
12134TIP3    H157893   6.440   5.170  14.407 -1.1595  0.3372  0.8517
12134TIP3    H257894   6.488   5.049  14.330 -1.5963 -0.6811  2.1619
12135TIP3   OH257895   2.560   3.717  11.331 -0.7650  0.6076  0.4186
12135TIP3    H157896   2.482   3.662  11.339 -1.1508  0.8032 -1.6334
12135TIP3    H257897   2.545   3.768  11.252  0.3092  2.5279  1.4269
12136TIP3   OH257898   4.282   6.077   1.990 -0.7431  0.4602 -0.1588
12136TIP3    H157899   4.329   6.160   1.996 -0.8916  0.4623  0.9968
12136TIP3    H257900   4.212   6.084   2.054  0.2720 -1.2155  1.1747
12137TIP3   OH257901   5.612   5.649  16.715  0.0785 -0.2145 -0.1996
12137TIP3    H157902   5.589   5.658  16.623 -0.3098 -2.5130 -0.3734
12137TIP3    H257903   5.702   5.679  16.721  0.1732 -0.2398 -1.3789
12138TIP3   OH257904   2.584   1.135   4.040  0.3004  0.3933 -0.0207
12138TIP3    H157905   2.658   1.093   4.083 -0.5432 -1.3164 -0.2061
12138TIP3    H257906   2.617   1.160   3.954  0.4575 -1.0688 -0.4034
12139TIP3   OH257907   4.178   2.653   3.714 -0.1528 -1.3833 -0.3321
12139TIP3    H157908   4.144   2.617   3.796  1.5060  0.7943  1.3785
12139TIP3    H257909   4.109   2.712   3.683 -0.0418 -0.8448  0.4423
12140TIP3   OH257910   6.482   2.928   2.869 -0.0501 -0.0785  0.5930
12140TIP3    H157911   6.478   2.947   2.776  0.4883 -0.1877  0.5453
12140TIP3    H257912   6.540   2.994   2.905 -0.6330  0.2529  0.9316
12141TIP3   OH257913   6.122   2.041   2.979 -0.4356 -0.5221 -0.4108
12141TIP3    H157914   6.185   2.004   3.041  0.4612 -0.7649 -1.4506
12141TIP3    H257915   6.138   2.136   2.982 -1.7024 -0.3452  1.1343
12142TIP3   OH257916   2.857   3.391  10.683  0.1062 -0.4298  0.7984
12142TIP3    H157917   2.846   3.409  10.776  0.4322  1.9109  0.4224
12142TIP3    H257918   2.775   3.421  10.643  0.8731  0.7193  0.0733
12143TIP3   OH257919   0.751   5.481   2.747  0.0057  0.3273 -0.2193
12143TIP3    H157920   0.722   5.440   2.665  0.6963 -1.5799  0.4607
12143TIP3    H257921   0.670   5.502   2.793 -0.4119 -2.8290  0.6329
12144TIP3   OH257922   4.713   2.710   2.689  1.1216 -0.5357  0.2701
12144TIP3    H157923   4.743   2.632   2.641  2.5369 -1.3124  2.3531
12144TIP3    H257924   4.658   2.674   2.759 -0.5945  0.5655 -0.4832
12145TIP3   OH257925   2.878   3.538   0.045  0.2748 -0.6395  0.3155
12145TIP3    H157926   2.810   3.605   0.041  0.1652 -0.7100  0.8875
12145TIP3    H257927   2.878   3.509   0.136  0.8431 -0.8789  0.2462
12146TIP3   OH257928   2.245   5.310  12.077 -0.4875 -0.0973 -0.7058
12146TIP3    H157929   2.153   5.289  12.095  0.1076 -0.5542  1.9944
12146TIP3    H257930   2.292   5.283  12.155  2.0409 -0.2209 -2.2067
12147TIP3   OH257931   0.936   5.304   5.499 -0.6030 -0.2074  0.4623
12147TIP3    H157932   0.951   5.220   5.541 -2.2646 -1.0356 -0.5566
12147TIP3    H257933   0.930   5.284   5.406 -0.8432  1.0697  0.1905
12148TIP3   OH257934   3.729   6.798   5.323  0.4250  0.5522 -0.1297
12148TIP3    H157935   3.683   6.844   5.393  1.5370  1.1148  0.2489
12148TIP3    H257936   3.728   6.860   5.250  0.0562  0.3246 -0.3171
12149TIP3   OH257937   6.441   0.821  12.547 -0.6582 -0.5856 -0.0121
12149TIP3    H157938   6.516   0.788  12.497 -1.1219  1.4245 -2.1332
12149TIP3    H257939   6.466   0.910  12.571 -1.8623 -0.3368  0.3282
12150TIP3   OH257940   4.883   6.614   3.432  0.2895 -0.1976 -0.3440
12150TIP3    H157941   4.951   6.568   3.384 -1.6106 -0.0662 -3.2407
12150TIP3    H257942   4.827   6.545   3.467  1.3882 -0.2717  1.3597
12151TIP3   OH257943   3.819   5.539  16.844 -0.0190  0.0412  0.3555
12151TIP3    H157944   3.908   5.572  16.849 -0.6783  1.6809  1.5222
12151TIP3    H257945   3.797   5.515  16.934 -0.8289 -0.1805  0.1057
12152TIP3   OH257946   2.057   0.533   1.937  0.2836 -0.2580  0.2268
12152TIP3    H157947   2.052   0.491   1.851  1.4497  0.6898 -0.3306
12152TIP3    H257948   1.967   0.536   1.968 -0.2419  0.0335 -1.2931
12153TIP3   OH257949   6.505   2.942  11.559  0.7261  0.1699  0.6916
12153TIP3    H157950   6.433   2.879  11.550  2.1077 -1.5264  1.0999
12153TIP3    H257951   6.492   3.003  11.486 -1.2678  0.0694  0.9120
12154TIP3   OH257952   3.296   1.242   0.254  0.8232  0.0831 -0.3345
12154TIP3    H157953   3.256   1.270   0.172  1.3881  0.2761 -0.5473
12154TIP3    H257954   3.274   1.311   0.316  0.0101 -0.2874 -0.2108
12155TIP3   OH257955   2.260   6.106   4.598 -1.3709  0.2548  0.5262
12155TIP3    H157956   2.303   6.172   4.652 -0.2753  1.0699 -1.3183
12155TIP3    H257957   2.246   6.032   4.658 -0.0687  1.0882  1.8937
12156TIP3   OH257958   1.371   2.934   5.349 -0.4300 -0.1677 -0.0692
12156TIP3    H157959   1.427   2.857   5.351  0.3608  0.4103  1.9247
12156TIP3    H257960   1.283   2.900   5.366 -0.2691 -0.7811 -0.4693
12157TIP3   OH257961   0.648   0.997   4.605 -0.3340  0.5413 -0.3253
12157TIP3    H157962   0.668   1.067   4.542  0.6617  0.7507  0.2145
12157TIP3    H257963   0.576   0.949   4.564 -0.0311  0.9693 -1.4033
12158TIP3   OH257964   5.506   5.876  13.635  0.1523 -0.0111  0.5518
12158TIP3    H157965   5.521   5.890  13.728  0.9326  1.4701  0.2231
12158TIP3    H257966   5.412   5.860  13.627  0.0122  0.3235  1.5276
12159TIP3   OH257967   1.096   2.732  16.185  0.0904 -0.2431  0.1868
12159TIP3    H157968   1.096   2.818  16.227 -1.3224 -0.4910  0.7167
12159TIP3    H257969   1.004   2.709  16.177  0.3843 -0.8861 -1.6760
12160TIP3   OH257970   4.728   1.474   2.328 -0.0325 -0.0123 -0.0147
12160TIP3    H157971   4.698   1.411   2.393 -0.7050  1.0070  0.6730
12160TIP3    H257972   4.824   1.464   2.327 -0.0740 -0.4744  0.6661
12161TIP3   OH257973   2.049   0.904   3.413 -0.2206  0.1635 -0.1821
12161TIP3    H157974   2.031   0.814   3.384 -3.7966  0.1320  1.8119
12161TIP3    H257975   2.132   0.898   3.461  0.9685 -1.5167 -2.3789
12162TIP3   OH257976   6.014   3.757  15.726  0.6630  0.5629 -0.2546
12162TIP3    H157977   5.959   3.835  15.724 -1.3586 -0.8313 -2.0734
12162TIP3    H257978   6.087   3.778  15.668  0.5670  1.4064 -0.0710
12163TIP3   OH257979   2.567   2.720  13.465  0.2721  0.1203  0.2878
12163TIP3    H157980   2.558   2.757  13.377 -0.8417  0.7517  0.6479
12163TIP3    H257981   2.568   2.796  13.523  0.7323 -0.3046  0.8441
12164TIP3   OH257982   0.754   3.696  15.742  0.5815 -0.0250  0.6092
12164TIP3    H157983   0.776   3.688  15.649  0.7947  1.2016  0.5434
12164TIP3    H257984   0.682   3.760  15.744 -0.8305 -1.5965  1.1102
12165TIP3   OH257985   5.930   6.125   5.902  0.3791 -0.2665 -0.1164
12165TIP3    H157986   6.007   6.071   5.919  0.7007  0.4451  0.6966
12165TIP3    H257987   5.913   6.170   5.984 -1.0664 -0.6103 -0.2217
12166TIP3   OH257988   1.059   3.884   0.723 -0.0583 -0.2881  0.0869
12166TIP3    H157989   0.988   3.888   0.786  0.0302  0.0024  0.1730
12166TIP3    H257990   1.092   3.974   0.719  1.0999 -0.6602  0.9646
12167TIP3   OH257991   2.270   4.346   5.247  0.0606 -0.0525  0.8780
12167TIP3    H157992   2.238   4.315   5.332 -1.0207  0.8283  0.7969
12167TIP3    H257993   2.216   4.421   5.226 -2.0638 -2.2909 -2.2139
12168TIP3   OH257994   4.058   3.889  11.289  0.2251 -0.5022 -0.1356
12168TIP3    H157995   4.002   3.901  11.212  0.0029 -0.5906  0.0144
12168TIP3    H257996   4.089   3.977  11.310  1.5735 -0.6794 -1.3051
12169TIP3   OH257997   2.847   5.976   0.757  0.2063  0.0798  0.1147
12169TIP3    H157998   2.786   5.910   0.725 -3.1990  3.9837 -1.8759
12169TIP3    H257999   2.803   6.014   0.833  1.2196  1.2969  0.1080
12170TIP3   OH258000   0.485   0.180  16.139  0.0474  0.5541  0.4453
12170TIP3    H158001   0.403   0.172  16.091  0.8482  0.6222 -0.9574
12170TIP3    H258002   0.542   0.232  16.082  1.9182 -1.6232  0.2614
12171TIP3   OH258003   5.701   5.130  15.223 -0.2674  0.0455  0.7936
12171TIP3    H158004   5.619   5.136  15.173 -1.0534 -2.2829  1.7130
12171TIP3    H258005   5.761   5.084  15.164 -0.2252  0.0814  0.8095
12172TIP3   OH258006   1.244   2.262  12.475  0.1668 -0.5210  0.2393
12172TIP3    H158007   1.330   2.279  12.437 -1.6767  2.3012 -2.8984
12172TIP3    H258008   1.223   2.341  12.523 -1.7811 -0.0834 -1.2751
12173TIP3   OH258009   1.475   1.837  15.105 -0.4699 -0.4780 -0.0614
12173TIP3    H158010   1.418   1.768  15.142 -0.3033 -0.3473  0.4489
12173TIP3    H258011   1.415   1.908  15.083 -0.5857 -0.5941 -0.1195
12174TIP3   OH258012   4.383   0.914  16.401 -0.2949  0.4212  0.2349
12174TIP3    H158013   4.395   1.006  16.421  0.9970  0.2510  0.2794
12174TIP3    H258014   4.407   0.906  16.308 -1.1423  0.2601  0.0212
12175TIP3   OH258015   6.592   2.073  15.320 -0.2204 -0.2027 -0.6450
12175TIP3    H158016   6.664   2.136  15.331 -1.0070  0.8732 -1.5832
12175TIP3    H258017   6.613   2.027  15.239 -1.0322  0.7268 -1.3960
12176TIP3   OH258018   4.738   0.232   1.599  0.0263  0.2376  0.0573
12176TIP3    H158019   4.802   0.179   1.647 -0.1389 -0.0053  0.0094
12176TIP3    H258020   4.752   0.321   1.632 -0.1368  0.0589  0.6159
12177TIP3   OH258021   4.909   2.173   0.485  0.1329  0.0700 -0.4641
12177TIP3    H158022   4.970   2.120   0.434 -2.3101 -1.8561 -1.4889
12177TIP3    H258023   4.874   2.236   0.422  0.3285  0.5403 -0.1076
12178TIP3   OH258024   0.320   5.389  14.246 -0.1603  0.4842 -0.1676
12178TIP3    H158025   0.365   5.414  14.166 -0.3124  0.2928 -0.3130
12178TIP3    H258026   0.328   5.466  14.303 -1.5620  1.2664 -0.9979
12179TIP3   OH258027   3.929   4.829   5.293  0.4464  0.0545 -0.2498
12179TIP3    H158028   3.994   4.900   5.287 -0.0560  0.6342  1.0925
12179TIP3    H258029   3.970   4.756   5.246  2.3683  0.1965  1.1261
12180TIP3   OH258030   1.811   1.396   2.984  0.3423 -0.1315 -0.0344
12180TIP3    H158031   1.732   1.391   3.039  0.7670 -1.6373  0.4709
12180TIP3    H258032   1.878   1.431   3.042  0.1163  0.9450 -0.4043
12181TIP3   OH258033   2.531   5.847  11.311  0.0758  0.3000  0.2639
12181TIP3    H158034   2.454   5.848  11.368  0.3169  0.5869  0.5835
12181TIP3    H258035   2.584   5.921  11.341 -0.0162  0.7402 -0.6223
12182TIP3   OH258036   3.260   0.224  13.010 -0.3789  0.1526  0.0143
12182TIP3    H158037   3.349   0.213  12.975 -0.3002  0.7173  0.0314
12182TIP3    H258038   3.216   0.278  12.945 -0.4658  0.5540  0.4106
12183TIP3   OH258039   1.852   6.794  15.432  0.4219 -0.2023 -0.0984
12183TIP3    H158040   1.938   6.771  15.397  0.4084  0.7775 -0.8040
12183TIP3    H258041   1.833   6.880  15.395 -0.9385 -0.4745 -0.0846
12184TIP3   OH258042   4.266   1.612  16.379  0.1420  0.1709  0.1133
12184TIP3    H158043   4.215   1.600  16.299 -0.3475 -0.8370  0.5674
12184TIP3    H258044   4.202   1.604  16.450  0.9105 -1.0048  0.6816
12185TIP3   OH258045   2.021   1.469   2.476 -0.1169  0.3062  0.1824
12185TIP3    H158046   2.012   1.471   2.571  0.4503  2.4280  0.2275
12185TIP3    H258047   1.932   1.483   2.443 -0.2619 -0.0969  0.4041
12186TIP3   OH258048   5.066   0.630  14.702 -0.3507  0.4120  0.7344
12186TIP3    H158049   5.137   0.691  14.681 -0.4949  0.2220 -0.3111
12186TIP3    H258050   5.027   0.666  14.782  0.2387  1.1007  0.7218
12187TIP3   OH258051   6.267   4.413  16.762  0.3446  0.1463  0.2171
12187TIP3    H158052   6.221   4.335  16.793 -0.0822  0.5654  0.6612
12187TIP3    H258053   6.232   4.428  16.674  0.8964 -0.5234 -0.1261
12188TIP3   OH258054   6.535   0.937  11.404 -0.3621 -0.2309  0.4506
12188TIP3    H158055   6.442   0.915  11.405 -0.0132 -1.7447  2.3546
12188TIP3    H258056   6.564   0.913  11.316 -1.3129 -1.8033  0.5445
12189TIP3   OH258057   5.148   0.139   2.186 -0.7625 -0.1063  0.2506
12189TIP3    H158058   5.086   0.085   2.235  0.1932 -1.0298  0.4480
12189TIP3    H258059   5.158   0.095   2.102 -0.8044  0.3481  0.0059
12190TIP3   OH258060   0.386   5.725  13.042  0.9064 -0.2552 -0.2260
12190TIP3    H158061   0.335   5.706  12.963 -1.5695  3.3685  0.3752
12190TIP3    H258062   0.360   5.657  13.104 -2.3682  0.8023 -0.3571
12191TIP3   OH258063   4.162   1.446  13.775  0.0901  0.0666  0.1861
12191TIP3    H158064   4.166   1.359  13.813  0.3228 -0.2384 -0.5323
12191TIP3    H258065   4.079   1.448  13.728  1.6107 -0.9833 -2.6846
12192TIP3   OH258066   2.593   1.551   1.281 -0.1474 -0.0754  0.1294
12192TIP3    H158067   2.660   1.493   1.319 -2.1808 -2.1365  0.6673
12192TIP3    H258068   2.587   1.523   1.189  0.3550  0.7389 -0.1608
12193TIP3   OH258069   0.104   1.074   4.507 -0.1533 -0.6407 -0.3104
12193TIP3    H158070   0.169   1.038   4.568 -0.3286  0.9191  0.8138
12193TIP3    H258071   0.020   1.052   4.545 -0.3354 -2.6664 -1.7741
12194TIP3   OH258072   4.749   1.831   3.240  0.0479  0.2209  0.0831
12194TIP3    H158073   4.746   1.757   3.179 -2.0600 -0.1964  0.6147
12194TIP3    H258074   4.659   1.865   3.240  0.3783  1.1628  1.7902
12195TIP3   OH258075   6.447   0.664  16.952 -0.0557 -0.3932  0.7148
12195TIP3    H158076   6.401   0.637  16.872 -0.4556  0.0312  0.8016
12195TIP3    H258077   6.386   0.723  16.996  0.4352 -0.0936  1.0018
12196TIP3   OH258078   4.589   5.070   2.110  0.3571  0.0578  0.1874
12196TIP3    H158079   4.543   5.143   2.069 -1.5887 -0.5010  1.3250
12196TIP3    H258080   4.635   5.109   2.184 -0.9268  0.1012  0.9754
12197TIP3   OH258081   6.533   1.818   4.013  0.1657  0.3129  0.0246
12197TIP3    H158082   6.454   1.858   4.050 -0.5603  0.0100 -1.1615
12197TIP3    H258083   6.563   1.757   4.081  0.6565  2.0228  1.3975
12198TIP3   OH258084   0.397   4.635  16.096 -0.1007  0.3543  0.6437
12198TIP3    H158085   0.364   4.579  16.025  0.7336 -0.0951  0.6075
12198TIP3    H258086   0.348   4.717  16.086 -0.1865  0.1989 -0.2818
12199TIP3   OH258087   6.200   4.639  16.880 -0.5823  0.2267  0.2391
12199TIP3    H158088   6.227   4.554  16.845 -2.4372 -0.2781 -0.0120
12199TIP3    H258089   6.265   4.658  16.948  0.5303 -0.8271 -0.5106
12200TIP3   OH258090   4.441   3.459  12.700 -0.5712  0.3038 -0.1298
12200TIP3    H158091   4.461   3.457  12.607 -0.9946  1.0170 -0.2471
12200TIP3    H258092   4.520   3.494  12.741 -0.7837  1.0505 -0.3472
12201TIP3   OH258093   3.444   4.948  11.715  0.5177  0.0426 -0.2841
12201TIP3    H158094   3.469   5.018  11.776 -2.2754 -0.0246  1.0130
12201TIP3    H258095   3.429   4.994  11.632  1.0925  0.6370 -0.0636
12202TIP3   OH258096   2.041   1.635  13.094  0.0235 -0.2447 -0.2823
12202TIP3    H158097   2.041   1.637  13.190 -0.3683 -2.8578 -0.2120
12202TIP3    H258098   1.948   1.641  13.070 -0.2344 -3.6428 -0.3493
12203TIP3   OH258099   3.276   5.978   0.142  0.8695  0.1242 -0.3669
12203TIP3    H158100   3.297   6.064   0.178 -1.8299  0.9672 -0.7251
12203TIP3    H258101   3.224   5.935   0.210 -1.9562  0.6901 -2.0964
12204TIP3   OH258102   1.699   3.475   0.288 -0.0013  0.0970  0.6262
12204TIP3    H158103   1.615   3.482   0.244  0.1459  2.3350  0.6432
12204TIP3    H258104   1.689   3.401   0.348 -1.8427  0.1574  0.4135
12205TIP3   OH258105   3.280   6.206  11.133  0.2868 -0.1079  0.8630
12205TIP3    H158106   3.360   6.154  11.142 -0.1804 -1.3360 -1.7224
12205TIP3    H258107   3.300   6.268  11.063 -0.7137  0.1671  0.8211
12206TIP3   OH258108   5.631   0.983   2.242  0.5281 -0.0990 -0.8201
12206TIP3    H158109   5.547   0.937   2.240  1.6927 -2.3167 -0.2414
12206TIP3    H258110   5.624   1.050   2.173 -1.6909 -0.2746 -0.7820
12207TIP3   OH258111   0.994   3.903  16.847 -0.2763  0.0364  0.1919
12207TIP3    H158112   1.040   3.974  16.801  0.4961  0.0314  0.9481
12207TIP3    H258113   0.950   3.947  16.920  1.5629 -0.4931  1.6379
12208TIP3   OH258114   6.211   0.652  16.208  0.1051  0.0344  0.5117
12208TIP3    H158115   6.149   0.725  16.204  0.0729 -0.0819 -1.7069
12208TIP3    H258116   6.296   0.694  16.223  0.1687  0.6279 -1.2732
12209TIP3   OH258117   0.399   3.237   1.496 -0.2679 -0.3000  0.3488
12209TIP3    H158118   0.473   3.199   1.449  0.8285  0.5515  1.3518
12209TIP3    H258119   0.353   3.161   1.533  0.3208 -0.8145  0.0321
12210TIP3   OH258120   6.634   0.260  16.943  0.0244 -0.4924 -0.5589
12210TIP3    H158121   6.717   0.240  16.898 -1.0328 -0.4443 -2.5715
12210TIP3    H258122   6.571   0.199  16.906 -0.8951 -0.4572  0.9006
12211TIP3   OH258123   4.308   4.525   3.287 -0.2708  0.7052 -0.7505
12211TIP3    H158124   4.298   4.476   3.368  0.7232  0.1729 -0.9441
12211TIP3    H258125   4.277   4.613   3.308  1.0699  0.8792  0.5310
12212TIP3   OH258126   0.679   3.657   5.194 -0.4925  0.6325  0.6572
12212TIP3    H158127   0.668   3.744   5.232  0.2956  0.3246  1.6242
12212TIP3    H258128   0.596   3.613   5.211 -1.0638  1.3404 -0.2493
12213TIP3   OH258129   0.810   1.193   2.933 -0.0986  0.6127 -0.2445
12213TIP3    H158130   0.857   1.116   2.964 -1.5453 -0.0189  0.4437
12213TIP3    H258131   0.761   1.163   2.857 -1.1865  0.6775  0.4239
12214TIP3   OH258132   5.777   3.705   3.734 -0.3468  0.2628  0.1545
12214TIP3    H158133   5.741   3.778   3.786  1.3921  1.3708 -0.1670
12214TIP3    H258134   5.782   3.740   3.645  0.8434 -0.1270  0.0647
12215TIP3   OH258135   5.490   4.651   1.399  0.2900  0.1299  1.1397
12215TIP3    H158136   5.413   4.690   1.442  0.7717  0.0212  2.1077
12215TIP3    H258137   5.542   4.615   1.471  0.4011 -1.3267  0.3536
12216TIP3   OH258138   1.204   4.834  11.424  0.1939 -0.0604  0.2347
12216TIP3    H158139   1.179   4.899  11.489 -0.9412  0.7225 -0.9646
12216TIP3    H258140   1.124   4.818  11.374  1.3312  0.2634 -1.7539
12217TIP3   OH258141   2.254   2.648   5.050  0.4988  0.7225  0.5246
12217TIP3    H158142   2.185   2.709   5.077  0.6312  0.5733  1.1980
12217TIP3    H258143   2.217   2.602   4.975  0.9547  2.7043 -0.9578
12218TIP3   OH258144   5.476   1.634  14.246  0.6699  0.2044  0.0687
12218TIP3    H158145   5.443   1.671  14.328 -2.6033 -1.0353 -0.6427
12218TIP3    H258146   5.525   1.556  14.272 -0.7506 -0.4421  0.8061
12219TIP3   OH258147   3.788   0.899  12.718 -0.0584 -0.0338  0.4175
12219TIP3    H158148   3.745   0.888  12.633 -1.3994  0.6890  0.9929
12219TIP3    H258149   3.852   0.968  12.704  0.6056 -0.7833 -0.3215
12220TIP3   OH258150   6.062   0.288  15.544 -0.0508  0.4064  0.1609
12220TIP3    H158151   6.081   0.299  15.451 -1.1610 -1.5808 -0.3442
12220TIP3    H258152   6.121   0.218  15.572 -0.7101  0.0194  0.6002
12221TIP3   OH258153   2.421   1.222  14.356 -0.5127  0.3378 -0.0154
12221TIP3    H158154   2.480   1.282  14.402  1.6785 -1.9756  0.3287
12221TIP3    H258155   2.389   1.272  14.281 -0.3019  2.5526  1.3116
12222TIP3   OH258156   5.036   3.943   1.994  0.0231  0.1526 -0.3316
12222TIP3    H158157   5.050   3.987   1.910 -1.6110  0.1878 -0.5988
12222TIP3    H258158   5.074   3.856   1.983  2.8270  1.2755  0.0305
12223TIP3   OH258159   6.571   3.371   0.492  0.4077 -0.7582  0.3820
12223TIP3    H158160   6.478   3.391   0.480  0.9907  1.3978 -0.9697
12223TIP3    H258161   6.590   3.303   0.427  0.1347  0.0265 -0.5332
12224TIP3   OH258162   3.682   3.477   5.037 -0.1394 -0.2771 -0.1937
12224TIP3    H158163   3.589   3.494   5.053 -0.2701 -1.8910  0.8752
12224TIP3    H258164   3.728   3.529   5.103 -0.4462 -2.2127  1.5950
12225TIP3   OH258165   3.141   2.136  12.012 -0.4381  0.0769  0.2970
12225TIP3    H158166   3.197   2.202  11.972 -0.6631  0.3271  0.3914
12225TIP3    H258167   3.060   2.183  12.033 -0.1711  0.0485  1.4239
12226TIP3   OH258168   0.044   3.672  17.027  0.5970 -0.2850  0.2804
12226TIP3    H158169  -0.037   3.720  17.007  0.3684 -0.4130  0.8740
12226TIP3    H258170   0.016   3.583  17.045  0.6905 -0.0099  1.8903
12227TIP3   OH258171   5.131   3.407   2.119 -0.1312  0.2588 -0.1661
12227TIP3    H158172   5.057   3.393   2.059 -0.0656  2.0026 -0.6964
12227TIP3    H258173   5.190   3.466   2.071  0.3225  1.0086  1.2744
12228TIP3   OH258174   1.688   3.310  14.778 -0.2754  0.3933 -0.2706
12228TIP3    H158175   1.711   3.217  14.780 -0.5921  0.3159 -0.2103
12228TIP3    H258176   1.602   3.312  14.735 -0.7326  0.5624  0.6300
12229TIP3   OH258177   5.568   4.798  16.155 -0.2193  0.0892  0.0234
12229TIP3    H158178   5.602   4.774  16.241 -1.6422 -0.9520  0.2971
12229TIP3    H258179   5.572   4.893  16.154  1.0399  0.0611  0.7285
12230TIP3   OH258180   6.697   0.094   0.323 -0.4391  0.5614  0.2675
12230TIP3    H158181   6.773   0.143   0.291 -1.2932  2.0608  0.5086
12230TIP3    H258182   6.694   0.113   0.417  0.3101 -1.4521  0.7181
12231TIP3   OH258183   0.370   2.524   3.500  0.6203  0.6250 -0.4270
12231TIP3    H158184   0.443   2.482   3.455  0.7740 -0.5670  0.8712
12231TIP3    H258185   0.324   2.452   3.543 -2.0840  1.2033 -2.2694
12232TIP3   OH258186   6.373   3.372  14.469  0.4214  0.1470  0.1603
12232TIP3    H158187   6.465   3.394  14.455  0.7144 -0.5910  0.8958
12232TIP3    H258188   6.330   3.456  14.484  1.1013  0.4397  0.4877
12233TIP3   OH258189   5.037   1.932  17.115  0.1225 -0.0110  0.2783
12233TIP3    H158190   4.976   1.981  17.169  0.9108 -0.1603  1.3318
12233TIP3    H258191   4.982   1.883  17.054 -0.7920 -0.0419  1.1147
12234TIP3   OH258192   2.894   3.078   1.905  0.9442 -0.1130  0.6262
12234TIP3    H158193   2.807   3.084   1.867  1.6955  2.2718 -0.8006
12234TIP3    H258194   2.899   2.988   1.939 -1.7035 -0.5639 -0.0745
12235TIP3   OH258195   3.592   1.670  11.402  0.6814  1.0892  0.1139
12235TIP3    H158196   3.642   1.595  11.369 -1.2813 -0.7193  1.1594
12235TIP3    H258197   3.632   1.689  11.487  0.1377  0.1411  0.5968
12236TIP3   OH258198   6.421   5.508  11.639 -0.3670 -0.1574 -0.1805
12236TIP3    H158199   6.368   5.569  11.689 -0.5069 -1.1859  0.9632
12236TIP3    H258200   6.429   5.547  11.552 -1.3273  0.9560  0.2302
12237TIP3   OH258201   4.567   5.589  17.042  0.1024  0.2659  0.0086
12237TIP3    H158202   4.500   5.650  17.010  0.6420  0.1954 -1.2882
12237TIP3    H258203   4.539   5.503  17.010  0.4229  0.1306  0.0872
12238TIP3   OH258204   4.161   5.364   2.020  0.6339  0.7429  0.0213
12238TIP3    H158205   4.155   5.297   1.952  0.0718  1.6561 -0.8345
12238TIP3    H258206   4.195   5.441   1.975 -3.2607  2.5169 -0.1093
12239TIP3   OH258207   5.174   6.582   5.272  0.5078 -0.4043  0.0392
12239TIP3    H158208   5.200   6.561   5.361 -2.1966 -0.9415  0.7515
12239TIP3    H258209   5.209   6.511   5.218  1.4939 -0.4691  0.7606
12240TIP3   OH258210   4.029   5.003   2.033 -0.0467 -0.1693  0.2999
12240TIP3    H158211   3.947   5.049   2.015 -0.1315 -0.3316  0.2800
12240TIP3    H258212   4.067   5.050   2.108 -0.3438 -0.3366  0.5552
12241TIP3   OH258213   5.082   5.978  13.573 -0.3337 -0.5723 -0.3640
12241TIP3    H158214   5.073   5.944  13.662 -0.0829 -1.8750 -0.8199
12241TIP3    H258215   4.997   6.018  13.554 -0.6458 -0.9704  0.1811
12242TIP3   OH258216   5.889   3.424  16.884 -0.1893 -0.2569  0.8217
12242TIP3    H158217   5.813   3.432  16.826  0.7419 -0.3496 -0.4212
12242TIP3    H258218   5.857   3.455  16.968 -1.0127  1.7844 -0.2110
12243TIP3   OH258219   5.397   5.147  11.260 -0.9236  0.8914 -0.0950
12243TIP3    H158220   5.481   5.171  11.222  0.1104 -1.5984  0.4948
12243TIP3    H258221   5.339   5.219  11.239  1.0158  2.0157 -1.7050
12244TIP3   OH258222   2.037   5.058  14.880 -0.4016  0.4111  0.2274
12244TIP3    H158223   2.112   5.075  14.938 -0.3828  2.7911 -0.4381
12244TIP3    H258224   1.962   5.094  14.927 -0.7835  0.0543 -0.1060
12245TIP3   OH258225   1.383   5.589   4.555 -0.2468 -0.1900 -0.2664
12245TIP3    H158226   1.441   5.553   4.487 -0.2084 -1.9862  0.6652
12245TIP3    H258227   1.319   5.640   4.507  1.1168  0.4439 -1.4723
12246TIP3   OH258228   0.116   2.408   1.580  0.6553 -0.1602 -0.6631
12246TIP3    H158229   0.150   2.469   1.646 -2.1408  1.4222 -0.5881
12246TIP3    H258230   0.176   2.334   1.582  1.5771  0.5777  2.5140
12247TIP3   OH258231   2.626   2.486   2.616  0.3149  0.4263  0.1934
12247TIP3    H158232   2.570   2.525   2.549  0.2062  1.6766  1.0009
12247TIP3    H258233   2.691   2.554   2.635  0.9482 -0.2972  0.6504
12248TIP3   OH258234   2.427   6.053  11.997  0.3250  0.0223 -0.0424
12248TIP3    H158235   2.478   6.029  11.919  0.3910 -0.8154  0.2499
12248TIP3    H258236   2.464   6.137  12.025  1.6244 -0.6136  0.2170
12249TIP3   OH258237   2.679   1.137   4.311 -0.3156 -0.1834 -0.0069
12249TIP3    H158238   2.761   1.159   4.355  1.1130 -1.8530 -1.7336
12249TIP3    H258239   2.658   1.215   4.259 -0.8361  0.9437  1.8447
12250TIP3   OH258240   6.607   5.258   0.091 -0.3382 -0.1632 -0.1264
12250TIP3    H158241   6.698   5.247   0.064  0.5069  3.2094  1.0172
12250TIP3    H258242   6.561   5.280   0.010  0.4648  0.9784 -0.2953
12251TIP3   OH258243   0.681   6.204   0.091 -0.3419 -0.1412 -0.3116
12251TIP3    H158244   0.733   6.124   0.100  1.8318  1.2033 -0.6567
12251TIP3    H258245   0.715   6.246   0.012 -1.8843  0.8272 -0.4829
12252TIP3   OH258246   5.485   6.193  13.695  0.1410  0.2597  0.1008
12252TIP3    H158247   5.410   6.159  13.648 -0.2580 -1.4288  1.8954
12252TIP3    H258248   5.558   6.138  13.668  0.2468  0.3630  0.1756
12253TIP3   OH258249   6.309   5.804   5.267  0.2144 -0.2276 -0.0247
12253TIP3    H158250   6.319   5.709   5.258  0.5227 -0.3007  1.0687
12253TIP3    H258251   6.397   5.839   5.259 -0.0718  0.1121 -1.9632
12254TIP3   OH258252   2.793   3.028  15.527  0.4859 -0.0791  0.6694
12254TIP3    H158253   2.868   2.989  15.482  0.1271  0.8328 -0.7438
12254TIP3    H258254   2.733   3.053  15.457 -3.0535 -4.4753  1.8547
12255TIP3   OH258255   0.414   1.775  12.856 -0.3137 -0.2784 -0.2043
12255TIP3    H158256   0.450   1.697  12.898 -0.0741 -0.4488 -0.7218
12255TIP3    H258257   0.385   1.745  12.770  2.0019  0.7095 -1.3656
12256TIP3   OH258258   4.587   6.800   1.563 -0.4177 -0.3787 -0.0035
12256TIP3    H158259   4.544   6.854   1.630 -3.0465  0.0257 -1.9497
12256TIP3    H258260   4.639   6.862   1.512  0.7411 -0.5265  0.9750
12257TIP3   OH258261   2.625   1.531  17.185 -0.1108  0.7475 -0.0809
12257TIP3    H158262   2.709   1.576  17.173  0.1541  0.4058  0.4632
12257TIP3    H258263   2.568   1.568  17.117  0.5366  0.8368 -0.5815
12258TIP3   OH258264   1.592   0.559   3.800  0.6890  0.1708  0.0808
12258TIP3    H158265   1.631   0.497   3.861  0.8028 -0.6455 -0.8002
12258TIP3    H258266   1.668   0.602   3.759  0.6037  2.0637  1.8401
12259TIP3   OH258267   4.591   5.421   5.151 -0.6606 -0.2615  0.0393
12259TIP3    H158268   4.606   5.480   5.225 -1.0504 -0.7158  0.4874
12259TIP3    H258269   4.671   5.426   5.099  0.6671 -1.9190  1.8828
12260TIP3   OH258270   0.892   3.708   3.038  0.0602  0.1460 -0.0636
12260TIP3    H158271   0.848   3.750   2.964 -0.6667  0.1823  0.3882
12260TIP3    H258272   0.977   3.753   3.043 -0.3076  0.8750 -0.2091
12261TIP3   OH258273   6.798   6.712  12.127 -0.0806 -0.3897 -0.5593
12261TIP3    H158274   6.766   6.623  12.113 -0.5888  0.0271 -2.1376
12261TIP3    H258275   6.791   6.754  12.041  2.5927  0.4070 -0.4358
12262TIP3   OH258276   3.505   4.993  16.536 -0.5234  0.3251  0.1841
12262TIP3    H158277   3.449   4.943  16.595 -1.2115  0.1519 -0.6097
12262TIP3    H258278   3.589   5.000  16.582 -0.5003 -1.3214  0.4143
12263TIP3   OH258279   4.690   3.582   2.738  0.0192  0.4736 -0.1377
12263TIP3    H158280   4.634   3.573   2.661 -0.3324 -1.3549  0.3102
12263TIP3    H258281   4.655   3.518   2.800 -0.4754  2.7494  2.0054
12264TIP3   OH258282   2.949   1.865  11.718 -0.9952  0.0054  0.7373
12264TIP3    H158283   2.995   1.794  11.673  0.6454  0.7908  1.1520
12264TIP3    H258284   2.865   1.870  11.673  0.9910  1.4827 -3.0467
12265TIP3   OH258285   0.028   5.059  15.282 -0.3325  0.1030 -0.4499
12265TIP3    H158286   0.007   4.974  15.320  0.0497 -0.9323 -2.4683
12265TIP3    H258287   0.004   5.050  15.189  3.6663  0.7535 -1.6209
12266TIP3   OH258288   1.806   0.497  17.275 -0.0931 -0.1035  0.0340
12266TIP3    H158289   1.743   0.434  17.309 -2.6476  2.1502 -0.3338
12266TIP3    H258290   1.752   0.563  17.230  2.6402  1.1008 -1.5840
12267TIP3   OH258291   2.172   4.394  16.707 -0.0352 -0.2061  0.9708
12267TIP3    H158292   2.140   4.323  16.652 -2.6199  0.7207  1.2203
12267TIP3    H258293   2.193   4.464  16.645 -0.6807 -0.0079  0.9728
12268TIP3   OH258294   0.353   4.715   2.651 -0.1464 -0.0808  0.1695
12268TIP3    H158295   0.374   4.622   2.638  0.5952 -0.0606  1.1718
12268TIP3    H258296   0.438   4.757   2.663 -0.5933  0.4376  1.5368
12269TIP3   OH258297   4.765   6.623   6.241 -0.5198 -0.2612 -0.5336
12269TIP3    H158298   4.857   6.637   6.263 -0.8558  2.6928 -0.7754
12269TIP3    H258299   4.754   6.665   6.156 -1.9356 -1.1895 -0.8243
12270TIP3   OH258300   4.289   3.797   6.521  0.4003  0.1840  0.1536
12270TIP3    H158301   4.268   3.780   6.429  0.0082  1.7953 -0.0609
12270TIP3    H258302   4.286   3.710   6.563 -2.8979 -0.1411 -0.6450
12271TIP3   OH258303   5.795   3.745   5.684 -0.3732 -0.2798 -0.0313
12271TIP3    H158304   5.750   3.826   5.659  0.0108 -0.2499 -0.6474
12271TIP3    H258305   5.731   3.676   5.670  0.3680 -0.4480 -2.6972
12272TIP3   OH258306   5.056   4.740   5.643 -0.1861 -0.1881  0.1831
12272TIP3    H158307   5.008   4.791   5.708 -0.6464 -0.3519 -0.0296
12272TIP3    H258308   5.073   4.656   5.686 -0.5420 -0.3178  0.0675
12273TIP3   OH258309   4.335   4.860   0.665  0.0754 -0.6354  0.2336
12273TIP3    H158310   4.315   4.905   0.747  0.3455 -1.4227  0.7405
12273TIP3    H258311   4.431   4.863   0.658  0.0397 -0.3496 -0.1851
12274TIP3   OH258312   5.757   2.299  15.235 -0.0180  0.0587 -0.2030
12274TIP3    H158313   5.661   2.303  15.242 -0.1821  0.5797 -2.3058
12274TIP3    H258314   5.783   2.389  15.217  1.0438  0.2121  2.0065
12275TIP3   OH258315   0.042   1.561   0.502  0.1522  0.5819  0.2758
12275TIP3    H158316   0.042   1.540   0.408  2.0532  0.8277  0.1878
12275TIP3    H258317   0.135   1.562   0.525 -0.2570  1.7248  1.9066
12276TIP3   OH258318   6.118   1.909  14.875  0.1277  0.0280  0.1326
12276TIP3    H158319   6.029   1.884  14.902 -0.9011  0.9456 -2.2159
12276TIP3    H258320   6.168   1.911  14.956 -1.7082 -1.6612  1.3713
12277TIP3   OH258321   2.206   1.493  11.568 -0.7185  0.2750  0.4737
12277TIP3    H158322   2.154   1.503  11.488 -0.0639  0.2919  0.0454
12277TIP3    H258323   2.142   1.481  11.638 -1.2748 -0.2759 -0.1322
12278TIP3   OH258324   1.646   2.603  14.779  0.8923  0.0701  0.3706
12278TIP3    H158325   1.584   2.668  14.746  0.6030  0.0443  0.8711
12278TIP3    H258326   1.717   2.603  14.714  1.1036  1.1847  0.5872
12279TIP3   OH258327   1.228   4.437  10.736  0.6032 -0.2509  0.0313
12279TIP3    H158328   1.219   4.448  10.642  0.5618  1.3664  0.2116
12279TIP3    H258329   1.141   4.454  10.771  1.0697  1.2477  0.5239
12280TIP3   OH258330   6.219   2.940   0.823 -0.2070 -0.2611  0.0687
12280TIP3    H158331   6.302   2.893   0.815 -0.1729  0.2016 -2.5129
12280TIP3    H258332   6.154   2.871   0.832  0.1555 -0.6997 -0.6507
12281TIP3   OH258333   2.398   1.158   0.152 -0.4537 -0.1249  0.1935
12281TIP3    H158334   2.402   1.250   0.178  0.8813  0.4577 -1.9231
12281TIP3    H258335   2.441   1.111   0.223  0.0073  1.0465  0.7013
12282TIP3   OH258336   1.019   0.340   4.247 -0.1189  0.0103  0.6171
12282TIP3    H158337   1.108   0.350   4.212  0.0967 -1.2310  0.7797
12282TIP3    H258338   0.963   0.338   4.169 -0.0675  1.2957  0.5343
12283TIP3   OH258339   1.713   3.312   3.105  0.2697  0.0096  0.6831
12283TIP3    H158340   1.759   3.395   3.101 -0.1648  0.2943  1.4714
12283TIP3    H258341   1.783   3.246   3.107  0.6169  0.3652  0.3087
12284TIP3   OH258342   3.002   6.562   1.413  0.2962  0.3121  0.7402
12284TIP3    H158343   3.074   6.500   1.418  1.6003  1.6726 -0.3991
12284TIP3    H258344   2.950   6.546   1.491  1.5321 -1.0723  1.2904
12285TIP3   OH258345   0.986   3.727  12.051  0.2443 -0.5945 -0.3439
12285TIP3    H158346   0.943   3.756  11.971  1.8912  2.0809 -0.3120
12285TIP3    H258347   0.915   3.715  12.114 -0.8286 -0.3958 -1.5058
12286TIP3   OH258348   3.229   3.426  12.056 -0.5734  0.2442  0.4262
12286TIP3    H158349   3.278   3.346  12.037 -1.3362 -0.0969 -0.1416
12286TIP3    H258350   3.263   3.456  12.140 -0.1300 -0.5540  0.5373
12287TIP3   OH258351   3.919   6.317   0.282  0.3428 -0.3984 -0.2149
12287TIP3    H158352   3.958   6.385   0.338 -0.3559 -1.4953  1.6470
12287TIP3    H258353   3.826   6.341   0.278 -0.0941 -1.7937  1.2837
12288TIP3   OH258354   6.599   5.719   1.222 -0.0782  0.3060  0.4461
12288TIP3    H158355   6.653   5.740   1.298 -1.3857  1.5395  1.0630
12288TIP3    H258356   6.604   5.797   1.167 -0.6883  0.1660  0.1930
12289TIP3   OH258357   2.972   4.470  15.893  0.2090 -0.2353  0.2947
12289TIP3    H158358   2.879   4.471  15.916 -0.1291  0.7581 -1.0568
12289TIP3    H258359   3.010   4.401  15.948 -1.5920 -1.6755 -0.2205
12290TIP3   OH258360   0.580   5.439   5.353 -0.1440 -0.2882 -0.2389
12290TIP3    H158361   0.497   5.398   5.333 -0.3641 -0.1892  0.4676
12290TIP3    H258362   0.646   5.381   5.315 -0.4967 -0.7915 -0.0689
12291TIP3   OH258363   1.950   5.342   4.927  0.5738  0.2725 -0.0342
12291TIP3    H158364   1.892   5.415   4.904 -0.1198 -0.2831 -0.0910
12291TIP3    H258365   1.913   5.308   5.008  1.4306  0.5432  0.4770
12292TIP3   OH258366   4.093   6.464   3.245  0.5194 -0.2859  0.1757
12292TIP3    H158367   4.090   6.432   3.154  1.8724 -0.9679  0.3622
12292TIP3    H258368   4.158   6.409   3.288  2.8469  2.6492  0.5412
12293TIP3   OH258369   6.021   1.314   3.331 -1.0552 -0.3753  0.1162
12293TIP3    H158370   6.026   1.248   3.262 -1.5648 -0.9183  0.5876
12293TIP3    H258371   5.929   1.314   3.357 -0.9821  0.2483  0.3849
12294TIP3   OH258372   2.628   4.203  12.707 -0.9120 -0.1405 -0.1928
12294TIP3    H158373   2.659   4.180  12.794 -1.1909  1.8812  0.4766
12294TIP3    H258374   2.657   4.132  12.651 -0.8181 -1.5226  1.5655
12295TIP3   OH258375   5.157   2.395   1.125 -0.4961  0.2802 -0.1438
12295TIP3    H158376   5.233   2.366   1.175  0.8547  4.7968  0.6662
12295TIP3    H258377   5.091   2.416   1.191 -1.3524 -0.6976 -0.6752
12296TIP3   OH258378   3.618   3.787  12.682 -0.0452  0.5120 -0.1635
12296TIP3    H158379   3.590   3.776  12.773  0.8980  1.6393  0.2826
12296TIP3    H258380   3.693   3.728  12.673  0.6962  1.3882  0.1931
12297TIP3   OH258381   5.001   2.788   5.847 -0.3856 -0.2289 -0.5069
12297TIP3    H158382   4.979   2.788   5.754  1.0451 -1.5138 -0.8751
12297TIP3    H258383   5.014   2.695   5.869  0.9217  0.1698  0.5558
12298TIP3   OH258384   3.016   3.886  15.331 -0.0836 -0.0833 -0.2766
12298TIP3    H158385   2.993   3.900  15.239 -0.0553  0.5877 -0.1847
12298TIP3    H258386   3.044   3.794  15.335 -1.2207 -0.4521 -0.6984
12299TIP3   OH258387   4.362   5.102   1.933  0.1909 -0.0842  0.1448
12299TIP3    H158388   4.357   5.007   1.937  0.8056 -0.0497  1.8603
12299TIP3    H258389   4.323   5.124   1.848  1.8860 -1.9896 -1.1988
12300TIP3   OH258390   5.827   5.845  17.184  0.3381 -0.6157  0.0678
12300TIP3    H158391   5.890   5.792  17.136 -0.6496 -1.5206 -0.2446
12300TIP3    H258392   5.834   5.932  17.144  0.5547 -1.0020 -0.7426
12301TIP3   OH258393   6.073   5.877  12.797 -0.7505 -0.4860 -0.1204
12301TIP3    H158394   6.029   5.940  12.855 -0.7532  0.2119 -0.8665
12301TIP3    H258395   6.127   5.825  12.856 -1.3786 -0.3273  0.6154
12302TIP3   OH258396   3.264   2.341  14.575  0.0702  0.2162 -0.5775
12302TIP3    H158397   3.301   2.336  14.663 -0.1929  0.7260 -0.4404
12302TIP3    H258398   3.195   2.275  14.575  1.3851 -1.1921 -1.0352
12303TIP3   OH258399   5.943   5.405  13.390 -0.6054 -0.0589 -0.1767
12303TIP3    H158400   5.966   5.347  13.317  0.3036 -0.1281  0.1517
12303TIP3    H258401   5.939   5.346  13.466 -1.7403 -0.0192 -0.2011
12304TIP3   OH258402   5.349   4.289  11.682 -0.1337  0.3923  0.3273
12304TIP3    H158403   5.312   4.220  11.628  0.1701  0.3574  0.1626
12304TIP3    H258404   5.311   4.370  11.648 -0.0695  0.3547  0.1682
12305TIP3   OH258405   4.242   6.670   2.287  0.9083 -0.0914 -0.2762
12305TIP3    H158406   4.263   6.593   2.340  3.3551  1.1660  0.6945
12305TIP3    H258407   4.234   6.742   2.351 -1.2264  0.5045 -1.1698
12306TIP3   OH258408   4.179   1.402  12.943  0.2512 -0.4559  0.0146
12306TIP3    H158409   4.270   1.376  12.953  0.8959  1.3261 -0.8924
12306TIP3    H258410   4.169   1.417  12.849 -0.9965 -0.6933  0.0985
12307TIP3   OH258411   1.698   6.110   5.850  1.0132  0.4662  0.0016
12307TIP3    H158412   1.772   6.158   5.887  2.1393 -1.5908  0.4897
12307TIP3    H258413   1.709   6.118   5.755  2.8743 -1.3203  0.0511
12308TIP3   OH258414   0.818   0.344   1.087 -0.2462 -0.2619 -0.0385
12308TIP3    H158415   0.794   0.408   1.020 -1.5647  0.2237  0.8760
12308TIP3    H258416   0.736   0.327   1.134  0.2615 -2.0296  0.2316
12309TIP3   OH258417   0.475   3.983   2.997  0.0799 -0.0098 -0.1149
12309TIP3    H158418   0.524   4.013   3.074 -0.0792 -0.3490  0.1200
12309TIP3    H258419   0.503   3.892   2.985 -1.2165 -0.5152  0.6145
12310TIP3   OH258420   3.976   4.341  13.814 -0.5885  0.7159  0.3181
12310TIP3    H158421   4.001   4.260  13.860 -1.0781  0.2960 -0.1523
12310TIP3    H258422   4.060   4.385  13.797 -0.2796  0.0434  0.0875
12311TIP3   OH258423   5.606   0.672  11.603  0.2423 -0.1172 -0.5198
12311TIP3    H158424   5.603   0.658  11.508  1.5260 -1.5717 -0.3731
12311TIP3    H258425   5.640   0.590  11.638 -1.9002 -0.2272  1.3901
12312TIP3   OH258426   5.179   5.381  11.476 -0.0415  0.6356  0.2724
12312TIP3    H158427   5.270   5.371  11.503  0.1650  1.3933 -0.1066
12312TIP3    H258428   5.144   5.451  11.532 -0.8757 -0.7620  1.5421
12313TIP3   OH258429   6.761   3.799   4.485  0.6044 -0.3640 -0.2840
12313TIP3    H158430   6.722   3.726   4.438 -2.3571  0.7079  0.4346
12313TIP3    H258431   6.798   3.760   4.564  0.7757 -1.3500 -0.8449
12314TIP3   OH258432   4.713   1.308  16.324  0.2223 -0.2249  0.3294
12314TIP3    H158433   4.770   1.231  16.317  0.1587 -0.2180 -0.2471
12314TIP3    H258434   4.624   1.271  16.329  0.1115 -0.1575 -0.9653
12315TIP3   OH258435   2.104   5.483   0.701  0.2678  0.3076  0.2628
12315TIP3    H158436   2.064   5.485   0.615  1.8619  1.9626 -0.4930
12315TIP3    H258437   2.037   5.518   0.760 -0.5861 -0.2009 -0.3996
12316TIP3   OH258438   2.526   2.567  14.465  0.1890  0.1289  0.8011
12316TIP3    H158439   2.513   2.474  14.450  0.0450 -0.1383  2.5072
12316TIP3    H258440   2.558   2.601  14.381 -1.6256 -1.0735 -0.3956
12317TIP3   OH258441   3.747   5.730   0.994 -0.1376  0.2966 -0.0260
12317TIP3    H158442   3.749   5.728   1.089 -0.6064  0.3286 -0.0137
12317TIP3    H258443   3.667   5.683   0.970 -0.3713  0.8678 -0.3821
12318TIP3   OH258444   4.168   6.209  11.349  0.2291  0.9218  0.2989
12318TIP3    H158445   4.112   6.253  11.413 -1.4133  0.0521 -0.5055
12318TIP3    H258446   4.129   6.122  11.339  3.4805 -0.8618  1.9966
12319TIP3   OH258447   1.239   0.494  14.766  0.1305 -0.6804  0.4734
12319TIP3    H158448   1.270   0.439  14.839  2.2764 -0.7884 -0.4755
12319TIP3    H258449   1.144   0.479  14.764  0.1004 -1.0804  2.8948
12320TIP3   OH258450   2.889   0.294   3.061  0.0144 -0.9004  0.1045
12320TIP3    H158451   2.818   0.340   3.106 -0.0792 -0.9143 -0.0314
12320TIP3    H258452   2.901   0.342   2.979  1.0998 -0.0431  0.7433
12321TIP3   OH258453   4.621   4.167   3.136  0.6121  0.5608  0.1078
12321TIP3    H158454   4.658   4.246   3.096 -0.2050  0.2746 -1.2702
12321TIP3    H258455   4.585   4.118   3.062  2.2654 -1.7323  0.7852
12322TIP3   OH258456   6.465   3.401   1.931  0.4765 -0.0038  0.1597
12322TIP3    H158457   6.535   3.343   1.901  0.3019  0.4815 -1.2197
12322TIP3    H258458   6.391   3.381   1.874  0.5746  1.9107 -0.7033
12323TIP3   OH258459   3.073   4.028  13.662 -0.1658 -0.1376  0.1348
12323TIP3    H158460   3.157   4.044  13.705 -0.0883 -1.3288  0.4532
12323TIP3    H258461   3.014   4.094  13.698  0.3521  0.0014  0.7403
12324TIP3   OH258462   5.948   2.880  17.060  0.3429  0.2177 -0.4045
12324TIP3    H158463   6.033   2.896  17.102  0.8080 -3.9497  0.4671
12324TIP3    H258464   5.884   2.891  17.130  0.3267  1.0700 -0.5331
12325TIP3   OH258465   4.039   5.976  11.589  0.4940 -0.0055 -0.0375
12325TIP3    H158466   4.041   5.974  11.493  0.8373  1.8498 -0.0932
12325TIP3    H258467   4.017   5.887  11.615  2.5020 -1.0427 -1.7898
12326TIP3   OH258468   3.909   5.945   5.019 -0.7599 -0.5682 -0.3034
12326TIP3    H158469   3.819   5.928   5.047 -0.8424 -2.9376 -1.8749
12326TIP3    H258470   3.961   5.875   5.059  0.4323  0.8733  0.7240
12327TIP3   OH258471   2.461   6.236   4.215 -0.2519 -0.1284 -0.7464
12327TIP3    H158472   2.547   6.207   4.183 -0.7691 -0.0728 -2.2535
12327TIP3    H258473   2.480   6.283   4.296  1.2148  0.3937 -1.3720
12328TIP3   OH258474   0.757   3.218   2.912 -0.2485  0.7464 -0.1003
12328TIP3    H158475   0.708   3.164   2.850  1.6159 -0.3546 -0.6366
12328TIP3    H258476   0.690   3.251   2.973 -1.7691  0.0017 -1.3396
12329TIP3   OH258477   0.370   5.075   2.226 -0.3042 -0.3233  0.0471
12329TIP3    H158478   0.305   5.015   2.262 -0.9017 -0.1458 -0.7263
12329TIP3    H258479   0.323   5.158   2.217  0.2002 -0.0368  0.0598
12330TIP3   OH258480   3.497   0.524  17.201 -0.3551 -0.5378 -0.1410
12330TIP3    H158481   3.407   0.544  17.174  0.3269  2.5915 -0.3413
12330TIP3    H258482   3.491   0.506  17.294 -1.2589 -0.7947 -0.2418
12331TIP3   OH258483   3.057   2.738  13.176  0.1937  0.2458 -0.7208
12331TIP3    H158484   3.091   2.792  13.247 -0.2485 -0.8697  0.3363
12331TIP3    H258485   3.135   2.710  13.128  0.5256  0.5473 -0.3678
12332TIP3   OH258486   6.699   5.625  11.754 -0.0166  0.6463  0.4370
12332TIP3    H158487   6.622   5.569  11.767  0.3548  0.2930  1.1488
12332TIP3    H258488   6.771   5.564  11.741  0.3262  0.9559  0.8458
12333TIP3   OH258489   2.959   3.079   3.863 -0.0732  0.4685 -0.6785
12333TIP3    H158490   2.988   3.169   3.850  2.1135 -0.0873  0.0684
12333TIP3    H258491   2.949   3.071   3.958 -1.6839  0.3238 -0.8459
12334TIP3   OH258492   4.240   1.475  11.822  0.0762  0.7800  0.1315
12334TIP3    H158493   4.153   1.507  11.799 -1.1627 -1.0782  1.9563
12334TIP3    H258494   4.246   1.389  11.780  0.0090 -0.1674  1.9875
12335TIP3   OH258495   4.170   0.792  14.418 -0.0163 -0.1523  0.0325
12335TIP3    H158496   4.075   0.808  14.420  0.0236 -0.0541  1.2809
12335TIP3    H258497   4.188   0.744  14.499  1.0894  0.3261  0.0738
12336TIP3   OH258498   4.325   3.809   3.770 -0.3306  0.0721  0.1109
12336TIP3    H158499   4.323   3.887   3.715  0.4122  0.3896  0.5409
12336TIP3    H258500   4.327   3.842   3.860 -1.3238 -0.4445  0.3433
12337TIP3   OH258501   4.443   5.933   2.769 -0.1966  0.3712 -0.5767
12337TIP3    H158502   4.529   5.941   2.728  0.3194 -0.9389  0.1958
12337TIP3    H258503   4.414   5.845   2.745 -0.6032  0.2111  0.5023
12338TIP3   OH258504   2.229   4.473  11.233 -0.2402 -0.0003  0.1320
12338TIP3    H158505   2.152   4.428  11.200  0.0353 -1.3128  1.2144
12338TIP3    H258506   2.302   4.415  11.211  0.4496  1.1769 -0.7976
12339TIP3   OH258507   2.979   4.853  13.771 -0.3101  0.6253  0.2671
12339TIP3    H158508   3.040   4.779  13.779 -0.6078  0.3645  0.0895
12339TIP3    H258509   2.982   4.877  13.679  1.3663  2.1708  0.6803
12340TIP3   OH258510   3.338   5.632  13.574 -0.3701  0.2047  0.1842
12340TIP3    H158511   3.299   5.667  13.494 -0.9514  0.6887  0.6749
12340TIP3    H258512   3.265   5.595  13.623 -0.0290 -0.0237  0.5323
12341TIP3   OH258513   0.237   5.591   5.367  0.2140 -0.1970 -0.3802
12341TIP3    H158514   0.291   5.621   5.440  0.9806 -0.7925 -0.6945
12341TIP3    H258515   0.150   5.625   5.386  0.3384 -0.6100  0.9796
12342TIP3   OH258516   4.485   6.625  12.360  0.0148  0.4938 -0.4214
12342TIP3    H158517   4.393   6.619  12.387  0.8422 -0.2072  2.4382
12342TIP3    H258518   4.520   6.697  12.412  0.0330  3.9872 -4.9314
12343TIP3   OH258519   2.393   6.332   6.390  0.6001  0.2149 -0.1681
12343TIP3    H158520   2.325   6.398   6.402 -2.4277 -2.3651 -2.3372
12343TIP3    H258521   2.390   6.311   6.296  2.8300 -1.5948  0.1212
12344TIP3   OH258522   5.549   6.725   1.537  0.8241 -0.6774  0.0335
12344TIP3    H158523   5.519   6.815   1.546  0.4168 -0.6991 -1.0264
12344TIP3    H258524   5.601   6.726   1.457  0.8168 -1.3841  0.0199
12345TIP3   OH258525   0.752   2.803   1.971 -0.2177 -0.0094 -0.3157
12345TIP3    H158526   0.706   2.841   1.896 -1.2478 -1.8807 -0.6706
12345TIP3    H258527   0.686   2.749   2.015  0.8195 -0.2288  0.9905
12346TIP3   OH258528   3.944   2.596   4.256 -0.6079  0.1769  0.6672
12346TIP3    H158529   3.969   2.511   4.291  1.4582  0.8183  0.8158
12346TIP3    H258530   3.871   2.577   4.197 -1.0850 -1.4955  1.7633
12347TIP3   OH258531   5.054   0.469  15.062 -0.4052  0.1440  0.2820
12347TIP3    H158532   4.998   0.474  14.985 -0.8090  3.8397  0.7079
12347TIP3    H258533   5.039   0.382  15.098 -3.5474 -0.0450 -1.3625
12348TIP3   OH258534   3.326   0.059  16.370 -0.4232  0.2219  0.5495
12348TIP3    H158535   3.247   0.017  16.335 -1.4803  1.0962  1.8205
12348TIP3    H258536   3.296   0.146  16.398  1.6087  1.6256 -1.5176
12349TIP3   OH258537   3.861   6.555   5.076  0.0766 -0.2733  0.2469
12349TIP3    H158538   3.825   6.506   5.149 -0.7260 -0.3425 -0.1941
12349TIP3    H258539   3.786   6.598   5.035  0.3419 -1.1591 -1.2319
12350TIP3   OH258540   2.877   4.579  14.273  0.6827  0.1021  0.3375
12350TIP3    H158541   2.835   4.547  14.353  0.6407  1.7632  0.9948
12350TIP3    H258542   2.921   4.502  14.237  0.5610 -0.7069  1.8696
12351TIP3   OH258543   3.089   4.872  10.381  0.1519  0.5198  0.1407
12351TIP3    H158544   3.151   4.916  10.440  0.2328  1.5434 -0.6884
12351TIP3    H258545   3.099   4.918  10.298  0.2589 -1.1366 -0.7655
12352TIP3   OH258546   1.762   6.331   2.322 -0.0218 -0.5143  0.0090
12352TIP3    H158547   1.714   6.413   2.333 -0.4427 -0.1946 -3.6649
12352TIP3    H258548   1.854   6.358   2.316 -0.1355 -0.3391 -0.9406
12353TIP3   OH258549   2.413   3.814   6.431  0.1944 -0.2274  0.1266
12353TIP3    H158550   2.397   3.732   6.478  1.5400  0.6386  2.2107
12353TIP3    H258551   2.330   3.861   6.435  0.9469  0.9715  4.1103
12354TIP3   OH258552   2.885   2.391   2.527  0.2984  0.6893  0.4848
12354TIP3    H158553   2.913   2.362   2.613  1.0182  0.1462  0.0790
12354TIP3    H258554   2.795   2.419   2.539  0.7594  1.7181  1.6516
12355TIP3   OH258555   2.557   6.472  11.244  0.1653 -0.2157  0.4074
12355TIP3    H158556   2.468   6.439  11.247 -0.1099  0.5111  0.2858
12355TIP3    H258557   2.610   6.396  11.220 -0.7004 -0.1169 -1.9033
12356TIP3   OH258558   4.116   5.063  10.804  0.1485 -0.2463  0.1243
12356TIP3    H158559   4.180   5.028  10.742 -0.7869 -0.8872 -0.4756
12356TIP3    H258560   4.032   5.031  10.773 -0.4448  0.3786  1.0708
12357TIP3   OH258561   1.783   3.831  16.528  0.0409  0.7319  0.1023
12357TIP3    H158562   1.691   3.856  16.531 -0.3723 -0.7758  0.1080
12357TIP3    H258563   1.829   3.907  16.565 -0.9476  2.6096 -2.3925
12358TIP3   OH258564   1.956   5.009  12.763  0.6766 -0.5799 -0.1354
12358TIP3    H158565   1.913   4.944  12.707  1.6697 -0.9812 -0.4453
12358TIP3    H258566   1.930   4.986  12.852 -1.4333  0.4449 -0.4568
12359TIP3   OH258567   3.891   5.118   2.907 -0.2168  0.6844  0.1752
12359TIP3    H158568   3.916   5.028   2.887 -1.0603  0.7189 -1.0863
12359TIP3    H258569   3.926   5.169   2.834 -0.4151  1.2787  0.4955
12360TIP3   OH258570   2.538   0.162   1.869  0.6841 -0.5402  0.3366
12360TIP3    H158571   2.462   0.114   1.836  0.2874  1.0319 -1.1324
12360TIP3    H258572   2.552   0.231   1.804  2.0256  0.5220  1.7365
12361TIP3   OH258573   1.275   2.223   5.853  0.5899  0.2319  0.6141
12361TIP3    H158574   1.354   2.169   5.852  1.0573  0.9082  0.2427
12361TIP3    H258575   1.302   2.306   5.813 -0.2658  0.5309  0.6350
12362TIP3   OH258576   1.686   5.007   0.181  0.0674  0.4326  0.6196
12362TIP3    H158577   1.672   4.972   0.269 -0.3755  0.7212  0.6657
12362TIP3    H258578   1.703   5.100   0.194  1.1243  0.2626  0.4875
12363TIP3   OH258579   0.789   6.684   3.840 -0.8310 -0.4560  0.6691
12363TIP3    H158580   0.722   6.679   3.908 -2.1212  1.0266 -0.4622
12363TIP3    H258581   0.872   6.692   3.888 -1.8391  1.9474  2.1120
12364TIP3   OH258582   6.374   5.072   1.748  0.0864  0.4102  0.2903
12364TIP3    H158583   6.405   4.982   1.755 -0.1944  0.2612 -0.3502
12364TIP3    H258584   6.417   5.106   1.669  0.0829  0.7957  0.4532
12365TIP3   OH258585   5.866   2.508   2.466 -0.3950 -0.1684  0.6792
12365TIP3    H158586   5.961   2.514   2.454 -0.1405 -0.0980  2.5464
12365TIP3    H258587   5.837   2.452   2.395  0.9246  0.5175 -0.4395
12366TIP3   OH258588   4.953   0.433  16.265 -0.0649 -0.4055  0.2267
12366TIP3    H158589   4.867   0.391  16.265  0.3706 -1.3177  0.1799
12366TIP3    H258590   5.010   0.369  16.221  0.2238  1.0402 -1.5647
12367TIP3   OH258591   0.707   2.968  14.409 -0.4020 -0.2628  1.0710
12367TIP3    H158592   0.616   2.998  14.400  0.3802  1.6673 -0.7842
12367TIP3    H258593   0.726   2.923  14.326  0.7257  0.4398  0.9413
12368TIP3   OH258594   0.108   5.546   4.597  0.0610  0.0546  0.5893
12368TIP3    H158595   0.080   5.620   4.651 -1.0538 -0.4084  0.6412
12368TIP3    H258596   0.129   5.585   4.512 -2.2719  0.1887  0.0487
12369TIP3   OH258597   6.248   5.781   3.014  0.1601  0.1751 -0.6444
12369TIP3    H158598   6.212   5.855   3.061  0.1997  1.4504 -2.5723
12369TIP3    H258599   6.342   5.798   3.009  0.2801 -0.3955 -0.4097
12370TIP3   OH258600   3.593   5.470   4.885  0.2433 -0.5146  0.4685
12370TIP3    H158601   3.669   5.425   4.921  0.6234  0.8415  1.4364
12370TIP3    H258602   3.518   5.419   4.916  0.6327 -0.1103  2.1328
12371TIP3   OH258603   5.617   1.710   1.245 -0.4547 -0.1017 -0.3131
12371TIP3    H158604   5.593   1.630   1.291 -1.1769  0.5388  0.4584
12371TIP3    H258605   5.632   1.683   1.154 -0.2886 -1.1635  0.0220
12372TIP3   OH258606   1.700   5.136   4.366  0.1159  0.1887  0.0888
12372TIP3    H158607   1.732   5.146   4.277  0.1475 -0.5675  0.0083
12372TIP3    H258608   1.727   5.047   4.391 -0.9482 -0.0580  0.4025
12373TIP3   OH258609   1.221   0.609  15.888 -0.0209 -0.3421  0.0982
12373TIP3    H158610   1.296   0.658  15.924 -0.2299  0.7337 -0.9024
12373TIP3    H258611   1.244   0.517  15.902  2.7992 -0.1483 -2.7049
12374TIP3   OH258612   0.347   1.797   6.237 -0.1778  0.4339 -0.0878
12374TIP3    H158613   0.394   1.733   6.292 -0.3333  0.7742  0.4412
12374TIP3    H258614   0.255   1.779   6.254 -0.2214  1.8688  1.3208
12375TIP3   OH258615   0.851   5.788  16.659  0.0866 -0.1271 -0.4557
12375TIP3    H158616   0.938   5.791  16.619  0.2477  0.0969 -0.0870
12375TIP3    H258617   0.859   5.842  16.738  0.0161 -1.2570  0.3382
12376TIP3   OH258618   1.834   0.225   1.555 -0.1160  0.7090  0.2158
12376TIP3    H158619   1.879   0.251   1.474  1.7659 -1.0766  0.6588
12376TIP3    H258620   1.897   0.171   1.602 -2.6528 -1.7554  0.9521
12377TIP3   OH258621   3.361   1.208   2.698 -0.5185  0.7349  0.2616
12377TIP3    H158622   3.384   1.196   2.606  0.6171 -0.2403  0.6709
12377TIP3    H258623   3.386   1.299   2.717  0.4071  0.5497 -0.0517
12378TIP3   OH258624   2.720   6.217   4.194  0.0184 -0.7518  0.1450
12378TIP3    H158625   2.741   6.307   4.173 -0.7823 -0.7211 -0.5554
12378TIP3    H258626   2.792   6.187   4.249  0.1777  0.3757  0.5477
12379TIP3   OH258627   6.057   5.611   5.517 -0.3513  0.7011  0.4516
12379TIP3    H158628   6.085   5.673   5.584 -0.1149  2.8995 -1.6049
12379TIP3    H258629   6.137   5.563   5.494  0.0210  1.3533  0.3449
12380TIP3   OH258630   5.927   2.555   1.301 -0.2183 -0.3972 -0.2174
12380TIP3    H158631   5.909   2.538   1.394  0.4743  0.0693 -0.0010
12380TIP3    H258632   5.902   2.473   1.257 -1.6689 -0.2080  0.2291
12381TIP3   OH258633   6.285   2.378  16.993 -0.0742 -0.1485 -0.4766
12381TIP3    H158634   6.221   2.448  17.000 -0.5827 -0.6074 -0.5131
12381TIP3    H258635   6.265   2.336  16.909 -0.8371 -1.3841  0.3111
12382TIP3   OH258636   5.001   0.613  13.203 -0.6656  0.1829 -0.4939
12382TIP3    H158637   4.908   0.593  13.218 -0.8076 -0.3373 -1.9403
12382TIP3    H258638   5.047   0.533  13.230 -0.7414  0.0227 -0.8324
12383TIP3   OH258639   3.885   5.462   4.789 -0.1543 -0.5087  0.1038
12383TIP3    H158640   3.823   5.532   4.768  2.8455  1.8138 -1.4027
12383TIP3    H258641   3.939   5.499   4.859  2.2703 -0.7644 -1.5830
12384TIP3   OH258642   3.651   0.026   4.597 -0.2040  0.0079 -0.1591
12384TIP3    H158643   3.678   0.019   4.505  1.2676 -1.6920  0.3639
12384TIP3    H258644   3.623  -0.063   4.621 -0.7844  0.4823  0.9589
12385TIP3   OH258645   2.505   1.737   3.498 -0.0715  0.3809  0.3558
12385TIP3    H158646   2.474   1.773   3.581  0.6358 -1.1100  1.2814
12385TIP3    H258647   2.463   1.651   3.491 -0.7324  0.8030 -1.2086
12386TIP3   OH258648   4.132   4.959  12.503 -0.1965  0.1962  0.3248
12386TIP3    H158649   4.160   4.867  12.500  0.3928  0.4274 -1.7770
12386TIP3    H258650   4.181   4.996  12.576  2.2670 -0.3006 -1.0214
12387TIP3   OH258651   4.847   2.585   1.919 -0.5444  0.3209  0.8511
12387TIP3    H158652   4.793   2.584   1.840 -0.2026 -0.6873  0.6321
12387TIP3    H258653   4.810   2.656   1.971 -1.5052  0.2455  0.2918
12388TIP3   OH258654   4.833   0.420  12.093 -0.3267 -0.8161 -0.4561
12388TIP3    H158655   4.860   0.400  12.183 -1.9490 -0.0518  0.2202
12388TIP3    H258656   4.742   0.391  12.088 -0.9826  1.2534 -1.1241
12389TIP3   OH258657   1.059   4.232  15.747  0.0998  0.5386 -0.1858
12389TIP3    H158658   1.104   4.148  15.752  0.1929  0.6847  1.4616
12389TIP3    H258659   0.967   4.210  15.736  0.1037  0.2214  0.4266
12390TIP3   OH258660   2.234   2.377  17.078  0.5186  0.0890 -0.0685
12390TIP3    H158661   2.312   2.384  17.024 -0.1175 -0.2673 -1.0533
12390TIP3    H258662   2.214   2.466  17.105  0.2337  0.4090 -1.3046
12391TIP3   OH258663   4.068   2.944  14.772 -0.2524  0.1363  0.3907
12391TIP3    H158664   4.137   2.883  14.800  0.2490  0.1610 -0.7633
12391TIP3    H258665   3.995   2.926  14.831  0.0059 -1.3422  0.2786
12392TIP3   OH258666   4.715   0.785  17.220  0.2105  0.2762 -0.2883
12392TIP3    H158667   4.653   0.738  17.164 -1.3156 -0.0528  1.6144
12392TIP3    H258668   4.727   0.870  17.178 -2.3363  0.7216 -0.1682
12393TIP3   OH258669   2.421   4.692   0.259 -0.0480 -0.3979 -0.3623
12393TIP3    H158670   2.373   4.737   0.328  3.5610  2.7489  0.2393
12393TIP3    H258671   2.470   4.623   0.304  0.5768  0.2240 -0.0797
12394TIP3   OH258672   2.287   5.087  13.903 -0.4657 -0.4055 -0.3238
12394TIP3    H158673   2.219   5.152  13.922 -0.0858 -0.1066  0.0226
12394TIP3    H258674   2.282   5.026  13.977  0.7511  0.5397  0.5717
12395TIP3   OH258675   6.388   6.490  13.671  0.0110 -0.6943 -0.3956
12395TIP3    H158676   6.397   6.414  13.729 -1.8285 -1.3366 -0.8996
12395TIP3    H258677   6.379   6.451  13.583  0.9013  0.1807 -0.8793
12396TIP3   OH258678   4.829   1.555   1.758  0.1123 -0.0941 -0.2908
12396TIP3    H158679   4.890   1.537   1.686  0.6325 -2.2009  0.6317
12396TIP3    H258680   4.749   1.584   1.714  0.4202 -1.3589 -1.7451
12397TIP3   OH258681   4.028   4.851  15.152  0.2170  0.1460 -0.4771
12397TIP3    H158682   3.997   4.930  15.196  0.9457  1.0426 -1.5353
12397TIP3    H258683   4.120   4.869  15.132  1.4280 -2.3637  2.4049
12398TIP3   OH258684   0.447   3.711  11.732 -0.2443 -0.3520 -0.0381
12398TIP3    H158685   0.480   3.793  11.694  1.8302 -2.3055 -2.6285
12398TIP3    H258686   0.508   3.690  11.802  0.2597 -0.5990 -0.5497
12399TIP3   OH258687   2.203   2.363  14.365  0.3793  0.0224  0.4436
12399TIP3    H158688   2.158   2.278  14.361 -0.5158  0.5397 -0.7804
12399TIP3    H258689   2.296   2.341  14.352 -0.0477 -0.6017 -1.8046
12400TIP3   OH258690   1.999   5.588   3.948 -0.1572  0.0342  0.2597
12400TIP3    H158691   2.008   5.608   3.855 -0.1748  1.8053  0.6242
12400TIP3    H258692   2.086   5.556   3.974  0.2900  1.0062 -0.0244
12401TIP3   OH258693   6.684   0.197   1.893 -0.1460  0.5671  0.7677
12401TIP3    H158694   6.662   0.241   1.975  1.4631  1.1882  0.8872
12401TIP3    H258695   6.777   0.215   1.880 -0.0692 -0.6265 -0.5237
12402TIP3   OH258696   0.218   0.176  13.693  0.8013  0.3920 -0.1090
12402TIP3    H158697   0.152   0.246  13.684  0.1770 -0.3998 -2.1279
12402TIP3    H258698   0.293   0.207  13.642  0.2533 -0.6936 -1.6107
12403TIP3   OH258699   3.544   3.406  11.910  0.4717  0.0709 -0.2670
12403TIP3    H158700   3.514   3.439  11.995  1.6242  0.9270 -0.1872
12403TIP3    H258701   3.587   3.323  11.930 -2.0475 -1.3233 -0.4171
12404TIP3   OH258702   1.893   1.033   0.283  0.0003 -0.2090  0.1988
12404TIP3    H158703   1.832   1.025   0.356 -0.6947  1.0476 -0.2334
12404TIP3    H258704   1.854   1.098   0.225  0.9835 -0.5356 -0.8583
12405TIP3   OH258705   1.688   3.403  14.103  0.2187 -0.1302  0.2677
12405TIP3    H158706   1.630   3.466  14.145 -1.7304  0.1513 -2.6919
12405TIP3    H258707   1.714   3.445  14.021  1.4039 -1.9345 -0.3207
12406TIP3   OH258708   4.661   3.565  11.548 -0.1664 -0.1898  0.3280
12406TIP3    H158709   4.665   3.470  11.558 -0.0357 -0.1093  1.0818
12406TIP3    H258710   4.645   3.597  11.637 -0.2855  0.4874  0.0618
12407TIP3   OH258711   2.307   6.071   5.271 -0.5090 -0.0901  0.0031
12407TIP3    H158712   2.391   6.063   5.316 -0.9477  1.0907  1.0387
12407TIP3    H258713   2.315   6.012   5.196  0.4691 -1.5959  1.2577
12408TIP3   OH258714   0.211   6.614  14.189 -0.3346  0.3034 -0.3361
12408TIP3    H158715   0.137   6.618  14.249  0.7049 -0.2394  0.9961
12408TIP3    H258716   0.269   6.686  14.217  0.5482 -0.4703 -0.1372
12409TIP3   OH258717   5.712   0.545   1.404  0.0659  0.3712  0.1534
12409TIP3    H158718   5.783   0.569   1.344  1.1028 -1.6710  0.4940
12409TIP3    H258719   5.757   0.526   1.487 -0.9076 -0.6533  0.4572
12410TIP3   OH258720   1.067   0.040   1.679  0.1127 -0.0292  0.1351
12410TIP3    H158721   1.081   0.064   1.587 -0.8451  0.5453  0.1428
12410TIP3    H258722   0.994  -0.022   1.677 -0.0507  0.1507  0.5373
12411TIP3   OH258723   4.085   1.992  17.037  0.0577 -0.2898 -0.1907
12411TIP3    H158724   3.992   1.969  17.038  0.4390 -1.8551 -0.7994
12411TIP3    H258725   4.116   1.967  16.951  1.9655 -3.5030  1.3458
12412TIP3   OH258726   5.341   4.569  10.938  0.2133 -0.6657 -0.3375
12412TIP3    H158727   5.418   4.604  10.894  0.2280 -0.3838 -0.0908
12412TIP3    H258728   5.305   4.504  10.877  1.5140 -1.8881  0.1649
12413TIP3   OH258729   6.537   5.054  11.645 -0.5028 -0.0986  0.0802
12413TIP3    H158730   6.515   5.002  11.568 -0.6812 -2.3452  1.6113
12413TIP3    H258731   6.471   5.123  11.647 -0.9146 -0.4427 -1.3907
12414TIP3   OH258732   1.343   5.247   4.198  0.0551 -0.1500  0.0600
12414TIP3    H158733   1.418   5.292   4.159  1.8428 -3.3437 -0.4060
12414TIP3    H258734   1.282   5.235   4.126  0.4578 -0.2484 -0.2664
12415TIP3   OH258735   4.332   0.059   6.548  0.3022 -0.1830 -0.3876
12415TIP3    H158736   4.242   0.027   6.547  0.2146  0.0749 -0.9167
12415TIP3    H258737   4.325   0.151   6.574  0.5162 -0.4696  0.7103
12416TIP3   OH258738   1.006   3.981   6.349 -0.5475 -0.1455  0.2751
12416TIP3    H158739   0.946   4.054   6.335  0.7352  1.1813  1.5857
12416TIP3    H258740   0.991   3.954   6.439 -0.3086 -0.8640  0.1038
12417TIP3   OH258741   4.688   6.167   5.319  0.4322  0.1381 -0.2618
12417TIP3    H158742   4.675   6.148   5.412  0.0747 -2.3530 -0.7714
12417TIP3    H258743   4.735   6.090   5.285 -0.2708  0.5726 -2.3125
12418TIP3   OH258744   0.818   1.043   6.635  0.5158  0.1621  0.6068
12418TIP3    H158745   0.810   1.133   6.602  1.3068 -0.2760 -0.8029
12418TIP3    H258746   0.911   1.034   6.656  0.7740 -0.8848 -0.9207
12419TIP3   OH258747   2.888   0.769   0.182 -0.1521 -0.1721 -0.4024
12419TIP3    H158748   2.859   0.829   0.251  2.2270 -0.3348  0.7934
12419TIP3    H258749   2.907   0.687   0.229 -2.1355 -1.4974 -1.8246
12420TIP3   OH258750   0.624   3.534   4.142 -0.9762 -0.1413 -0.3626
12420TIP3    H158751   0.607   3.458   4.198 -1.5640  0.1700 -0.1071
12420TIP3    H258752   0.688   3.586   4.190  1.1656 -1.5878 -1.5714
12421TIP3   OH258753   4.370   5.374  13.883  0.3224 -0.0355  0.8880
12421TIP3    H158754   4.347   5.464  13.860 -0.0084 -0.0339  1.2213
12421TIP3    H258755   4.332   5.361  13.970  1.3270 -0.1257  1.3245
12422TIP3   OH258756   0.412   6.186  17.148 -0.4875  0.6982 -0.1904
12422TIP3    H158757   0.430   6.094  17.130 -3.1810 -0.1418  1.0216
12422TIP3    H258758   0.344   6.210  17.085 -1.1670  1.2560  0.7174
12423TIP3   OH258759   5.754   4.329  16.904 -0.2252 -0.2092  0.1167
12423TIP3    H158760   5.825   4.310  16.843  0.0084 -0.1575  0.3748
12423TIP3    H258761   5.743   4.424  16.901 -0.6355 -0.2729 -0.3155
12424TIP3   OH258762   1.813   0.240  16.254  0.2708  0.0118  0.1473
12424TIP3    H158763   1.866   0.272  16.327 -0.4204 -2.2650  1.6941
12424TIP3    H258764   1.723   0.259  16.279  0.0151 -0.9906  0.0073
12425TIP3   OH258765   0.085   4.905  17.233  0.2291 -0.4046 -0.8556
12425TIP3    H158766   0.023   4.921  17.162  0.4329 -0.7635 -1.1219
12425TIP3    H258767   0.033   4.860  17.300  0.3183 -1.2166 -1.3129
12426TIP3   OH258768   4.257   1.418   1.821  0.1645 -0.2953 -0.1418
12426TIP3    H158769   4.210   1.499   1.840  1.9462  0.7190  0.1009
12426TIP3    H258770   4.205   1.375   1.754 -0.0781  1.7500 -1.3299
12427TIP3   OH258771   5.473   1.957  13.295 -0.6278  0.2155 -0.1720
12427TIP3    H158772   5.443   1.866  13.292  1.9288 -0.6414 -1.3912
12427TIP3    H258773   5.522   1.969  13.213  3.1252  1.1951  2.0885
12428TIP3   OH258774   5.530   5.193   2.964 -0.1936 -0.5396 -0.2254
12428TIP3    H158775   5.489   5.179   2.879 -0.7777 -0.0298 -0.0295
12428TIP3    H258776   5.599   5.126   2.969  1.6565  1.1252 -2.2529
12429TIP3   OH258777   5.384   2.768  12.739 -0.2269 -0.1202  0.0256
12429TIP3    H158778   5.394   2.674  12.752  1.8116  0.2630  1.4357
12429TIP3    H258779   5.374   2.778  12.644 -1.1516 -1.8036 -0.0659
12430TIP3   OH258780   4.196   1.904  17.287  0.8421  0.1558  0.3243
12430TIP3    H158781   4.154   1.880  17.204 -0.2555  1.1727  0.5864
12430TIP3    H258782   4.255   1.830  17.305  0.4373 -0.4947 -0.9022
12431TIP3   OH258783   4.230   0.422  16.576  0.2121 -0.5970 -0.3389
12431TIP3    H158784   4.311   0.373  16.594  0.4585 -0.1819 -0.2983
12431TIP3    H258785   4.233   0.437  16.481 -0.2316 -1.2948 -0.4640
12432TIP3   OH258786   4.561   3.610   1.426  0.0092 -0.2205  0.1080
12432TIP3    H158787   4.483   3.644   1.381  0.4672  0.2691 -0.3212
12432TIP3    H258788   4.538   3.613   1.519 -0.2157  0.6161  0.0294
12433TIP3   OH258789   1.327   5.073   0.255 -0.3020 -0.0101  0.1463
12433TIP3    H158790   1.368   5.133   0.193 -1.7835  0.7621 -0.1131
12433TIP3    H258791   1.371   4.989   0.239 -0.9266  0.0771 -2.2329
12434TIP3   OH258792   4.663   2.216   3.145  0.6444 -0.2532  0.5650
12434TIP3    H158793   4.712   2.293   3.174  1.0128 -0.0479 -0.5683
12434TIP3    H258794   4.725   2.169   3.089  0.3981 -1.3394  1.1900
12435TIP3   OH258795   4.029   0.575  11.794  0.4866  0.0064 -0.7319
12435TIP3    H158796   4.065   0.656  11.830  2.2453  0.1523 -2.7693
12435TIP3    H258797   3.963   0.548  11.859  3.0363  0.6347  2.2551
12436TIP3   OH258798   5.670   4.065   2.864 -0.1020  0.4361 -0.2742
12436TIP3    H158799   5.639   4.154   2.850  1.0881  0.4581 -3.0653
12436TIP3    H258800   5.605   4.010   2.821 -0.2237 -0.0028  0.4473
12437TIP3   OH258801   3.422   0.643   0.866  0.2535  0.1394 -0.4230
12437TIP3    H158802   3.451   0.552   0.864 -1.5098 -0.4447 -0.3600
12437TIP3    H258803   3.343   0.641   0.920  0.3446  1.7476 -0.2255
12438TIP3   OH258804   6.210   4.805  16.611 -0.0763 -0.1683  0.0652
12438TIP3    H158805   6.164   4.881  16.645  0.2667 -0.5803  1.5027
12438TIP3    H258806   6.161   4.730  16.645  0.5806 -0.5936  0.0927
12439TIP3   OH258807   5.373   3.532   3.497 -0.2761  0.0072 -0.1635
12439TIP3    H158808   5.401   3.623   3.505  0.5981 -0.2215 -0.6742
12439TIP3    H258809   5.380   3.497   3.586 -2.2432  0.9025  0.3760
12440TIP3   OH258810   4.542   3.255   5.069  0.1082  0.1133 -0.6925
12440TIP3    H158811   4.606   3.189   5.042 -0.8783 -1.8364  1.6571
12440TIP3    H258812   4.558   3.267   5.163 -2.1874  0.4580 -0.3216
12441TIP3   OH258813   4.380   3.302   1.201 -0.4111 -0.0805  0.2780
12441TIP3    H158814   4.376   3.214   1.165  0.2157 -0.6055  1.4682
12441TIP3    H258815   4.335   3.357   1.137  0.3408 -1.0555 -1.0895
12442TIP3   OH258816   2.989   2.597   3.127 -0.6222  0.2666 -0.4081
12442TIP3    H158817   3.042   2.654   3.070 -0.6251 -0.0775 -0.7565
12442TIP3    H258818   3.041   2.517   3.135  1.0349  1.5624  2.8727
12443TIP3   OH258819   5.728   0.900   1.924  0.2238 -0.4506  0.5602
12443TIP3    H158820   5.792   0.854   1.979  0.9419  0.2090  0.2804
12443TIP3    H258821   5.731   0.990   1.954 -0.2843 -0.3300  0.2601
12444TIP3   OH258822   6.400   1.597   5.448  0.5297 -0.2133  0.2370
12444TIP3    H158823   6.483   1.593   5.496  0.6778 -0.0270 -0.0023
12444TIP3    H258824   6.333   1.586   5.515  0.6921  1.3562  0.6654
12445TIP3   OH258825   2.376   2.613  14.164  0.1473  0.6242  0.0635
12445TIP3    H158826   2.389   2.703  14.194  0.3536  1.2486 -1.8409
12445TIP3    H258827   2.464   2.575  14.165  0.0673  0.4421  0.8152
12446TIP3   OH258828   2.621   3.173   5.768  0.6311 -0.0373 -0.5892
12446TIP3    H158829   2.712   3.145   5.775  0.7964  0.6561  0.0855
12446TIP3    H258830   2.571   3.099   5.802  1.0947  0.7224  1.8080
12447TIP3   OH258831   6.021   0.159   3.012  0.1058 -0.0045  0.1016
12447TIP3    H158832   6.107   0.201   3.005  0.0959 -0.0052 -0.0096
12447TIP3    H258833   5.995   0.143   2.922 -1.4880  2.9265 -0.0039
12448TIP3   OH258834   1.620   3.212  12.832 -0.1660 -0.3002  0.0122
12448TIP3    H158835   1.602   3.306  12.831 -0.3176 -0.3379 -0.5602
12448TIP3    H258836   1.691   3.200  12.770 -2.0724 -0.9578 -2.0986
12449TIP3   OH258837   4.106   0.628   0.252  0.4475  0.1005  0.4335
12449TIP3    H158838   4.039   0.561   0.262 -0.5597  0.3670 -3.6806
12449TIP3    H258839   4.071   0.704   0.297 -1.6970 -0.0179 -0.9601
12450TIP3   OH258840   4.089   3.608   4.686 -0.5544 -0.2142  0.0302
12450TIP3    H158841   4.037   3.538   4.726  2.6347 -2.3803  0.5706
12450TIP3    H258842   4.155   3.630   4.752 -0.0850  1.6916 -1.0340
12451TIP3   OH258843   0.252   1.470  13.904 -0.1478  0.2762 -0.2000
12451TIP3    H158844   0.240   1.376  13.889  0.4096 -0.1623  2.0195
12451TIP3    H258845   0.258   1.479  13.999 -0.5366  2.6068 -0.3730
12452TIP3   OH258846   6.139   2.468   2.351 -0.1142  0.8070 -0.3086
12452TIP3    H158847   6.195   2.483   2.427 -0.1580  1.3796 -0.3923
12452TIP3    H258848   6.200   2.463   2.277  0.2057 -2.2958  0.0576
12453TIP3   OH258849   3.295   0.749  11.443  0.4706  0.5084  0.1020
12453TIP3    H158850   3.269   0.702  11.522  0.0914  2.7968  1.3605
12453TIP3    H258851   3.330   0.680  11.385  0.2001 -1.2734  1.9949
12454TIP3   OH258852   0.412   0.234   1.722 -0.9189 -0.5555 -0.3672
12454TIP3    H158853   0.488   0.288   1.743 -0.2106 -1.5095 -0.4383
12454TIP3    H258854   0.348   0.296   1.687 -0.8938  0.5442  1.4777
12455TIP3   OH258855   4.777   2.908   0.902  0.3909 -0.3793 -0.0361
12455TIP3    H158856   4.801   2.821   0.869 -0.5582 -0.2322 -1.1177
12455TIP3    H258857   4.807   2.907   0.993 -0.1488 -2.0774  0.1543
12456TIP3   OH258858   0.478   1.808  10.934  0.5371  0.1210  0.6259
12456TIP3    H158859   0.535   1.768  10.868  2.1891 -0.7311  2.5188
12456TIP3    H258860   0.390   1.799  10.898  1.2867 -1.5250 -0.8691
12457TIP3   OH258861   4.369   5.985   4.458 -0.5101  0.0519  0.4065
12457TIP3    H158862   4.345   6.039   4.534 -0.6406 -0.7710  0.9561
12457TIP3    H258863   4.430   5.921   4.494  0.1980  0.2778 -0.3913
12458TIP3   OH258864   3.516   1.234  14.283  0.2617  0.6408  0.0653
12458TIP3    H158865   3.489   1.317  14.323 -0.8470 -0.9781  2.8644
12458TIP3    H258866   3.609   1.227  14.303  0.1532  0.7998  0.6466
12459TIP3   OH258867   0.855   1.750  11.731 -0.5269  0.4155  0.1305
12459TIP3    H158868   0.815   1.834  11.708 -0.0027  0.8432  0.7495
12459TIP3    H258869   0.940   1.774  11.769 -0.4207 -0.3923  0.4099
12460TIP3   OH258870   1.708   2.721  13.249  0.0433 -0.4082  0.0867
12460TIP3    H158871   1.679   2.809  13.226  0.9082 -0.0674  0.2537
12460TIP3    H258872   1.804   2.727  13.247  0.1155 -1.1008  1.0021
12461TIP3   OH258873   2.303   2.257   3.647 -0.1145  0.0921 -0.1128
12461TIP3    H158874   2.296   2.339   3.599 -1.5843  0.6849  1.0797
12461TIP3    H258875   2.376   2.269   3.706 -2.5016  1.9167  2.5934
12462TIP3   OH258876   4.953   0.552  14.228 -0.3336 -0.6172  0.0929
12462TIP3    H158877   4.998   0.471  14.202 -1.4299 -1.0588 -0.4685
12462TIP3    H258878   4.945   0.546  14.323  0.5824 -0.6359  0.1735
12463TIP3   OH258879   3.160   3.311   6.003  0.2575  0.4109  0.4142
12463TIP3    H158880   3.171   3.279   6.093  1.5450 -0.0864  0.0858
12463TIP3    H258881   3.179   3.235   5.948  0.3333  0.9509 -0.3109
12464TIP3   OH258882   3.057   2.349   0.434 -0.2909  0.3292  0.2316
12464TIP3    H158883   2.978   2.364   0.486 -1.6617  1.4962 -2.0551
12464TIP3    H258884   3.029   2.287   0.367  0.9316  0.2181 -0.1785
12465TIP3   OH258885   2.708   4.406   6.366 -0.6614 -0.1168 -0.2162
12465TIP3    H158886   2.720   4.326   6.418 -0.3733 -0.8409 -1.3778
12465TIP3    H258887   2.689   4.474   6.431 -0.1768 -0.9793  0.8490
12466TIP3   OH258888   0.611   5.091  17.194  0.3152 -0.2696 -0.5635
12466TIP3    H158889   0.630   5.179  17.227  0.4235 -0.6506  0.3926
12466TIP3    H258890   0.530   5.066  17.237  0.4741 -0.7814 -0.5552
12467TIP3   OH258891   5.114   6.338   2.734  0.2568 -0.4104  0.0473
12467TIP3    H158892   5.123   6.262   2.792 -2.6311 -0.4643  0.4948
12467TIP3    H258893   5.108   6.301   2.646 -1.1051 -0.7277  0.2611
12468TIP3   OH258894   2.561   3.705   6.257  0.3592 -0.0734 -0.2459
12468TIP3    H158895   2.519   3.756   6.325  0.5630  0.6905 -0.6890
12468TIP3    H258896   2.561   3.615   6.290 -2.9455 -0.3520 -0.8796
12469TIP3   OH258897   3.863   6.245   2.034 -0.3149  0.2980 -0.5735
12469TIP3    H158898   3.850   6.294   1.953 -2.3222 -1.4650 -1.3781
12469TIP3    H258899   3.787   6.186   2.038  0.5666 -0.7137  1.7937
12470TIP3   OH258900   2.238   6.653   5.021  0.0658 -0.4847  0.4059
12470TIP3    H158901   2.180   6.726   5.042  2.7575  1.8759 -0.1092
12470TIP3    H258902   2.184   6.594   4.968 -1.6368  2.0134 -0.7227
12471TIP3   OH258903   6.795   5.452  12.080  0.4128 -0.3190 -0.1232
12471TIP3    H158904   6.710   5.430  12.041 -0.3509 -1.8873  2.2850
12471TIP3    H258905   6.852   5.378  12.056  0.0151 -1.1536  1.4199
12472TIP3   OH258906   1.190   4.787   2.323 -0.1418 -0.0148  0.8496
12472TIP3    H158907   1.109   4.829   2.293 -0.3584 -0.4732  0.7923
12472TIP3    H258908   1.165   4.696   2.341  0.3102 -0.1028  1.0428
12473TIP3   OH258909   1.948   4.439  10.520 -0.4444  0.0023  0.9599
12473TIP3    H158910   2.026   4.484  10.552  0.5733 -1.8840  1.2299
12473TIP3    H258911   1.905   4.405  10.598 -0.8985  0.0319  0.7259
12474TIP3   OH258912   1.884   6.529   4.402  0.4193 -0.0853 -0.0840
12474TIP3    H158913   1.811   6.539   4.463  1.0426 -0.9390  0.8223
12474TIP3    H258914   1.851   6.564   4.319 -1.2127 -0.9555  0.1688
12475TIP3   OH258915   1.083   1.601   5.798  0.0208 -0.8761  0.4614
12475TIP3    H158916   1.079   1.680   5.743  0.1914 -0.4917  0.9953
12475TIP3    H258917   1.096   1.635   5.887 -0.9658 -1.4600  0.8339
12476TIP3   OH258918   0.429   3.948  16.791  0.1228  0.3126 -0.1753
12476TIP3    H158919   0.433   4.016  16.724  0.4240  1.1339  0.6721
12476TIP3    H258920   0.339   3.916  16.786 -0.1216  1.0185 -0.3250
12477TIP3   OH258921   0.828   0.902  12.479  0.4263  0.4032  0.3046
12477TIP3    H158922   0.756   0.842  12.462  2.1918 -1.5562 -0.5162
12477TIP3    H258923   0.792   0.989  12.462 -2.0015 -0.4691  0.9089
12478TIP3   OH258924   2.685   0.224   0.780 -0.4360  0.5655  0.2083
12478TIP3    H158925   2.752   0.288   0.755 -0.1615 -0.0269 -0.6127
12478TIP3    H258926   2.615   0.276   0.819 -0.3747  1.4154 -0.7896
12479TIP3   OH258927   3.610   0.453  11.387  0.2996 -0.0066 -0.8820
12479TIP3    H158928   3.571   0.366  11.395 -1.3408  0.6370 -1.7159
12479TIP3    H258929   3.616   0.469  11.293  0.1956  0.9615 -0.7295
12480TIP3   OH258930   5.482   1.474   0.802 -0.7494 -0.1085  0.9264
12480TIP3    H158931   5.440   1.408   0.857  0.2755 -0.5436  1.2085
12480TIP3    H258932   5.410   1.519   0.758 -1.4878 -0.9713  1.2436
12481TIP3   OH258933   0.636   0.555  17.002 -0.6254 -0.4593 -0.2660
12481TIP3    H158934   0.633   0.575  17.095 -0.0641 -0.1693 -0.3099
12481TIP3    H258935   0.552   0.585  16.968  0.2456  1.9931 -0.3603
12482TIP3   OH258936   5.977   6.700  12.678  0.1296  0.3248 -0.4065
12482TIP3    H158937   6.069   6.678  12.664 -0.5018 -2.5572 -0.2959
12482TIP3    H258938   5.936   6.617  12.702 -2.9458  1.0579 -2.7963
12483TIP3   OH258939   2.923   4.142  13.349 -0.3234  0.0892 -0.1996
12483TIP3    H158940   2.832   4.165  13.331  0.4088  1.1805 -2.7986
12483TIP3    H258941   2.962   4.222  13.384 -0.0573 -0.0217 -0.2391
12484TIP3   OH258942   4.136   1.611  13.125  1.1280 -0.0744  0.1340
12484TIP3    H158943   4.169   1.536  13.076 -0.3502  0.0783 -1.1177
12484TIP3    H258944   4.157   1.687  13.071 -0.3155  0.1156 -0.1912
12485TIP3   OH258945   3.397   4.468  11.461 -0.3565 -0.4115 -0.8677
12485TIP3    H158946   3.306   4.456  11.432 -0.5619 -0.0251 -0.3952
12485TIP3    H258947   3.439   4.513  11.388 -1.0890  1.3370 -0.2253
12486TIP3   OH258948   0.310   2.162   0.104  0.0634  0.1491  0.2840
12486TIP3    H158949   0.383   2.146   0.045  0.4993  0.6011  0.6980
12486TIP3    H258950   0.242   2.201   0.049 -0.4676 -1.7463 -0.4268
12487TIP3   OH258951   0.419   3.474  16.405  0.1081  0.0658 -0.3738
12487TIP3    H158952   0.350   3.500  16.465  0.1095  1.4923 -0.9854
12487TIP3    H258953   0.402   3.524  16.325  0.9771 -0.6885 -1.0454
12488TIP3   OH258954   6.036   5.774  15.371  0.0702 -0.4761 -0.0457
12488TIP3    H158955   6.072   5.862  15.376  0.4577 -0.5534 -1.4564
12488TIP3    H258956   5.947   5.785  15.338  0.3740 -0.6753 -0.9335
12489TIP3   OH258957   0.673   2.135  15.754 -0.3155  0.2592 -0.1677
12489TIP3    H158958   0.672   2.069  15.685 -1.2316  1.5429 -1.4223
12489TIP3    H258959   0.640   2.089  15.832 -3.5709 -0.1303 -1.6704
12490TIP3   OH258960   4.476   6.764  12.789  0.0719 -0.2433  0.1283
12490TIP3    H158961   4.535   6.821  12.739  0.1963 -1.3939 -1.0704
12490TIP3    H258962   4.447   6.818  12.862  3.1041  0.1628  1.1077
12491TIP3   OH258963   3.334   5.715   4.651  0.2957 -0.5693 -0.4199
12491TIP3    H158964   3.412   5.734   4.703  0.9840 -0.3766 -1.5053
12491TIP3    H258965   3.327   5.619   4.653 -0.0393 -0.5239  0.5419
12492TIP3   OH258966   5.335   4.767   3.453 -0.7449  0.0535 -0.1069
12492TIP3    H158967   5.382   4.720   3.522 -1.3412  0.9490  0.9304
12492TIP3    H258968   5.390   4.843   3.435 -0.9939  0.2503 -0.0374
12493TIP3   OH258969   1.898   0.078  11.505  0.0108  0.3216  0.0608
12493TIP3    H158970   1.878  -0.003  11.552  1.2342 -0.2439 -0.3561
12493TIP3    H258971   1.836   0.080  11.432  0.1078 -0.3469 -0.0403
12494TIP3   OH258972   0.081   0.477  13.293 -0.1948  0.0435  0.3184
12494TIP3    H158973   0.054   0.530  13.218  0.6572 -0.9488 -0.6975
12494TIP3    H258974   0.050   0.389  13.272  2.2035 -0.7396 -0.0066
12495TIP3   OH258975   3.646   1.264  13.589 -0.5720  0.0242  0.0777
12495TIP3    H158976   3.668   1.318  13.512 -0.6495  1.3088  0.9392
12495TIP3    H258977   3.595   1.323  13.645 -0.2735 -0.8169  1.2402
12496TIP3   OH258978   5.624   3.207  12.355  0.2569 -0.2372 -0.3340
12496TIP3    H158979   5.644   3.114  12.363  3.0550  0.2850 -0.7927
12496TIP3    H258980   5.706   3.251  12.375 -1.2272  2.1811  0.6280
12497TIP3   OH258981   0.030   2.585   3.083  0.3654 -0.0448  0.3453
12497TIP3    H158982   0.031   2.502   3.131  2.5033 -0.7328 -0.7980
12497TIP3    H258983   0.112   2.628   3.107 -0.4105  1.4274  0.3997
12498TIP3   OH258984   2.541   3.115  12.959 -0.3528 -0.0621 -0.1237
12498TIP3    H158985   2.463   3.062  12.973 -0.4712  0.1381 -0.0209
12498TIP3    H258986   2.565   3.146  13.047 -0.2831  0.0523 -0.1827
12499TIP3   OH258987   3.882   5.737   1.850 -0.3485 -0.5735  0.7140
12499TIP3    H158988   3.805   5.786   1.878 -0.2311 -0.5200  0.9472
12499TIP3    H258989   3.941   5.740   1.926  0.6664  0.9759 -0.1068
12500TIP3   OH258990   1.451   4.658   5.690 -0.4264  0.4497  0.0060
12500TIP3    H158991   1.537   4.698   5.674 -0.4387 -0.1241 -1.5456
12500TIP3    H258992   1.412   4.650   5.603 -1.9143  0.3750  0.6688
12501TIP3   OH258993   5.007   5.264   3.810  0.4054 -0.3278  0.4347
12501TIP3    H158994   5.033   5.172   3.805  0.7727 -0.1273 -1.9016
12501TIP3    H258995   4.914   5.262   3.830  0.4182 -1.2008  0.4165
12502TIP3   OH258996   1.547   0.793  12.690 -0.1832 -0.1770  0.0465
12502TIP3    H158997   1.525   0.745  12.770  0.4817 -0.1227  0.2695
12502TIP3    H258998   1.572   0.725  12.628  0.2018 -0.1676  0.1842
12503TIP3   OH258999   1.841   1.415  15.108  0.3857 -0.5954  0.2875
12503TIP3    H159000   1.862   1.394  15.199 -0.8880 -0.1814  0.6879
12503TIP3    H259001   1.762   1.470  15.113  1.6064  1.3318 -0.9383
12504TIP3   OH259002   6.117   3.768  13.523 -0.5679 -0.3470 -0.1611
12504TIP3    H159003   6.132   3.674  13.531  1.0920 -0.1761 -0.9531
12504TIP3    H259004   6.045   3.776  13.460 -0.3325 -1.0800 -0.5278
12505TIP3   OH259005   2.008   2.816   5.352  1.0653 -0.1913  0.1316
12505TIP3    H159006   1.919   2.825   5.319  1.4509 -0.0706 -0.9055
12505TIP3    H259007   2.056   2.889   5.313  1.7239 -0.5196  0.3089
12506TIP3   OH259008   0.870   3.240   1.426  0.5152  0.2618 -0.2460
12506TIP3    H159009   0.958   3.278   1.424  1.0293 -0.9129 -0.7140
12506TIP3    H259010   0.817   3.299   1.372  0.8816  1.2693  0.4777
12507TIP3   OH259011   3.732   6.503  15.174 -0.1240  0.0715 -0.0226
12507TIP3    H159012   3.765   6.435  15.233  0.3798  0.3813  0.0582
12507TIP3    H259013   3.652   6.536  15.217 -0.5840 -0.7350 -0.2586
12508TIP3   OH259014   3.280   1.915  16.177  0.4651 -0.0292 -0.0792
12508TIP3    H159015   3.191   1.924  16.142  0.4758 -1.9432 -0.6496
12508TIP3    H259016   3.268   1.886  16.267  0.5077  1.1068  0.3064
12509TIP3   OH259017   4.430   6.423  17.184  0.8028  0.1628 -0.9636
12509TIP3    H159018   4.448   6.515  17.164  3.4991  0.0407  0.6387
12509TIP3    H259019   4.397   6.424  17.274  0.4213 -0.4032 -1.0949
12510TIP3   OH259020   2.259   0.257   0.505  0.0222  0.7185  0.7492
12510TIP3    H159021   2.354   0.247   0.502  0.3251  3.1536  1.0246
12510TIP3    H259022   2.236   0.245   0.597 -0.0092 -0.4088  0.5960
12511TIP3   OH259023   3.189   2.523  12.086 -1.1701  0.4899  0.3158
12511TIP3    H159024   3.248   2.522  12.011 -0.7913  1.0828  0.6023
12511TIP3    H259025   3.112   2.571  12.056 -1.5536 -0.3737 -0.0916
12512TIP3   OH259026   5.226   4.937  15.528  0.5341  0.0432  0.5275
12512TIP3    H159027   5.309   4.979  15.504  0.7489  0.0408  1.2387
12512TIP3    H259028   5.252   4.870  15.592 -0.0262  0.1136  0.8261
12513TIP3   OH259029   3.348   3.351   3.645  0.3373  0.1700 -0.0138
12513TIP3    H159030   3.287   3.421   3.670  1.2361  0.6937  0.7503
12513TIP3    H259031   3.356   3.298   3.724 -3.0086 -2.8263 -1.5893
12514TIP3   OH259032   2.557   6.397   0.994  0.1946 -0.1590  0.0928
12514TIP3    H159033   2.613   6.447   0.935  0.1626 -1.1742 -0.8092
12514TIP3    H259034   2.616   6.341   1.043 -0.0818 -2.0748 -1.6721
12515TIP3   OH259035   3.020   4.862  15.725  0.0742  0.1360 -0.7977
12515TIP3    H159036   3.028   4.900  15.638  0.9166  1.0270 -0.3495
12515TIP3    H259037   3.097   4.805  15.734  0.2288  0.3921 -0.4748
12516TIP3   OH259038   5.219   5.486  13.355  0.5161 -0.4150  0.0485
12516TIP3    H159039   5.216   5.578  13.330  1.7129 -0.3221  0.2194
12516TIP3    H259040   5.198   5.486  13.449  0.1536 -0.3536 -0.0322
12517TIP3   OH259041   5.138   1.285   4.456 -0.3178 -0.3453 -0.0345
12517TIP3    H159042   5.089   1.311   4.378  0.5124  1.4689  0.0237
12517TIP3    H259043   5.100   1.338   4.527  1.1554  0.5083  0.1524
12518TIP3   OH259044   2.638   1.172   0.969 -0.2078  0.4604 -0.2887
12518TIP3    H159045   2.620   1.237   1.037 -2.1019 -0.2699 -0.0634
12518TIP3    H259046   2.730   1.185   0.948 -0.3903  2.7990  0.1825
12519TIP3   OH259047   3.281   2.750  16.113 -0.5026 -0.2133  1.2019
12519TIP3    H159048   3.286   2.824  16.052 -0.5410 -1.1428  0.0680
12519TIP3    H259049   3.264   2.674  16.058 -2.0759 -0.8478  2.5198
12520TIP3   OH259050   1.236   6.803  12.973 -0.2455 -0.3872 -0.2807
12520TIP3    H159051   1.152   6.816  13.017  0.3612 -1.3106  1.1660
12520TIP3    H259052   1.215   6.807  12.879 -1.4212  2.3666  0.0636
12521TIP3   OH259053   0.329   2.437   5.765 -0.9555 -0.0440  0.4367
12521TIP3    H159054   0.327   2.439   5.670 -0.9720  0.2519  0.4421
12521TIP3    H259055   0.263   2.373   5.789  0.7942 -1.9691  0.1903
12522TIP3   OH259056   4.774   1.228   4.980 -0.0581 -0.0867  0.6387
12522TIP3    H159057   4.769   1.132   4.985  0.6576 -0.2011 -0.4539
12522TIP3    H259058   4.693   1.259   5.020 -1.6197 -1.2393 -1.5510
12523TIP3   OH259059   3.668   5.342  16.701 -0.7797 -0.5040  0.0027
12523TIP3    H159060   3.616   5.386  16.634 -0.1678  0.3521  0.0820
12523TIP3    H259061   3.732   5.407  16.728  0.7718 -1.7622 -0.5760
12524TIP3   OH259062   1.159   5.073   1.515 -0.0536  0.0986 -0.2151
12524TIP3    H159063   1.190   5.157   1.480  0.7942 -0.7629 -1.6177
12524TIP3    H259064   1.232   5.014   1.502 -1.2364 -1.2638 -0.7866
12525TIP3   OH259065   5.856   1.360   4.635  0.1929 -0.3467 -0.3174
12525TIP3    H159066   5.832   1.414   4.560 -1.1983 -0.2598  0.1628
12525TIP3    H259067   5.950   1.345   4.626  0.0937 -0.0669 -1.8901
12526TIP3   OH259068   5.827   2.098  16.370 -0.2369  0.4504  0.0254
12526TIP3    H159069   5.846   2.045  16.447 -1.0290  0.2059  0.0550
12526TIP3    H259070   5.790   2.179  16.405  0.7286  0.9259 -0.0359
12527TIP3   OH259071   3.759   2.088  17.057 -0.0187 -0.0621 -0.1872
12527TIP3    H159072   3.698   2.079  16.983 -0.4988 -1.1890  0.3183
12527TIP3    H259073   3.790   1.998  17.073 -0.1006  0.1327  1.1282
12528TIP3   OH259074   1.755   2.903  11.660 -0.3178 -0.2937 -0.3741
12528TIP3    H159075   1.740   2.808  11.668  0.5727 -0.2924  1.5392
12528TIP3    H259076   1.845   2.910  11.628 -0.5012 -0.1009 -0.8450
12529TIP3   OH259077   3.033   4.670   0.645  0.1894 -0.6480  0.2338
12529TIP3    H159078   2.960   4.623   0.686 -0.0449 -0.2504  0.2788
12529TIP3    H259079   2.991   4.728   0.582  0.2770  1.3525  1.9648
12530TIP3   OH259080   3.635   6.012  15.281  0.1035  0.3810  0.0705
12530TIP3    H159081   3.716   5.996  15.329 -0.1373 -1.3427 -0.0713
12530TIP3    H259082   3.663   6.045  15.196  0.7101 -1.2740 -0.3838
12531TIP3   OH259083   5.628   6.001  14.371 -0.2147  0.4153  0.0256
12531TIP3    H159084   5.631   5.954  14.454 -0.2297 -1.6036 -1.0937
12531TIP3    H259085   5.644   6.092  14.395 -0.4997 -0.0933  2.2719
12532TIP3   OH259086   4.888   4.912  16.464  0.5155  0.7667  0.0125
12532TIP3    H159087   4.947   4.850  16.507 -0.9057 -1.2728 -0.9140
12532TIP3    H259088   4.830   4.942  16.534  0.0660 -0.3379  0.1283
12533TIP3   OH259089   5.890   5.982   1.403 -0.0650 -0.1753 -0.5954
12533TIP3    H159090   5.963   6.026   1.359 -0.5263 -0.3677 -1.5682
12533TIP3    H259091   5.895   5.891   1.374  0.8499 -0.7733  1.3660
12534TIP3   OH259092   1.847   0.629  16.428  0.5732  0.1635  0.2120
12534TIP3    H159093   1.795   0.562  16.472  0.1583 -1.0710 -2.0613
12534TIP3    H259094   1.822   0.711  16.471 -1.5009 -0.7078  0.7327
12535TIP3   OH259095   2.820   0.233   6.579 -0.0001 -0.7047 -0.0298
12535TIP3    H159096   2.759   0.196   6.515  0.2058  0.4718 -0.9040
12535TIP3    H259097   2.771   0.301   6.624  0.3330 -0.4830  0.0038
12536TIP3   OH259098   1.356   3.126   4.117  0.1022  0.3507 -0.2545
12536TIP3    H159099   1.280   3.098   4.169 -0.4008 -2.3921 -2.3313
12536TIP3    H259100   1.335   3.215   4.088 -0.8699  0.8245  1.8407
12537TIP3   OH259101   2.153   1.106   5.510  0.0006 -0.5640  0.1119
12537TIP3    H159102   2.137   1.089   5.603  0.2659 -1.3348  0.0209
12537TIP3    H259103   2.241   1.072   5.494 -0.7530 -2.0950 -0.8406
12538TIP3   OH259104   3.050   2.712  15.219 -0.4437 -0.2398 -0.1666
12538TIP3    H159105   3.098   2.629  15.210 -0.6769 -0.4659  0.6764
12538TIP3    H259106   2.996   2.700  15.297  0.6843  1.2730  0.8761
12539TIP3   OH259107   2.656   0.399   3.969  0.4481 -0.1332 -0.2448
12539TIP3    H159108   2.632   0.367   3.882  0.7734 -1.4673  0.1435
12539TIP3    H259109   2.575   0.438   4.003  0.3400  0.4515 -1.1649
12540TIP3   OH259110   4.903   4.065  11.629  0.6387  0.3891 -0.2359
12540TIP3    H159111   4.901   4.156  11.600  1.8489  0.1676 -1.0384
12540TIP3    H259112   4.976   4.026  11.581  0.1510 -0.9962  0.1286
12541TIP3   OH259113   3.135   1.287   3.041 -0.0334 -0.1953  0.4112
12541TIP3    H159114   3.150   1.234   3.118 -0.3540  0.5347  0.9839
12541TIP3    H259115   3.210   1.346   3.036  0.4863 -0.9203 -0.4095
12542TIP3   OH259116   4.580   5.665  11.484  0.6688 -0.3350  0.0081
12542TIP3    H159117   4.598   5.661  11.578  0.7727  1.7722  0.1007
12542TIP3    H259118   4.537   5.582  11.464  2.2397 -1.5711  1.5646
12543TIP3   OH259119   2.292   4.569   0.913 -0.3363 -0.2758  0.1863
12543TIP3    H159120   2.299   4.567   0.818  0.5868  0.4033  0.2341
12543TIP3    H259121   2.330   4.654   0.939 -1.7088  0.0929  1.0625
12544TIP3   OH259122   5.981   5.210  11.555  0.4353  0.1409  0.5773
12544TIP3    H159123   6.031   5.287  11.527  0.6043 -0.4935 -0.8940
12544TIP3    H259124   6.043   5.138  11.551  0.3081 -0.0724  2.0898
12545TIP3   OH259125   0.312   1.990  16.919 -0.3185 -0.4473 -0.0624
12545TIP3    H159126   0.404   2.017  16.912 -0.7088  0.8322 -0.3870
12545TIP3    H259127   0.286   1.970  16.829 -0.6313  0.1293 -0.1029
12546TIP3   OH259128   3.887   0.888   5.693  0.0439 -0.1142  0.2767
12546TIP3    H159129   3.888   0.823   5.764 -0.7162 -0.6257 -0.1791
12546TIP3    H259130   3.852   0.967   5.733  0.0349 -0.2754  0.5882
12547TIP3   OH259131   2.193   5.768   0.560  0.1219  0.3916  0.1025
12547TIP3    H159132   2.163   5.841   0.614  1.4488  0.2728  1.0356
12547TIP3    H259133   2.113   5.731   0.523 -0.5747  2.2588 -0.3147
12548TIP3   OH259134   0.982   6.288  12.964 -0.1766 -0.4340 -0.2771
12548TIP3    H159135   0.922   6.234  13.016 -0.0618  0.3755  0.7160
12548TIP3    H259136   0.925   6.344  12.911 -0.3052  0.0437  0.3601
12549TIP3   OH259137   4.786   0.071  11.976 -0.6467 -0.0583  0.5334
12549TIP3    H159138   4.859   0.066  12.037  0.0456  0.6552 -0.2261
12549TIP3    H259139   4.714   0.026  12.021  0.5995 -1.8579  0.7799
12550TIP3   OH259140   5.393   3.447  16.006  0.4253 -0.5513  0.3416
12550TIP3    H159141   5.312   3.498  16.011 -1.1671 -2.9448 -0.3129
12550TIP3    H259142   5.415   3.427  16.097  1.7688  2.3158  0.6909
12551TIP3   OH259143   6.423   0.144   1.083 -0.4152 -0.6003  0.1673
12551TIP3    H159144   6.510   0.160   1.045  0.1419  0.6097  1.8626
12551TIP3    H259145   6.366   0.207   1.040 -0.0734 -0.1869  0.3103
12552TIP3   OH259146   2.586   3.699  17.059  0.3445 -0.2391 -0.1104
12552TIP3    H159147   2.547   3.780  17.025  0.8346  0.2375  0.4573
12552TIP3    H259148   2.589   3.712  17.153 -0.5462 -1.3629  0.0870
12553TIP3   OH259149   4.799   3.756  11.903 -0.0090 -0.3536  0.7239
12553TIP3    H159150   4.786   3.761  11.997 -0.6158  0.9260  0.5753
12553TIP3    H259151   4.798   3.847  11.873 -2.2330 -0.8521 -0.8366
12554TIP3   OH259152   2.908   1.458  16.971  0.1683 -0.0744 -1.4076
12554TIP3    H159153   3.002   1.479  16.976 -0.0295  0.5629  0.2164
12554TIP3    H259154   2.905   1.374  16.924  1.6562 -0.6945 -0.4647
12555TIP3   OH259155   4.648   3.860   2.755 -0.3061  0.6920 -0.1402
12555TIP3    H159156   4.631   3.863   2.661  1.8303  1.9004 -0.5170
12555TIP3    H259157   4.673   3.769   2.772  1.8105  1.0315 -1.2370
12556TIP3   OH259158   5.358   1.051  13.746  0.2908  0.1055  0.1874
12556TIP3    H159159   5.429   1.087  13.800 -2.1274  3.2810  1.4157
12556TIP3    H259160   5.360   1.103  13.666 -0.3694 -0.0435  0.0698
12557TIP3   OH259161   4.975   6.595  15.427 -0.0234 -0.2843  0.0211
12557TIP3    H159162   5.053   6.588  15.371  1.1416  1.0303  1.4153
12557TIP3    H259163   4.927   6.514  15.412  0.7924 -0.4008 -2.0906
12558TIP3   OH259164   5.319   4.287  13.534 -0.2797 -0.2024  0.6559
12558TIP3    H159165   5.401   4.334  13.521  0.6116 -2.1866 -1.4123
12558TIP3    H259166   5.252   4.344  13.496  0.6479 -0.1382 -0.9188
12559TIP3   OH259167   0.764   1.451   5.587 -0.2394 -0.0176 -0.3743
12559TIP3    H159168   0.792   1.422   5.673  1.9710  2.3114 -0.2561
12559TIP3    H259169   0.732   1.540   5.601  1.8325  1.0544 -2.2360
12560TIP3   OH259170   5.808   4.659  17.207 -0.5618 -0.1451 -0.1406
12560TIP3    H159171   5.749   4.729  17.236  1.7951  1.1583  1.6715
12560TIP3    H259172   5.760   4.615  17.137 -2.4892  2.7300 -0.7270
12561TIP3   OH259173   1.579   2.314  13.792 -0.1021  0.0481 -0.1486
12561TIP3    H159174   1.517   2.241  13.797 -1.5104  1.2011 -0.4554
12561TIP3    H259175   1.558   2.357  13.709  1.2486  0.3428 -0.3481
12562TIP3   OH259176   4.131   6.286  15.455  0.4869 -0.0233  0.3913
12562TIP3    H159177   4.129   6.348  15.528  3.9296 -0.2786  0.7834
12562TIP3    H259178   4.121   6.340  15.377  0.4582  0.6874  0.8867
12563TIP3   OH259179   6.263   0.965   5.195  0.0291 -0.4584 -0.5912
12563TIP3    H159180   6.305   1.011   5.123 -1.7580 -0.2051 -1.5047
12563TIP3    H259181   6.335   0.938   5.252  1.2631  1.7005 -1.0748
12564TIP3   OH259182   5.191   3.704   1.858  0.1910  0.8316 -0.4788
12564TIP3    H159183   5.218   3.710   1.766  1.7334  0.8586 -0.0354
12564TIP3    H259184   5.248   3.637   1.895  0.2281  1.5068  0.6968
12565TIP3   OH259185   5.700   6.465   6.206 -0.1384 -0.5810 -0.7537
12565TIP3    H159186   5.687   6.527   6.135 -2.0126 -0.3499 -0.2477
12565TIP3    H259187   5.714   6.519   6.284  1.0608 -0.8255 -0.7907
12566TIP3   OH259188   5.019   1.091   3.463 -0.4400 -0.0836 -0.3182
12566TIP3    H159189   4.962   1.102   3.387  0.6726  0.0058 -1.1499
12566TIP3    H259190   5.093   1.150   3.446  0.0077 -0.3583  0.6442
12567TIP3   OH259191   2.617   1.508   4.648  0.4822 -0.5295  0.2632
12567TIP3    H159192   2.668   1.451   4.591 -0.1163 -2.7424  1.8481
12567TIP3    H259193   2.557   1.555   4.589  2.7412  0.4153 -1.3445
12568TIP3   OH259194   2.467   6.719  16.248  0.3361 -0.3551 -0.0165
12568TIP3    H159195   2.432   6.808  16.240  0.0249 -0.2168  2.5922
12568TIP3    H259196   2.545   6.719  16.192  0.7571  1.7596  0.5211
12569TIP3   OH259197   2.423   5.991  14.264  0.2717  0.3176 -0.0970
12569TIP3    H159198   2.335   5.977  14.299 -0.1249  1.3511 -0.6532
12569TIP3    H259199   2.477   5.926  14.308 -0.8733 -0.6821 -0.1404
12570TIP3   OH259200   1.020   1.383   6.093  0.1856  0.4255  0.2107
12570TIP3    H159201   0.928   1.392   6.066  0.9153  0.8751 -2.2854
12570TIP3    H259202   1.045   1.296   6.060  0.3340 -0.2144  1.9592
12571TIP3   OH259203   3.901   0.162   3.493  0.1882  0.1892  0.2556
12571TIP3    H159204   3.850   0.216   3.554 -1.8376 -1.7644  0.3896
12571TIP3    H259205   3.992   0.182   3.513 -0.4625  3.7789  0.0593
12572TIP3   OH259206   4.336   0.402   3.224  0.4748  0.3134 -0.3542
12572TIP3    H159207   4.308   0.440   3.140  1.2617 -1.6607 -1.5471
12572TIP3    H259208   4.431   0.408   3.221  0.5618 -0.9438 -0.1832
12573TIP3   OH259209   0.509   2.151   3.616  0.1845 -0.4043  0.1776
12573TIP3    H159210   0.471   2.138   3.530  0.3402  2.1104 -0.2984
12573TIP3    H259211   0.603   2.162   3.600  0.0896  1.0834  0.5372
12574TIP3   OH259212   4.274   5.227  11.320 -0.2811 -0.4264  0.5841
12574TIP3    H159213   4.212   5.164  11.356  1.1563 -2.0670  0.2253
12574TIP3    H259214   4.329   5.176  11.261 -0.1476  1.4812 -1.0097
12575TIP3   OH259215   1.384   3.485   4.975  0.3532 -0.1407 -0.1940
12575TIP3    H159216   1.374   3.571   4.935 -2.7328  0.3961  1.5299
12575TIP3    H259217   1.475   3.482   5.006  1.2438  1.4180 -2.5860
12576TIP3   OH259218   5.558   3.896   2.333 -0.7564  0.5022  0.1242
12576TIP3    H159219   5.585   3.980   2.370  1.5507 -0.0339 -0.2741
12576TIP3    H259220   5.510   3.853   2.404  0.2213  1.1101  1.1617
12577TIP3   OH259221   0.958   4.553  16.779  0.0323  0.2814 -0.4509
12577TIP3    H159222   0.978   4.637  16.820  0.3207 -0.0598  0.1088
12577TIP3    H259223   0.900   4.509  16.841 -0.2877  0.1550 -0.8375
12578TIP3   OH259224   2.869   3.388   0.699 -0.4604 -0.4181 -0.2018
12578TIP3    H159225   2.945   3.397   0.757  0.1015  1.5816 -1.2035
12578TIP3    H259226   2.886   3.307   0.650  0.7077 -0.3235  0.0403
12579TIP3   OH259227   4.081   5.975  17.063  0.3563  0.0854 -0.0037
12579TIP3    H159228   4.113   5.999  16.976  1.2244  0.5757  0.4544
12579TIP3    H259229   3.987   5.962  17.050  0.0799  2.4492 -0.5345
12580TIP3   OH259230   4.016   2.253   0.991  0.0997  0.1139  0.2542
12580TIP3    H159231   3.929   2.289   1.004 -0.0043  0.0228 -0.2042
12580TIP3    H259232   4.015   2.171   1.041 -0.4081 -0.3895 -0.5667
12581TIP3   OH259233   3.480   4.366  13.886  0.3899 -0.4583  0.3878
12581TIP3    H159234   3.572   4.387  13.907  0.1745 -0.3195  1.2139
12581TIP3    H259235   3.481   4.273  13.867  0.7618 -0.3955  0.0901
12582TIP3   OH259236   5.592   3.335   2.531 -0.6542 -0.1251  0.1922
12582TIP3    H159237   5.569   3.353   2.440 -1.1704  0.0115  0.3509
12582TIP3    H259238   5.661   3.398   2.552 -2.8362  2.0897  0.9317
12583TIP3   OH259239   5.480   3.389   1.587  0.1586  0.3333 -0.2205
12583TIP3    H159240   5.450   3.415   1.674 -1.0251 -1.8972  0.0959
12583TIP3    H259241   5.489   3.471   1.539 -1.7372  1.4412  1.2188
12584TIP3   OH259242   0.776   2.694  12.145  0.4092 -0.2757 -0.1151
12584TIP3    H159243   0.847   2.738  12.097 -0.4672  0.8867 -0.3740
12584TIP3    H259244   0.732   2.765  12.192 -1.2410 -0.8481 -0.7782
12585TIP3   OH259245   4.531   1.256  13.974 -0.9034  0.1470  0.2940
12585TIP3    H159246   4.492   1.253  14.062  0.2913  0.2420  0.8442
12585TIP3    H259247   4.557   1.347  13.962 -1.5406  0.2412 -0.3788
12586TIP3   OH259248   0.504   4.849  11.928  0.1882  0.6649 -0.0500
12586TIP3    H159249   0.536   4.929  11.968  0.4097  0.3055  0.5066
12586TIP3    H259250   0.544   4.779  11.980 -2.4346  0.2047  1.4797
12587TIP3   OH259251   1.365   3.631   0.956 -0.5491 -0.1657 -0.3810
12587TIP3    H159252   1.459   3.611   0.957 -0.1344  1.6176 -1.1817
12587TIP3    H259253   1.346   3.651   0.864 -1.7334 -0.5430 -0.2327
12588TIP3   OH259254   4.362   1.137  11.971  0.4406  0.1288  0.1861
12588TIP3    H159255   4.356   1.072  11.901 -1.2834  1.0048 -0.4942
12588TIP3    H259256   4.433   1.105  12.027  1.6519 -0.7427 -1.7865
12589TIP3   OH259257   3.160   4.192   3.251 -0.0867  0.3938 -0.1733
12589TIP3    H159258   3.106   4.130   3.202  1.6991 -1.9261  0.7243
12589TIP3    H259259   3.199   4.248   3.183 -1.3046  0.2103 -1.0430
12590TIP3   OH259260   1.188   5.410   2.288 -0.2505  0.2393  0.1257
12590TIP3    H159261   1.241   5.488   2.299 -0.6575  0.2748  2.0394
12590TIP3    H259262   1.098   5.440   2.297 -0.3431 -0.8610  4.2965
12591TIP3   OH259263   6.444   0.123  14.896  0.1034  0.0304  0.3291
12591TIP3    H159264   6.520   0.181  14.888 -0.6944  1.0034 -0.2583
12591TIP3    H259265   6.474   0.040  14.859  1.1216  0.1729  0.8004
12592TIP3   OH259266   3.377   2.031  11.898 -0.0760  1.0853  0.1833
12592TIP3    H159267   3.346   2.107  11.849  0.9662  1.0582 -0.5215
12592TIP3    H259268   3.322   1.959  11.868  1.1048  0.8924 -1.5806
12593TIP3   OH259269   5.785   5.105  14.016 -0.0043 -0.5536 -0.6686
12593TIP3    H159270   5.864   5.158  14.026 -0.0516 -0.3576 -1.2904
12593TIP3    H259271   5.801   5.051  13.938 -1.2953  0.9743 -2.0425
12594TIP3   OH259272   4.658   3.591  13.091 -0.5040 -0.4882  0.4213
12594TIP3    H159273   4.666   3.664  13.152  0.3893 -1.2665  1.2514
12594TIP3    H259274   4.721   3.611  13.021  0.5460 -0.9899  1.2035
12595TIP3   OH259275   3.210   1.689  13.582 -0.0842  0.1589  0.1873
12595TIP3    H159276   3.124   1.679  13.622 -0.0514  1.2818  0.5495
12595TIP3    H259277   3.206   1.771  13.534  0.0949 -0.8589 -1.6196
12596TIP3   OH259278   2.308   1.958   3.606 -0.5120 -0.4267 -0.2011
12596TIP3    H159279   2.308   1.894   3.677  0.3250  0.3807  0.5382
12596TIP3    H259280   2.330   2.041   3.648 -1.3529  0.3180 -1.1869
12597TIP3   OH259281   0.764   3.345   5.486  0.4244 -0.1386  0.3869
12597TIP3    H159282   0.737   3.330   5.577 -0.8876  0.7662  0.1522
12597TIP3    H259283   0.835   3.408   5.492  1.0619 -0.8947  0.8587
12598TIP3   OH259284   5.588   3.713  14.843 -0.3799 -0.2974 -0.1106
12598TIP3    H159285   5.661   3.656  14.869  0.9163  1.3855 -0.0014
12598TIP3    H259286   5.612   3.745  14.756 -0.3369  1.3196  0.4883
12599TIP3   OH259287   0.008   0.312  12.040  0.3934  0.1153  0.4920
12599TIP3    H159288  -0.058   0.352  11.982  0.9948  1.0810  0.4559
12599TIP3    H259289  -0.013   0.346  12.127  0.1291 -0.5087  0.6742
12600TIP3   OH259290   3.041   4.422  13.358  0.7525 -0.2699  0.2545
12600TIP3    H159291   2.995   4.451  13.279  0.4351  0.6301  0.7714
12600TIP3    H259292   3.131   4.406  13.328  0.9308  1.2367 -0.0428
12601TIP3   OH259293   0.449   6.452  14.314 -0.0860 -0.2230  0.1754
12601TIP3    H159294   0.492   6.537  14.310 -2.8933  1.3713  2.0308
12601TIP3    H259295   0.385   6.454  14.243 -0.1996 -0.7759  0.2559
12602TIP3   OH259296   1.197   4.005   2.947  0.0845 -0.1683  0.2051
12602TIP3    H159297   1.147   4.086   2.957 -1.3946 -1.0962  0.5951
12602TIP3    H259298   1.284   4.033   2.920 -0.5660  1.5147 -0.2048
12603TIP3   OH259299   3.092   4.997   3.021 -0.1598 -0.0584 -0.4615
12603TIP3    H159300   3.044   4.926   2.978  0.0205 -1.2766  1.3272
12603TIP3    H259301   3.030   5.033   3.084 -0.3527  1.6014 -1.5778
12604TIP3   OH259302   3.092   3.602  16.747  0.8086 -0.0416  0.0458
12604TIP3    H159303   3.120   3.660  16.817 -1.9685  2.4431 -0.8259
12604TIP3    H259304   3.030   3.542  16.789  0.0666  0.6657 -0.0467
12605TIP3   OH259305   2.396   3.802   1.130  0.7405 -0.0658 -0.2401
12605TIP3    H159306   2.438   3.888   1.132  0.0739  0.2452  0.5901
12605TIP3    H259307   2.452   3.750   1.072  0.6868  1.1616 -1.4307
12606TIP3   OH259308   1.940   3.615   1.352  0.4098  0.0547  0.0699
12606TIP3    H159309   1.977   3.562   1.422  1.5313  0.3156 -0.3244
12606TIP3    H259310   1.858   3.570   1.329  0.6945 -0.7614  0.6303
12607TIP3   OH259311   0.035   6.123  13.508  0.3500 -0.8950 -0.5461
12607TIP3    H159312   0.091   6.162  13.440  1.0594 -1.1612 -0.1168
12607TIP3    H259313  -0.011   6.052  13.463 -0.8817  0.3688 -1.3079
12608TIP3   OH259314   4.608   3.334  12.494  0.2446  0.2600  0.2800
12608TIP3    H159315   4.696   3.360  12.466 -0.1665  0.2014 -1.0924
12608TIP3    H259316   4.603   3.241  12.474 -0.4059  0.4335 -0.3890
12609TIP3   OH259317   1.094   3.600   4.612  0.3122 -0.2774 -0.1504
12609TIP3    H159318   1.184   3.588   4.582  0.1435  1.3127 -1.3464
12609TIP3    H259319   1.042   3.540   4.558  0.4939 -0.2411 -0.3647
12610TIP3   OH259320   2.820   3.089   4.541  0.2203  0.1609 -0.1209
12610TIP3    H159321   2.782   3.061   4.625 -1.0816  2.3105  0.0334
12610TIP3    H259322   2.779   3.031   4.476 -0.2510 -0.2159  0.5089
12611TIP3   OH259323   2.788   0.960   1.338 -0.4674  0.2454  0.3147
12611TIP3    H159324   2.837   0.939   1.417 -0.0548 -1.8630 -0.4618
12611TIP3    H259325   2.698   0.936   1.359 -0.3524 -0.3448  0.1237
12612TIP3   OH259326   5.474   3.524   0.103  0.7204  0.0177  0.0588
12612TIP3    H159327   5.401   3.535   0.042  0.1721  1.2651  0.9299
12612TIP3    H259328   5.466   3.434   0.133 -1.0958  0.4442  0.9382
12613TIP3   OH259329   5.449   2.314  16.774 -0.1326 -0.7420  0.2562
12613TIP3    H159330   5.379   2.289  16.833 -0.3906 -1.7653 -0.4542
12613TIP3    H259331   5.521   2.341  16.831 -1.3758  1.1139  0.9818
12614TIP3   OH259332   4.371   6.151   4.242  0.3335  0.1767 -0.1505
12614TIP3    H159333   4.449   6.206   4.251 -0.2768  0.8529  1.1641
12614TIP3    H259334   4.380   6.085   4.311 -1.0534  1.2639  1.0966
12615TIP3   OH259335   3.088   0.885  15.768  0.1937  0.3565  0.3812
12615TIP3    H159336   3.105   0.963  15.821 -0.1041 -0.0450  1.0773
12615TIP3    H259337   3.018   0.839  15.815 -0.0394 -0.0345 -0.3365
12616TIP3   OH259338   5.290   3.653  10.378  0.2883 -0.1622 -0.1586
12616TIP3    H159339   5.291   3.669  10.472 -0.6294 -2.0524  0.2046
12616TIP3    H259340   5.234   3.576  10.368  2.6152 -1.6708 -1.9969
12617TIP3   OH259341   2.403   2.058  14.238 -0.7407  0.4603 -0.0562
12617TIP3    H159342   2.367   2.054  14.149 -0.8403  0.0076  0.0043
12617TIP3    H259343   2.483   2.007  14.234 -2.6316 -2.7078  1.0040
12618TIP3   OH259344   0.391   5.986   6.281  0.0477  0.0436 -0.1564
12618TIP3    H159345   0.463   5.998   6.343  0.0155  0.7457 -0.2525
12618TIP3    H259346   0.343   6.069   6.284 -0.8340 -0.4628  0.0020
12619TIP3   OH259347   1.250   5.419  10.625 -0.4148 -0.0472  0.1441
12619TIP3    H159348   1.290   5.423  10.539  0.2569 -0.7855  0.4239
12619TIP3    H259349   1.280   5.499  10.669 -0.0095 -0.1316  0.0215
12620TIP3   OH259350   0.496   6.185   4.405  0.0097 -0.2654  0.6762
12620TIP3    H159351   0.589   6.195   4.382  0.4046 -1.3121  1.7270
12620TIP3    H259352   0.451   6.176   4.321  0.9289 -0.2681  0.1754
12621TIP3   OH259353   3.214   3.688  10.629 -0.5142 -0.1101 -0.7355
12621TIP3    H159354   3.222   3.778  10.662 -1.3604  0.5536 -2.2818
12621TIP3    H259355   3.255   3.691  10.542  1.9219 -1.8829  0.2734
12622TIP3   OH259356   0.403   0.405   3.075  0.2960 -0.7209 -0.4013
12622TIP3    H159357   0.347   0.409   2.997  0.0127  1.3664 -0.1130
12622TIP3    H259358   0.367   0.333   3.126 -1.3859 -0.1931 -0.8028
12623TIP3   OH259359   1.381   4.709   6.464  0.4099 -0.3870 -0.2291
12623TIP3    H159360   1.313   4.776   6.465  1.4958  0.7564 -1.2285
12623TIP3    H259361   1.350   4.645   6.400 -0.0342 -0.2042 -0.2004
12624TIP3   OH259362   3.938   4.460  15.999 -0.0473  0.5156 -0.2883
12624TIP3    H159363   3.845   4.470  15.982 -0.0850  0.3282 -0.1902
12624TIP3    H259364   3.953   4.509  16.080  0.4099  2.6700 -1.6233
12625TIP3   OH259365   2.899   1.628   0.208  1.1521  0.1186 -0.3124
12625TIP3    H159366   2.869   1.622   0.117  0.8828  1.0651 -0.2961
12625TIP3    H259367   2.966   1.561   0.215  0.5844 -0.5323 -0.9765
12626TIP3   OH259368   0.280   1.283  15.850 -0.0048 -0.4845 -0.0515
12626TIP3    H159369   0.196   1.286  15.896  0.2576 -0.1556  0.4059
12626TIP3    H259370   0.311   1.373  15.850 -0.1642 -0.4262 -1.1854
12627TIP3   OH259371   4.572   4.033   3.913 -0.3424 -0.4146 -0.2181
12627TIP3    H159372   4.545   4.010   4.002 -2.0922 -0.9061 -0.8471
12627TIP3    H259373   4.607   3.951   3.877 -1.5207 -0.7478 -0.6402
12628TIP3   OH259374   1.571   0.547   4.990 -0.7062  0.1952 -0.1045
12628TIP3    H159375   1.487   0.590   5.003 -0.3809  1.1838 -1.1844
12628TIP3    H259376   1.581   0.490   5.066 -1.1192  2.0492  1.3770
12629TIP3   OH259377   1.602   6.092   0.463  0.1091 -0.0490  0.1159
12629TIP3    H159378   1.513   6.090   0.499  0.4497 -1.2468  0.9097
12629TIP3    H259379   1.619   6.185   0.446 -1.4927  0.1309 -0.5605
12630TIP3   OH259380   3.352   5.666   3.559  0.0214 -0.4645 -0.0724
12630TIP3    H159381   3.388   5.594   3.611 -0.9141 -1.2800 -0.5310
12630TIP3    H259382   3.332   5.734   3.624  0.9456 -0.5986  0.3617
12631TIP3   OH259383   3.486   4.814   3.393  0.0128  0.9849 -0.1581
12631TIP3    H159384   3.523   4.732   3.358  0.9589  1.4714 -0.3091
12631TIP3    H259385   3.555   4.878   3.381  0.4540  1.1349  2.8024
12632TIP3   OH259386   4.133   3.770  13.308  0.8429 -0.4788 -0.2342
12632TIP3    H159387   4.152   3.678  13.325 -3.7848 -1.0430  2.8322
12632TIP3    H259388   4.147   3.813  13.392  2.3936  1.5570 -1.4974
12633TIP3   OH259389   2.269   1.235  16.170  0.5373 -0.0112 -0.2403
12633TIP3    H159390   2.237   1.216  16.258  0.3180  1.5271  0.0254
12633TIP3    H259391   2.200   1.288  16.130  0.6258 -0.7174 -1.3502
12634TIP3   OH259392   6.144   1.361   4.607  0.4434  0.1455  0.6748
12634TIP3    H159393   6.138   1.443   4.558 -0.3730  0.0834  0.6497
12634TIP3    H259394   6.185   1.299   4.547 -0.7498  0.0098 -0.0195
12635TIP3   OH259395   0.776   3.798   4.635 -0.6150  0.4633 -0.2043
12635TIP3    H159396   0.816   3.875   4.595 -1.4338 -0.4818 -2.8929
12635TIP3    H259397   0.691   3.829   4.666 -0.6737  0.7862 -0.6894
12636TIP3   OH259398   0.133   6.341  15.615 -0.1696  0.7243  0.4324
12636TIP3    H159399   0.045   6.329  15.651 -0.5617 -0.1608 -0.7839
12636TIP3    H259400   0.186   6.273  15.657 -0.2968  0.6069  0.4036
12637TIP3   OH259401   6.805   4.167   1.114 -0.4661 -0.0600 -0.0231
12637TIP3    H159402   6.799   4.080   1.152 -1.7525 -0.4711 -1.1278
12637TIP3    H259403   6.896   4.175   1.085  0.3950  0.0393  2.5364
12638TIP3   OH259404   1.088   4.012   1.826  0.5351  0.1359  0.3724
12638TIP3    H159405   1.076   4.007   1.920  0.3668  2.7731  0.5258
12638TIP3    H259406   1.144   4.089   1.812  0.8203 -0.3912 -1.6455
12639TIP3   OH259407   1.157   0.882   4.579  0.3339 -0.3107  0.0242
12639TIP3    H159408   1.170   0.977   4.576  0.0088 -0.2939 -0.7733
12639TIP3    H259409   1.062   0.871   4.577  0.3383 -0.6176  1.2035
12640TIP3   OH259410   0.254   4.231   1.232 -0.0716  0.6401  0.2388
12640TIP3    H159411   0.332   4.287   1.233 -0.8425  1.7477 -0.1621
12640TIP3    H259412   0.284   4.148   1.269  1.7650  0.4275 -1.5685
12641TIP3   OH259413   3.143   5.092   0.461  0.5890  0.7160 -0.0292
12641TIP3    H159414   3.180   5.019   0.412  0.7094  0.8697 -0.1654
12641TIP3    H259415   3.203   5.106   0.534 -0.8836 -1.1280  1.5769
12642TIP3   OH259416   1.718   5.778  11.648  0.2291 -0.1608  0.1956
12642TIP3    H159417   1.793   5.756  11.594 -0.0365 -0.8360  0.0936
12642TIP3    H259418   1.716   5.711  11.716 -1.0875 -0.9919 -0.6188
12643TIP3   OH259419   4.340   5.048  11.003 -0.2857 -0.7057  0.2108
12643TIP3    H159420   4.359   5.012  11.090 -0.2374 -3.2634 -0.8145
12643TIP3    H259421   4.244   5.042  10.995 -0.2506 -0.9266 -0.0720
12644TIP3   OH259422   2.476   4.886   3.280  0.1899 -0.1932 -0.0770
12644TIP3    H159423   2.416   4.930   3.339  0.1681 -2.1006  1.3457
12644TIP3    H259424   2.550   4.860   3.335  0.4540 -1.4382 -0.9950
12645TIP3   OH259425   4.445   0.827   3.659  0.1120 -0.2136 -0.3470
12645TIP3    H159426   4.390   0.879   3.600  2.0218  1.8102 -0.3900
12645TIP3    H259427   4.418   0.855   3.746  1.0205  0.7665 -0.3681
12646TIP3   OH259428   4.859   0.558   5.553 -0.4593 -0.1090  0.1390
12646TIP3    H159429   4.861   0.645   5.514  0.7875  0.4201  1.3100
12646TIP3    H259430   4.943   0.520   5.529 -0.8227 -0.8211 -0.0049
12647TIP3   OH259431   3.107   6.571   5.325  0.0893  0.8544  0.1951
12647TIP3    H159432   3.047   6.592   5.253  2.2096  1.1424 -1.5520
12647TIP3    H259433   3.125   6.655   5.367 -0.2190  0.8618  0.3126
12648TIP3   OH259434   0.293   6.644   5.902 -0.9873  0.2972  0.2949
12648TIP3    H159435   0.292   6.595   5.984  4.4024  0.4830  0.7034
12648TIP3    H259436   0.311   6.734   5.929 -0.1923  0.5325 -0.9627
12649TIP3   OH259437   2.184   0.245  15.014 -0.0944  0.6522 -0.2190
12649TIP3    H159438   2.261   0.297  14.990 -1.1517  2.4413  0.1880
12649TIP3    H259439   2.209   0.202  15.096  1.1389 -0.2770 -1.0615
12650TIP3   OH259440   2.665   5.481  16.418 -0.5430 -0.5441 -0.7450
12650TIP3    H159441   2.700   5.569  16.427  0.2924 -0.8114 -1.2799
12650TIP3    H259442   2.577   5.486  16.454  0.1536  0.0747  0.8954
12651TIP3   OH259443   3.073   5.383  12.024 -0.1440  0.3230  0.0818
12651TIP3    H159444   3.027   5.312  12.069  0.7902 -0.3753 -0.0575
12651TIP3    H259445   3.043   5.378  11.934 -0.2617  0.2565  0.1231
12652TIP3   OH259446   1.671   0.505  16.575  0.3521 -0.1617 -0.0286
12652TIP3    H159447   1.578   0.525  16.589  0.7256  1.4523  0.2398
12652TIP3    H259448   1.691   0.440  16.642 -0.7539 -1.0704 -0.5523
12653TIP3   OH259449   4.881   0.211   3.168 -0.2637  0.0135  0.2421
12653TIP3    H159450   4.884   0.203   3.073 -0.1783 -1.5459  0.3607
12653TIP3    H259451   4.962   0.255   3.192 -0.2816  0.3924 -0.4016
12654TIP3   OH259452   6.419   2.492   3.835  1.0115 -0.5350  0.4716
12654TIP3    H159453   6.506   2.509   3.798  0.9224  0.0934  0.5374
12654TIP3    H259454   6.368   2.457   3.761  1.0875 -0.1245  0.2204
12655TIP3   OH259455   1.725   5.828   5.447  0.5607  0.0528  0.1082
12655TIP3    H159456   1.744   5.857   5.536  4.7734  0.1110 -0.7499
12655TIP3    H259457   1.709   5.909   5.398 -1.1885  0.0473  0.6146
12656TIP3   OH259458   4.686   5.657   3.875 -0.2841 -0.6276 -0.3100
12656TIP3    H159459   4.745   5.667   3.950 -1.6787  0.9341  0.5998
12656TIP3    H259460   4.623   5.591   3.903 -0.7289 -0.1385 -0.1626
12657TIP3   OH259461   6.059   4.151  16.799 -0.1379  0.4828  0.0497
12657TIP3    H159462   6.000   4.115  16.865 -0.5810  1.7465  0.3619
12657TIP3    H259463   6.100   4.075  16.759 -1.4446 -0.3760  0.3271
12658TIP3   OH259464   4.799   1.395   0.643  0.2421  0.1171  0.2518
12658TIP3    H159465   4.881   1.421   0.602  0.8497 -2.1904 -0.0754
12658TIP3    H259466   4.814   1.405   0.737  1.5233 -1.9080  0.2969
12659TIP3   OH259467   1.740   1.959  15.033  0.3568  0.9577 -0.3379
12659TIP3    H159468   1.742   1.998  15.120 -0.1752  0.0055  0.1036
12659TIP3    H259469   1.653   1.920  15.026  1.1283 -0.7560 -0.5034
12660TIP3   OH259470   6.781   1.821   1.527 -0.0109  0.4159 -0.0286
12660TIP3    H159471   6.751   1.778   1.447  0.7316  0.1562 -0.1747
12660TIP3    H259472   6.788   1.914   1.503 -0.5352  0.4486 -0.0421
12661TIP3   OH259473   1.861   0.110   6.482  0.1562  0.4624  0.2985
12661TIP3    H159474   1.767   0.128   6.488 -0.0400 -0.1912 -0.6225
12661TIP3    H259475   1.899   0.154   6.558 -1.1541 -1.0436  1.8718
12662TIP3   OH259476   2.440   3.001   5.042 -0.3174 -0.3406  0.0835
12662TIP3    H159477   2.380   2.997   4.968 -0.9987  1.0499  0.5414
12662TIP3    H259478   2.445   3.094   5.065  0.6435 -0.6366  1.1632
12663TIP3   OH259479   0.873   1.816  12.113 -0.1610 -0.1326 -0.0130
12663TIP3    H159480   0.895   1.802  12.021  0.8245 -1.0068  0.3361
12663TIP3    H259481   0.779   1.830  12.114 -0.2312 -0.5046 -1.1136
12664TIP3   OH259482   4.950   3.105  10.674  0.0522 -0.0996 -0.4294
12664TIP3    H159483   4.903   3.138  10.750 -1.6570 -2.0944 -0.5734
12664TIP3    H259484   4.884   3.099  10.605  0.9711 -0.9210 -1.2690
12665TIP3   OH259485   1.656   4.129  16.986 -0.4938  0.0932  0.1630
12665TIP3    H159486   1.661   4.114  16.892 -2.7858 -1.4755  0.2576
12665TIP3    H259487   1.614   4.215  16.995 -0.8909 -0.0559 -0.2513
12666TIP3   OH259488   5.741   4.215   0.800 -1.1090  0.2425 -0.0641
12666TIP3    H159489   5.726   4.149   0.867 -0.5573 -0.4214 -0.5886
12666TIP3    H259490   5.675   4.197   0.733 -1.0036  0.2657 -0.1755
12667TIP3   OH259491   5.849   0.873  14.418  0.2908  0.8590  0.8574
12667TIP3    H159492   5.870   0.966  14.409 -0.2641  0.9102  0.0979
12667TIP3    H259493   5.756   0.871  14.438  0.1917  0.4346  0.3365
12668TIP3   OH259494   3.834   1.214  16.450 -0.0259  0.1546 -0.1545
12668TIP3    H159495   3.745   1.195  16.479  0.6832 -0.1830  1.9373
12668TIP3    H259496   3.889   1.153  16.500  1.5040  1.4348 -0.2164
12669TIP3   OH259497   4.640   0.141   1.305  0.0236  0.4810 -0.2555
12669TIP3    H159498   4.731   0.117   1.327  0.2342  1.4693 -0.0139
12669TIP3    H259499   4.611   0.194   1.380 -0.9343 -0.2751 -0.0847
12670TIP3   OH259500   6.422   0.978  16.849  0.0829  0.3433  0.1630
12670TIP3    H159501   6.423   1.064  16.809  0.4459  0.4570  0.4141
12670TIP3    H259502   6.332   0.947  16.839  0.5650 -0.3665 -2.2926
12671TIP3   OH259503   3.217   1.449  13.434 -0.2138 -0.3712 -0.5785
12671TIP3    H159504   3.246   1.529  13.479 -0.9829  0.3794 -1.3904
12671TIP3    H259505   3.265   1.449  13.352  0.1404 -1.0026 -0.3725
12672TIP3   OH259506   4.664   3.229  16.286  0.4502  0.2455  0.2077
12672TIP3    H159507   4.649   3.323  16.276  0.5219  0.3456  1.0537
12672TIP3    H259508   4.664   3.195  16.196  0.9496  1.1343 -0.1340
12673TIP3   OH259509   3.263   0.286   2.743 -0.2030 -0.4867 -0.5111
12673TIP3    H159510   3.222   0.201   2.729  0.3761 -0.6644 -1.1915
12673TIP3    H259511   3.238   0.311   2.832 -0.2956 -1.4142 -0.2726
12674TIP3   OH259512   1.306   2.332   3.480  0.1730 -0.1807  0.2929
12674TIP3    H159513   1.352   2.377   3.550 -0.5625  0.6614  0.2437
12674TIP3    H259514   1.372   2.275   3.440  0.7174 -0.2803  1.3322
12675TIP3   OH259515   4.314   0.751  12.570 -0.1934 -0.6034 -0.4297
12675TIP3    H159516   4.233   0.724  12.614 -0.8072  0.0462 -1.1522
12675TIP3    H259517   4.375   0.680  12.587 -0.5856 -0.6087  1.0363
12676TIP3   OH259518   3.658   0.586  12.119 -0.1515 -0.0871  0.0115
12676TIP3    H159519   3.720   0.525  12.159  0.7012  0.3704 -0.6110
12676TIP3    H259520   3.666   0.666  12.171  0.3207  0.2176 -0.5260
12677TIP3   OH259521   2.617   2.430   6.746  0.2257  0.1488  0.5090
12677TIP3    H159522   2.533   2.390   6.769  0.8073 -1.2396  0.2699
12677TIP3    H259523   2.602   2.468   6.659  0.2062 -1.2189 -0.0948
12678TIP3   OH259524   5.620   1.552  13.168  0.5186 -0.2785  0.1268
12678TIP3    H159525   5.670   1.476  13.139  1.3197 -0.5638  2.1846
12678TIP3    H259526   5.685   1.608  13.212 -0.6614  0.0477  1.4947
12679TIP3   OH259527   1.518   4.297  12.699 -0.3284 -0.0036 -0.0078
12679TIP3    H159528   1.511   4.303  12.794  1.4953  0.6342  0.0980
12679TIP3    H259529   1.498   4.385  12.667  0.2354  0.0794 -0.1368
12680TIP3   OH259530   4.472   1.425   3.163  0.4493 -0.0237 -0.0044
12680TIP3    H159531   4.386   1.462   3.141 -0.1708  0.0723  2.3657
12680TIP3    H259532   4.493   1.367   3.090 -0.7176  1.4793 -1.5620
12681TIP3   OH259533   0.705   5.409   5.624 -0.1785  0.3802  0.6551
12681TIP3    H159534   0.661   5.430   5.542 -1.5681  0.7230  1.4755
12681TIP3    H259535   0.782   5.359   5.598 -0.0425  1.3814 -0.9307
12682TIP3   OH259536   5.527   1.100  11.903  0.5525  0.2539  0.0196
12682TIP3    H159537   5.552   1.069  11.990 -1.2498  0.0751  0.5045
12682TIP3    H259538   5.548   1.028  11.844 -0.5816 -0.6291  0.6743
12683TIP3   OH259539   2.856   0.664  13.031  0.2026  0.1729 -0.2497
12683TIP3    H159540   2.942   0.675  12.990  0.4831 -1.7925 -0.2493
12683TIP3    H259541   2.822   0.583  12.994 -0.5049 -0.4794  1.7370
12684TIP3   OH259542   3.344   3.738  12.590 -0.6667 -0.0355  0.0038
12684TIP3    H159543   3.288   3.774  12.659 -2.4406 -0.3058 -1.2683
12684TIP3    H259544   3.433   3.749  12.624 -1.4616  0.4673  2.0332
12685TIP3   OH259545   6.364   3.789  11.488 -0.0438 -0.6893 -0.1137
12685TIP3    H159546   6.288   3.758  11.439 -0.4617 -2.7152  1.7705
12685TIP3    H259547   6.383   3.875  11.450 -1.0381 -1.7092 -3.0363
12686TIP3   OH259548   3.954   0.750  16.412 -0.0320 -0.0100  0.2435
12686TIP3    H159549   3.896   0.707  16.475 -0.5092  0.6207  0.2315
12686TIP3    H259550   4.007   0.810  16.465  0.1359 -0.0778  0.1548
12687TIP3   OH259551   1.973   5.537   2.138  0.4442 -0.1681  0.4298
12687TIP3    H159552   2.027   5.604   2.182  0.9039 -0.7894  0.8275
12687TIP3    H259553   1.914   5.506   2.206  1.6777 -1.6842  0.8413
12688TIP3   OH259554   1.522   3.240  17.147 -0.5940  0.0418  0.5018
12688TIP3    H159555   1.493   3.326  17.177 -0.4542  0.6903 -1.2108
12688TIP3    H259556   1.447   3.205  17.098 -0.7206 -0.8995  1.3550
12689TIP3   OH259557   2.687   1.351   3.918  0.2068  0.3365  0.4534
12689TIP3    H159558   2.652   1.439   3.900 -1.5002 -0.4551 -0.1731
12689TIP3    H259559   2.731   1.325   3.837  0.2990  0.4102  0.4790
12690TIP3   OH259560   4.925   5.146  17.075 -0.5183  0.3862  0.0240
12690TIP3    H159561   4.850   5.089  17.089 -0.8813  1.1530  1.3128
12690TIP3    H259562   5.001   5.090  17.092 -0.7983 -0.3763 -1.2313
12691TIP3   OH259563   1.789   2.086  14.621 -0.0189  0.7486  0.4111
12691TIP3    H159564   1.833   2.132  14.693 -1.4581  2.6045  0.1692
12691TIP3    H259565   1.837   2.112  14.543  1.0964 -0.6896  0.5983
12692TIP3   OH259566   3.559   3.419  12.427 -0.0993 -0.1468 -0.2218
12692TIP3    H159567   3.531   3.374  12.507 -0.7837 -0.6730 -0.7511
12692TIP3    H259568   3.635   3.369  12.396  0.5020  0.3760  0.3817
12693TIP3   OH259569   0.517   4.150  14.854  0.2562  0.0598  0.0413
12693TIP3    H159570   0.458   4.150  14.929 -1.0869  0.7757 -1.0107
12693TIP3    H259571   0.486   4.221  14.798  3.2858  1.7733  0.3952
12694TIP3   OH259572   5.636   2.864   1.158  0.3572 -0.5265  1.1904
12694TIP3    H159573   5.710   2.916   1.126 -0.5944  0.7702  1.0653
12694TIP3    H259574   5.659   2.774   1.134  0.9972  0.0827 -0.6103
12695TIP3   OH259575   1.371   4.212   3.112  0.4817  0.3079  0.3481
12695TIP3    H159576   1.277   4.219   3.125  0.0073 -2.2351 -1.3285
12695TIP3    H259577   1.404   4.176   3.194 -0.2753 -0.6320  0.2422
12696TIP3   OH259578   4.730   4.783   3.949  0.5654  0.2606  0.1714
12696TIP3    H159579   4.710   4.793   4.042  2.8078 -0.6879  0.7827
12696TIP3    H259580   4.748   4.690   3.938  0.5190  0.4051 -1.1751
12697TIP3   OH259581   2.357   1.931  11.510 -0.1339 -0.4776 -0.1942
12697TIP3    H159582   2.275   1.915  11.463 -0.8231 -0.4701  0.9821
12697TIP3    H259583   2.383   2.020  11.485 -1.3764  0.1576  0.7091
12698TIP3   OH259584   3.640   2.530  16.939  0.3301  0.8626  0.2160
12698TIP3    H159585   3.653   2.489  17.024 -0.1262  2.4809  1.1039
12698TIP3    H259586   3.727   2.560  16.912  0.8094 -1.4287 -0.8524
12699TIP3   OH259587   6.582   0.254   5.069  0.2351  0.1345 -0.3479
12699TIP3    H159588   6.524   0.252   5.144 -0.2382 -0.6674 -0.7225
12699TIP3    H259589   6.581   0.345   5.039 -0.4433  0.2183 -0.0654
12700TIP3   OH259590   2.419   0.604   0.994 -0.2010  0.1932  0.9333
12700TIP3    H159591   2.427   0.626   1.087 -1.8917 -0.9763  1.3939
12700TIP3    H259592   2.478   0.665   0.950  1.1239  0.3376  2.8204
12701TIP3   OH259593   0.749   1.064   0.938  0.3306  0.8016 -0.2522
12701TIP3    H159594   0.823   1.081   0.880  2.1471  0.7885  1.9910
12701TIP3    H259595   0.770   1.113   1.018 -1.4870 -0.2246  0.8799
12702TIP3   OH259596   2.992   3.764  13.319  0.6250  0.1299  0.0859
12702TIP3    H159597   3.053   3.828  13.355 -0.1154  0.0986  1.4398
12702TIP3    H259598   3.047   3.690  13.293  1.2032  0.2060  1.0577
12703TIP3   OH259599   1.488   0.330   4.379  0.0737  0.0976  0.4441
12703TIP3    H159600   1.410   0.342   4.324 -0.0336 -2.3884  0.0037
12703TIP3    H259601   1.545   0.403   4.356 -1.8940  1.6469  0.3765
12704TIP3   OH259602   3.721   5.476   6.013  0.2883 -0.5587  0.3457
12704TIP3    H159603   3.752   5.517   6.094  1.1494 -1.8142  0.6619
12704TIP3    H259604   3.675   5.397   6.042  0.8562 -1.1668 -0.3911
12705TIP3   OH259605   6.391   3.101  14.286  0.2568 -0.0744  0.0093
12705TIP3    H159606   6.415   3.019  14.328 -0.4527 -0.8760 -1.1227
12705TIP3    H259607   6.411   3.168  14.351 -1.1800 -1.3202  1.8036
12706TIP3   OH259608   1.088   3.101   1.213 -0.0811  0.3302  0.2492
12706TIP3    H159609   1.144   3.159   1.161  1.1102 -0.4030  0.6777
12706TIP3    H259610   1.148   3.062   1.277 -0.8214 -1.4586 -0.1215
12707TIP3   OH259611   1.281   1.824  12.796 -0.5738 -0.0672  0.1070
12707TIP3    H159612   1.246   1.882  12.863  1.5873 -1.0084  2.1252
12707TIP3    H259613   1.342   1.878  12.747 -1.4520  0.3683 -0.5258
12708TIP3   OH259614   3.265   6.589  14.571  0.3421 -0.7083 -0.3436
12708TIP3    H159615   3.354   6.561  14.549  0.6119 -1.1120  1.2074
12708TIP3    H259616   3.210   6.549  14.503  1.2353 -1.2014 -0.7916
12709TIP3   OH259617   0.567   1.517  11.411  0.1276  0.5895  0.3400
12709TIP3    H159618   0.563   1.564  11.328 -1.2722 -0.2535 -0.0810
12709TIP3    H259619   0.528   1.577  11.474  0.6700  1.0001  0.2913
12710TIP3   OH259620   3.644   0.360   0.636 -0.1947  0.1289 -0.3645
12710TIP3    H159621   3.667   0.275   0.596  2.6623  0.4242  0.5680
12710TIP3    H259622   3.702   0.423   0.592  1.4272  0.7857  2.6095
12711TIP3   OH259623   0.992   5.680   5.196 -0.3134 -0.2736 -0.0152
12711TIP3    H159624   0.951   5.600   5.164  0.7850 -1.3737  1.2698
12711TIP3    H259625   0.928   5.715   5.259  1.2374 -2.7348  3.0418
12712TIP3   OH259626   5.384   2.916   4.472 -0.1280  0.2792 -0.3047
12712TIP3    H159627   5.297   2.947   4.449  0.1727  0.7781 -0.7957
12712TIP3    H259628   5.443   2.980   4.432  0.4106  1.1335  1.8202
12713TIP3   OH259629   3.917   1.151  13.817 -0.0076  0.1634  0.1123
12713TIP3    H159630   3.863   1.226  13.841  1.6276  1.0962  0.9535
12713TIP3    H259631   3.919   1.153  13.721 -1.4021  0.1265  0.0655
12714TIP3   OH259632   4.323   5.412  12.675  0.1334 -0.0473 -0.6628
12714TIP3    H159633   4.401   5.360  12.659  0.7269  1.0793 -1.5111
12714TIP3    H259634   4.284   5.424  12.588 -2.3375 -2.6461 -0.0107
12715TIP3   OH259635   0.242   1.142  15.486  0.1442 -0.3413 -0.6310
12715TIP3    H159636   0.177   1.209  15.508  0.5313  0.1523 -0.9716
12715TIP3    H259637   0.194   1.079  15.432 -0.3421 -0.5899  0.0824
12716TIP3   OH259638   2.666   3.733   0.042 -0.2576 -0.2391  0.0686
12716TIP3    H159639   2.704   3.820   0.032  1.0950 -0.9459 -1.0409
12716TIP3    H259640   2.639   3.729   0.134 -1.1281  1.6560 -0.0769
12717TIP3   OH259641   4.400   1.194  10.484 -0.9646 -0.5042  0.0333
12717TIP3    H159642   4.478   1.239  10.518 -0.8106  0.3260 -1.3636
12717TIP3    H259643   4.353   1.262  10.435 -2.4628 -1.0571  0.7006
12718TIP3   OH259644   0.753   6.457  12.077 -0.0963 -0.0261  0.4370
12718TIP3    H159645   0.718   6.369  12.062 -3.0111  0.8652  1.6700
12718TIP3    H259646   0.699   6.514  12.022  0.1910  1.2697  1.4665
12719TIP3   OH259647   6.647   3.285  11.582 -0.0607  0.5020  0.2762
12719TIP3    H159648   6.675   3.209  11.531 -2.7377  0.8198 -1.7679
12719TIP3    H259649   6.601   3.247  11.658 -0.8104  0.0417 -0.3923
12720TIP3   OH259650   5.919   2.177   0.697  0.1928  0.0147 -0.2315
12720TIP3    H159651   5.976   2.158   0.623 -1.8010 -2.8542 -1.0988
12720TIP3    H259652   5.848   2.230   0.661  1.1139  1.7869  0.4390
12721TIP3   OH259653   0.588   2.527   5.417  0.1107 -0.3280  0.1004
12721TIP3    H159654   0.633   2.596   5.466 -0.5486  0.5064 -0.4533
12721TIP3    H259655   0.497   2.533   5.445  0.3162 -1.9665  1.1611
12722TIP3   OH259656   5.637   6.695  14.634 -0.6092 -0.0539 -0.2942
12722TIP3    H159657   5.689   6.621  14.665 -1.1879 -0.1326  0.4990
12722TIP3    H259658   5.699   6.767  14.629 -0.1390 -0.4768 -0.6463
12723TIP3   OH259659   5.472   0.537   0.567 -0.3278 -0.4320 -0.6758
12723TIP3    H159660   5.387   0.569   0.536 -0.5665  0.8034  1.1711
12723TIP3    H259661   5.479   0.449   0.531 -1.1195  0.4624 -3.2054
12724TIP3   OH259662   3.028   6.369   1.089 -0.2601 -0.0673 -0.5014
12724TIP3    H159663   3.054   6.337   1.003 -3.6939 -0.3789 -1.5323
12724TIP3    H259664   3.015   6.290   1.142 -0.8132 -0.0259 -0.5640
12725TIP3   OH259665   1.130   0.842  16.998 -0.0981 -0.0663  0.2193
12725TIP3    H159666   1.207   0.893  17.023  0.7436 -0.4313 -1.5011
12725TIP3    H259667   1.064   0.908  16.976  1.4308  0.3978 -3.3689
12726TIP3   OH259668   6.167   6.401  13.299 -0.6405  0.3149 -0.0135
12726TIP3    H159669   6.146   6.309  13.311 -1.6827  0.6902  1.1246
12726TIP3    H259670   6.087   6.439  13.261 -0.3716  0.8253 -0.0771
12727TIP3   OH259671   5.744   5.914  11.561  0.2351 -0.3242 -0.2216
12727TIP3    H159672   5.824   5.936  11.610  0.0044 -0.9057  0.4256
12727TIP3    H259673   5.686   5.989  11.576 -0.1137 -0.8225  1.0232
12728TIP3   OH259674   3.557   2.459   5.912  0.2292 -0.3306  0.2644
12728TIP3    H159675   3.528   2.491   5.997 -1.1339 -0.2272 -0.2171
12728TIP3    H259676   3.625   2.520   5.885 -1.0790  1.1236  0.1698
12729TIP3   OH259677   2.408   6.272   0.540  0.6291  0.2307 -0.2023
12729TIP3    H159678   2.339   6.298   0.480 -1.4206 -1.2289  1.4614
12729TIP3    H259679   2.404   6.338   0.610 -0.5732 -1.1008  1.0026
12730TIP3   OH259680   0.738   5.120   4.020 -0.5853  0.0245  0.1945
12730TIP3    H159681   0.765   5.033   4.052 -0.7011 -0.0131  0.1887
12730TIP3    H259682   0.654   5.105   3.978  0.6734 -0.3797 -2.2938
12731TIP3   OH259683   2.656   6.497  14.291  0.2025  0.3635 -0.0530
12731TIP3    H159684   2.662   6.550  14.212  0.9547 -0.2770 -0.4353
12731TIP3    H259685   2.566   6.464  14.291 -0.3316  1.7873  0.2995
12732TIP3   OH259686   5.965   0.135   4.111  0.1525  0.4386 -0.2231
12732TIP3    H159687   5.906   0.064   4.136  0.5896 -0.2830 -1.1908
12732TIP3    H259688   6.006   0.105   4.030  1.2173  1.2997 -0.0217
12733TIP3   OH259689   5.148   4.393  17.067  0.3371 -0.0467 -0.1546
12733TIP3    H159690   5.066   4.372  17.023 -1.4413  0.9013  2.5768
12733TIP3    H259691   5.157   4.326  17.134  2.1561 -0.5082 -0.8306
12734TIP3   OH259692   5.167   6.051   5.317  0.1711  0.4016  0.0167
12734TIP3    H159693   5.160   6.114   5.389  0.5417 -0.2743  0.6484
12734TIP3    H259694   5.099   6.078   5.255  0.2076  1.3192  0.3591
12735TIP3   OH259695   1.298   4.738   3.651 -0.4392 -0.2704 -0.4468
12735TIP3    H159696   1.314   4.721   3.559 -0.2982 -1.7490 -0.1598
12735TIP3    H259697   1.381   4.720   3.694 -0.5840  0.1205  0.0030
12736TIP3   OH259698   0.946   2.884  15.395  0.0397  0.6794  0.0861
12736TIP3    H159699   0.879   2.901  15.329  0.8918  0.8293 -0.7497
12736TIP3    H259700   0.929   2.948  15.463 -0.9992  0.3678  0.1341
12737TIP3   OH259701   0.190   1.614   4.994 -0.0685  0.9296  0.4382
12737TIP3    H159702   0.215   1.521   4.996 -1.0763  0.6551  0.6373
12737TIP3    H259703   0.181   1.634   4.901  0.3787  0.8925  0.3855
12738TIP3   OH259704   1.875   5.174   1.800 -0.1722  0.1468  0.2430
12738TIP3    H159705   1.969   5.185   1.810 -0.2196  1.9506 -0.9418
12738TIP3    H259706   1.865   5.098   1.744  0.5102 -1.1073  1.7893
12739TIP3   OH259707   3.924   3.115   4.211  0.2269 -0.1010  0.1079
12739TIP3    H159708   3.921   3.055   4.286 -0.5957 -0.7896 -0.4683
12739TIP3    H259709   3.834   3.118   4.179  0.5587  0.2426 -0.8095
12740TIP3   OH259710   3.927   5.115  13.606  0.4342 -1.3546 -0.0397
12740TIP3    H159711   3.933   5.166  13.687  0.9184 -0.0167 -0.9115
12740TIP3    H259712   3.839   5.077  13.608  0.1654 -0.7018  0.7269
12741TIP3   OH259713   1.118   3.097   4.258  0.7831  0.6206 -0.0645
12741TIP3    H159714   1.127   3.130   4.347  1.2315 -1.4311  0.6591
12741TIP3    H259715   1.023   3.088   4.245  0.7853 -0.8232  0.8621
12742TIP3   OH259716   4.692   5.773  15.620  0.2076 -0.3748  0.2238
12742TIP3    H159717   4.730   5.855  15.588 -0.8103 -0.0709 -0.2426
12742TIP3    H259718   4.662   5.728  15.541  1.2469 -1.4540  0.4325
12743TIP3   OH259719   0.289   0.499   5.015  0.4884 -0.0824 -0.4940
12743TIP3    H159720   0.288   0.594   5.026 -1.9859 -0.1202 -0.1561
12743TIP3    H259721   0.198   0.475   5.000  0.4807 -2.8102  3.0977
12744TIP3   OH259722   6.622   4.358  12.485  0.7444 -0.1801  0.0943
12744TIP3    H159723   6.561   4.408  12.431 -0.3574 -0.8870  0.6697
12744TIP3    H259724   6.654   4.289  12.427  2.3126  1.2031 -0.7202
12745TIP3   OH259725   5.513   2.366  12.196  0.5681 -0.3205  0.3377
12745TIP3    H159726   5.599   2.350  12.235  0.7240 -2.4405 -0.7967
12745TIP3    H259727   5.493   2.457  12.220  2.1874 -0.4404  2.3494
12746TIP3   OH259728   1.689   0.873  11.072 -0.2787 -0.0884 -0.0518
12746TIP3    H159729   1.667   0.952  11.122 -1.3559  0.1628 -0.8946
12746TIP3    H259730   1.783   0.862  11.085 -0.5549 -0.1417  2.1709
12747TIP3   OH259731   5.672   0.074  14.363 -0.5356  0.1422 -0.0178
12747TIP3    H159732   5.641  -0.007  14.320  0.4693 -0.6362  0.7037
12747TIP3    H259733   5.763   0.056  14.384 -0.6989  0.9454  1.4258
12748TIP3   OH259734   0.958   1.787   3.789  0.8144 -0.1400  0.3542
12748TIP3    H159735   0.978   1.826   3.874  1.4489  1.2730 -0.4359
12748TIP3    H259736   1.019   1.714   3.781  0.5418 -0.4700  1.2342
12749TIP3   OH259737   2.723   0.226   5.124 -0.2538 -0.1437  0.0932
12749TIP3    H159738   2.648   0.185   5.167 -0.0629 -0.3491  0.2305
12749TIP3    H259739   2.750   0.162   5.057  0.4102 -0.5056  0.6986
12750TIP3   OH259740   6.742   2.306  13.917  0.0350  0.5971 -0.8190
12750TIP3    H159741   6.675   2.373  13.905  0.0450  1.2058  2.1227
12750TIP3    H259742   6.695   2.231  13.954  0.7953  0.7233  0.4518
12751TIP3   OH259743   5.804   1.304   0.269 -0.0310  0.2700 -0.4185
12751TIP3    H159744   5.721   1.278   0.309  1.1896 -1.2898  1.2229
12751TIP3    H259745   5.854   1.342   0.342  1.0846  0.2352 -1.1560
12752TIP3   OH259746   0.906   1.124   3.242  0.1240  0.3066 -0.1519
12752TIP3    H159747   0.871   1.055   3.298  0.5155  0.7220  0.6212
12752TIP3    H259748   0.836   1.188   3.235  0.4055  0.7127  0.6628
12753TIP3   OH259749   4.459   6.309   2.061  0.1808  0.1467 -0.5722
12753TIP3    H159750   4.493   6.334   1.975 -0.8229 -0.0478 -1.0299
12753TIP3    H259751   4.478   6.384   2.118  1.4678 -0.0085 -0.7968
12754TIP3   OH259752   4.395   1.030   5.084 -0.3453 -0.1299 -0.4469
12754TIP3    H159753   4.366   0.993   5.001 -1.0328  0.9096 -0.6780
12754TIP3    H259754   4.463   0.970   5.114 -2.2646 -2.2724 -0.2127
12755TIP3   OH259755   2.020   4.474   3.126 -0.4182  0.3457 -0.7653
12755TIP3    H159756   1.930   4.495   3.100 -1.0099 -0.4994  0.5288
12755TIP3    H259757   2.065   4.453   3.044 -1.7196 -0.3949 -1.2983
12756TIP3   OH259758   0.450   6.254   6.003  0.2678 -0.1683  0.3123
12756TIP3    H159759   0.457   6.159   6.002  1.0273 -0.1109 -0.1901
12756TIP3    H259760   0.533   6.283   6.042  0.2045  0.3027  0.0925
12757TIP3   OH259761   4.212   0.156  10.974  0.2401 -0.5683  0.1170
12757TIP3    H159762   4.244   0.192  10.892 -0.7269 -0.2861 -0.1414
12757TIP3    H259763   4.270   0.194  11.041  0.1145  0.3511 -0.2899
12758TIP3   OH259764   3.151   3.764  13.612 -0.6340  0.5673  0.4188
12758TIP3    H159765   3.126   3.855  13.600 -1.7035  0.3816  1.0943
12758TIP3    H259766   3.070   3.715  13.596  0.1097 -0.3309 -0.7325
12759TIP3   OH259767   6.115   6.641  16.205  0.1981 -0.2360 -0.6586
12759TIP3    H159768   6.200   6.608  16.234  0.5610  1.3612  0.1495
12759TIP3    H259769   6.055   6.569  16.219  1.2515 -1.0542 -0.3254
12760TIP3   OH259770   1.368   4.363  12.359 -0.1588  0.6035 -0.3208
12760TIP3    H159771   1.340   4.326  12.443  0.0963  0.2927 -0.3699
12760TIP3    H259772   1.354   4.457  12.368 -2.0870  0.3621 -0.6759
12761TIP3   OH259773   4.276   3.724  14.576  0.0364 -0.1931  0.4437
12761TIP3    H159774   4.231   3.789  14.521  1.0922 -0.0474 -0.2548
12761TIP3    H259775   4.260   3.754  14.666  1.2479  1.5422  0.1087
12762TIP3   OH259776   2.973   3.576  14.228 -0.4858  0.8530 -0.4576
12762TIP3    H159777   2.900   3.519  14.253  0.0535  0.1981 -0.3373
12762TIP3    H259778   2.946   3.663  14.256 -0.6437  0.4049  0.8288
12763TIP3   OH259779   0.537   2.561   0.014 -0.7688 -0.2099 -0.0139
12763TIP3    H159780   0.481   2.575  -0.063 -1.3552 -1.7927  0.1174
12763TIP3    H259781   0.601   2.496  -0.014 -1.1174 -0.9569  0.9092
12764TIP3   OH259782   0.827   0.385  15.119  0.5192  0.4497  0.2846
12764TIP3    H159783   0.859   0.386  15.029 -0.5631 -2.2588 -0.1767
12764TIP3    H259784   0.900   0.351  15.170  0.5066  0.2000  0.1410
12765TIP3   OH259785   3.983   2.969  11.839 -0.1516  0.2441 -0.6477
12765TIP3    H159786   4.058   3.021  11.809 -0.8328  0.2865 -2.3521
12765TIP3    H259787   3.907   3.015  11.802 -0.7756 -1.8245 -2.0170
12766TIP3   OH259788   6.432   3.144  16.613 -0.4050  0.0235 -0.2021
12766TIP3    H159789   6.374   3.218  16.596  0.7589  1.0405  0.2317
12766TIP3    H259790   6.498   3.178  16.673  0.4344 -1.2259 -0.3973
12767TIP3   OH259791   3.753   5.248   4.967  0.2783 -0.1439  0.2199
12767TIP3    H159792   3.700   5.199   5.030 -1.6327  1.3299 -0.1908
12767TIP3    H259793   3.782   5.182   4.903  1.9358 -1.5873  2.3878
12768TIP3   OH259794   1.435   0.752   0.126  0.5464  0.1189  0.1512
12768TIP3    H159795   1.467   0.724   0.040 -1.6083  0.5246 -0.8129
12768TIP3    H259796   1.465   0.842   0.135  0.2162  0.2977 -0.4798
12769TIP3   OH259797   6.640   4.027  11.445  0.1542 -0.3727  0.0799
12769TIP3    H159798   6.667   3.944  11.486  0.7779 -0.3784 -0.3331
12769TIP3    H259799   6.577   4.064  11.506  1.0429 -0.4012  1.0337
12770TIP3   OH259800   5.432   3.262   0.142 -0.2101 -0.4658  0.4280
12770TIP3    H159801   5.357   3.205   0.160 -0.9546  1.1225  2.4952
12770TIP3    H259802   5.502   3.227   0.197  0.0516 -0.8557 -0.1474
12771TIP3   OH259803   1.331   3.218   1.518 -0.1537 -0.2668  0.3800
12771TIP3    H159804   1.257   3.277   1.505 -0.5657 -0.1105  3.0718
12771TIP3    H259805   1.304   3.162   1.591  0.8339 -2.8234 -1.1687
12772TIP3   OH259806   6.681   5.446   5.251  0.0584  0.2431 -0.5576
12772TIP3    H159807   6.604   5.405   5.291 -0.6123 -0.5494 -2.5934
12772TIP3    H259808   6.744   5.374   5.243  0.2557  0.4397 -0.7595
12773TIP3   OH259809   2.174   4.576   2.510 -0.0970  0.0087 -0.0683
12773TIP3    H159810   2.095   4.628   2.512  0.4612  0.8523  0.2034
12773TIP3    H259811   2.148   4.490   2.542 -1.0152  0.1240 -0.5074
12774TIP3   OH259812   0.088   4.644   5.699 -0.2770  0.2954  0.2131
12774TIP3    H159813   0.109   4.560   5.657 -0.0920  0.5659 -0.2326
12774TIP3    H259814   0.060   4.700   5.627  1.4278  1.2078  0.2340
12775TIP3   OH259815   6.180   2.969  13.744  0.8044  0.0544 -0.1838
12775TIP3    H159816   6.272   2.995  13.749  1.0352 -0.7593 -0.0569
12775TIP3    H259817   6.150   3.003  13.660  0.9884  1.0512  0.1459
12776TIP3   OH259818   2.578   5.360  12.261 -0.0595  0.3297  0.1735
12776TIP3    H159819   2.495   5.341  12.304 -1.0864  1.9789 -0.9902
12776TIP3    H259820   2.578   5.306  12.182 -0.0476  0.3672  0.1479
12777TIP3   OH259821   6.022   0.988   5.361  0.4172  0.1994 -0.1460
12777TIP3    H159822   5.957   0.920   5.347  0.7221 -0.7816  2.8613
12777TIP3    H259823   6.082   0.980   5.287 -0.9191 -1.1670 -1.0995
12778TIP3   OH259824   4.714   6.645  12.914  0.3131 -0.4364  0.6278
12778TIP3    H159825   4.788   6.641  12.854  0.7658  2.5936  0.8652
12778TIP3    H259826   4.641   6.678  12.861  0.2701  0.6147  1.3121
12779TIP3   OH259827   3.837   3.437  14.953 -0.2170 -0.2145 -0.1849
12779TIP3    H159828   3.803   3.446  15.042  1.5606 -0.5298  0.5380
12779TIP3    H259829   3.811   3.518  14.909 -1.7180 -0.3569  0.3958
12780TIP3   OH259830   4.058   6.054  16.729 -0.0244  0.1946  0.2385
12780TIP3    H159831   4.076   6.146  16.709  1.1572  0.1392  0.9416
12780TIP3    H259832   3.973   6.054  16.774  0.4128  1.0631  1.0815
12781TIP3   OH259833   1.959   4.836   4.234 -0.5916 -0.4072  0.2437
12781TIP3    H159834   2.034   4.804   4.283  0.4064 -0.0803 -1.0490
12781TIP3    H259835   1.994   4.905   4.177 -1.8139 -0.4038 -0.5412
12782TIP3   OH259836   2.626   2.691  12.524 -0.1568 -0.5806 -0.2390
12782TIP3    H159837   2.716   2.705  12.494 -0.4281  0.1285 -0.7386
12782TIP3    H259838   2.608   2.764  12.584 -0.0376 -1.3151  0.6995
12783TIP3   OH259839   3.455   1.510   4.842  0.1995  0.6156  0.2675
12783TIP3    H159840   3.378   1.468   4.879 -0.8391 -0.0984 -2.5959
12783TIP3    H259841   3.435   1.603   4.842 -0.5940  0.4509 -0.2478
12784TIP3   OH259842   0.221   2.763   2.695 -0.7459  0.3477  0.0542
12784TIP3    H159843   0.219   2.671   2.667 -0.9443  0.5208 -0.5111
12784TIP3    H259844   0.139   2.800   2.662 -1.2067  0.4401  1.2919
12785TIP3   OH259845   1.778   1.618   2.364  0.2346  0.0665 -0.2057
12785TIP3    H159846   1.740   1.690   2.313  0.6880  0.3564 -0.1407
12785TIP3    H259847   1.715   1.601   2.433 -0.9393 -1.0875 -1.5145
12786TIP3   OH259848   3.415   1.645   6.773 -0.0314 -0.1410  0.1626
12786TIP3    H159849   3.509   1.659   6.781 -0.2667  1.1220  0.8128
12786TIP3    H259850   3.378   1.682   6.853 -0.9719 -1.7750  0.5090
12787TIP3   OH259851   4.783   0.840   1.144 -0.0377  0.0763  0.3105
12787TIP3    H159852   4.820   0.903   1.082  0.6590 -1.0963 -0.5004
12787TIP3    H259853   4.856   0.821   1.204  0.2254 -1.0588 -0.3462
12788TIP3   OH259854   3.671   4.861   4.325 -0.4331  0.4506 -0.0945
12788TIP3    H159855   3.748   4.901   4.285 -0.2846 -0.3983 -0.6721
12788TIP3    H259856   3.702   4.824   4.407 -0.4066  0.8389  0.0709
12789TIP3   OH259857   0.159   4.077   6.152 -0.0916 -0.1246  0.1142
12789TIP3    H159858   0.096   4.008   6.128  0.0799 -1.2109  2.5965
12789TIP3    H259859   0.240   4.030   6.172  0.8828  1.0735 -0.9626
12790TIP3   OH259860   1.094   2.403   1.652 -0.3513  0.0748 -0.2855
12790TIP3    H159861   1.122   2.465   1.719 -2.8570  0.9531 -0.0105
12790TIP3    H259862   1.068   2.324   1.700  1.8421 -0.8524 -0.5618
12791TIP3   OH259863   1.232   0.186  15.480  0.6094 -0.0634 -0.1853
12791TIP3    H159864   1.227   0.247  15.554 -2.4205 -0.8168  0.3247
12791TIP3    H259865   1.239   0.099  15.521  3.0208 -0.2319 -0.8768
12792TIP3   OH259866   2.019   1.452   3.654  0.0347  0.1713 -0.5481
12792TIP3    H159867   1.991   1.423   3.568 -1.8919  1.1363 -0.2976
12792TIP3    H259868   1.937   1.458   3.705  0.6384  3.1648  0.2213
12793TIP3   OH259869   3.595   1.254   1.801 -0.1120  0.3815  0.4532
12793TIP3    H159870   3.550   1.188   1.748  1.3091 -1.9034  2.0141
12793TIP3    H259871   3.648   1.304   1.739  0.7150 -1.5750 -0.4375
12794TIP3   OH259872   6.688   1.622   6.808  0.3912 -0.0598 -0.1815
12794TIP3    H159873   6.760   1.567   6.779  1.8295 -0.0059  3.0809
12794TIP3    H259874   6.610   1.582   6.769  1.8167 -2.0790 -1.0283
12795TIP3   OH259875   0.375   2.102  13.820  0.0358  0.1770 -0.5211
12795TIP3    H159876   0.402   2.095  13.729  2.6267 -1.8457  0.3391
12795TIP3    H259877   0.299   2.043  13.827 -0.0939  0.2431 -1.3218
12796TIP3   OH259878   4.077   2.252   1.686 -0.3233  0.6791 -0.8131
12796TIP3    H159879   4.137   2.186   1.651 -0.6090 -0.0752  0.1174
12796TIP3    H259880   4.132   2.311   1.737  0.0831  1.7314 -2.4093
12797TIP3   OH259881   1.267   6.120   2.903  0.0046 -0.3664 -0.4822
12797TIP3    H159882   1.314   6.166   2.973 -0.0187  0.0869 -0.7567
12797TIP3    H259883   1.199   6.070   2.947 -1.5770  1.8280 -0.3656
12798TIP3   OH259884   5.626   5.314   5.248 -0.1163 -0.3393  0.5547
12798TIP3    H159885   5.619   5.224   5.279  2.3813 -1.6435 -2.3833
12798TIP3    H259886   5.714   5.342   5.274 -0.4188  0.8259  0.3555
12799TIP3   OH259887   1.579   2.295  17.193  0.1080  0.3779  0.0946
12799TIP3    H159888   1.568   2.323  17.102  0.3025  0.5363  0.1212
12799TIP3    H259889   1.645   2.354  17.229 -0.5690  0.8471  0.5753
12800TIP3   OH259890   2.385   1.927   3.340  0.5491 -0.4184  0.8060
12800TIP3    H159891   2.462   1.870   3.338  1.6959  1.1335  0.2309
12800TIP3    H259892   2.355   1.924   3.431  0.8810 -1.5593  0.8766
12801TIP3   OH259893   5.812   4.483   3.925  0.1772 -0.4318  0.4080
12801TIP3    H159894   5.842   4.495   4.015  1.9690  1.9896 -0.4646
12801TIP3    H259895   5.774   4.567   3.901 -0.4233 -1.1155 -1.0632
12802TIP3   OH259896   1.086   3.086   3.908  0.4653 -1.2248  0.0529
12802TIP3    H159897   1.113   3.059   3.996  1.7693 -0.7598 -0.1851
12802TIP3    H259898   0.991   3.088   3.911  0.5369  1.0680  2.1407
12803TIP3   OH259899   3.920   0.964   2.284  0.5413 -0.3602 -0.2050
12803TIP3    H159900   3.834   0.946   2.245  0.2548 -0.2145  0.3658
12803TIP3    H259901   3.904   1.037   2.344  1.2770  0.3866 -0.9091
12804TIP3   OH259902   1.249   5.780  13.317  0.2101  0.0524  0.2868
12804TIP3    H159903   1.254   5.687  13.341  0.5909  0.0662  0.2513
12804TIP3    H259904   1.232   5.825  13.400 -2.0850 -0.2493  0.0141
12805TIP3   OH259905   5.907   5.780  12.584 -1.0040  0.2523  0.2722
12805TIP3    H159906   5.967   5.804  12.654 -1.1081 -0.1348  0.4954
12805TIP3    H259907   5.820   5.794  12.621 -1.0753 -0.9546  0.5836
12806TIP3   OH259908   2.854   5.521  12.141  0.1533  0.7113 -0.6562
12806TIP3    H159909   2.801   5.442  12.151 -1.9686  2.2583  0.7370
12806TIP3    H259910   2.819   5.563  12.062  0.4275  0.9046 -0.6750
12807TIP3   OH259911   1.023   2.636  15.495  0.6633 -0.0756 -0.1643
12807TIP3    H159912   0.969   2.574  15.446 -1.1410  0.4406  1.1287
12807TIP3    H259913   1.011   2.720  15.450 -0.5405  0.2790  0.8023
12808TIP3   OH259914   4.439   0.139  13.028  0.3881 -0.3214 -0.2292
12808TIP3    H159915   4.365   0.122  13.085 -0.5829  2.0797 -0.6851
12808TIP3    H259916   4.500   0.191  13.081  2.3471 -3.2907  0.5280
12809TIP3   OH259917   2.807   2.779  13.048  0.3921  0.1441 -0.3265
12809TIP3    H159918   2.818   2.687  13.024 -0.6449 -0.6263  2.0864
12809TIP3    H259919   2.879   2.797  13.109 -0.2204  0.5480  0.2847
12810TIP3   OH259920   0.041   6.621  11.034  0.4793  0.1225 -0.1340
12810TIP3    H159921   0.118   6.667  11.000  1.5941  0.1145  2.2864
12810TIP3    H259922  -0.033   6.669  10.999  1.6042  1.5868 -0.5580
12811TIP3   OH259923   0.612   3.397  13.888 -0.0924 -0.3878 -0.2922
12811TIP3    H159924   0.535   3.369  13.938  0.6525  3.1978  3.1848
12811TIP3    H259925   0.684   3.344  13.922 -0.3149 -0.8745 -0.5822
12812TIP3   OH259926   0.368   5.751   2.148  0.7809  0.0540  0.3660
12812TIP3    H159927   0.402   5.817   2.088  1.0356 -0.0096  0.4432
12812TIP3    H259928   0.434   5.682   2.147 -0.1676 -0.8801 -0.8801
12813TIP3   OH259929   2.775   2.211  14.258  0.1457  0.0017  0.1649
12813TIP3    H159930   2.752   2.123  14.228  0.2053  0.2797 -0.6982
12813TIP3    H259931   2.826   2.248  14.186  1.5572  0.1311  1.2195
12814TIP3   OH259932   0.853   1.847  15.843 -0.1793  0.2673  0.5953
12814TIP3    H159933   0.910   1.915  15.878 -0.5909 -0.0046  1.8284
12814TIP3    H259934   0.909   1.770  15.835 -0.2252  0.1665  1.2315
12815TIP3   OH259935   0.951   4.802   3.848  0.6222 -0.0809 -0.1000
12815TIP3    H159936   0.917   4.717   3.874 -2.6748  1.0396 -0.4638
12815TIP3    H259937   1.026   4.818   3.906 -0.8689 -1.6679  2.3164
12816TIP3   OH259938   2.961   6.242  13.519 -0.1116 -0.1131  0.4765
12816TIP3    H159939   3.008   6.325  13.527  1.2633 -0.8617  0.3665
12816TIP3    H259940   2.892   6.246  13.585 -0.1102  1.1443  0.4114
12817TIP3   OH259941   6.786   4.258  16.681  0.0785 -0.4536 -0.4869
12817TIP3    H159942   6.692   4.260  16.663  0.3847 -0.2757 -2.1210
12817TIP3    H259943   6.809   4.349  16.700 -0.0453 -0.4752 -0.2307
12818TIP3   OH259944   3.986   1.696   3.727 -0.0069 -0.3751  0.0054
12818TIP3    H159945   3.919   1.734   3.671  0.2439 -2.4029 -1.7229
12818TIP3    H259946   3.948   1.699   3.815 -0.1542  3.3810 -0.1135
12819TIP3   OH259947   6.543   3.615   1.201 -0.2659 -0.2756 -0.0712
12819TIP3    H159948   6.558   3.630   1.107  0.0545 -0.7045 -0.0895
12819TIP3    H259949   6.449   3.631   1.213 -0.7634 -2.4721 -0.9008
12820TIP3   OH259950   0.068   4.620  14.977  0.0383  0.7131 -0.2233
12820TIP3    H159951   0.085   4.576  14.893 -0.0174  0.5176 -0.1317
12820TIP3    H259952  -0.009   4.575  15.012  0.6776  0.0979  0.4248
12821TIP3   OH259953   5.145   0.568   5.227  0.4011 -0.0954  0.2721
12821TIP3    H159954   5.164   0.633   5.295  0.6703  1.1804 -0.9954
12821TIP3    H259955   5.171   0.485   5.266  2.9968  0.9002  0.8034
12822TIP3   OH259956   1.062   2.640  11.201  0.0621 -0.6335  0.0059
12822TIP3    H159957   1.135   2.693  11.168 -0.1193  0.4532  1.2790
12822TIP3    H259958   0.984   2.691  11.178 -0.1583 -0.7007  0.5900
12823TIP3   OH259959   2.446   5.385  11.417 -0.4638  0.1027  0.1326
12823TIP3    H159960   2.513   5.453  11.423 -0.3194  0.3865 -3.6537
12823TIP3    H259961   2.495   5.303  11.422 -0.1202  0.2994 -0.0044
12824TIP3   OH259962   2.887   6.256   3.477 -0.3293 -0.1972 -0.1253
12824TIP3    H159963   2.941   6.204   3.417  0.0485 -0.4651  0.4412
12824TIP3    H259964   2.843   6.191   3.531 -1.4715  0.0101 -0.7896
12825TIP3   OH259965   2.525   1.529   2.144 -0.0332 -0.2527  0.1973
12825TIP3    H159966   2.474   1.489   2.073 -1.3493 -0.6390  1.3297
12825TIP3    H259967   2.539   1.458   2.206  0.8163  0.1632  0.4843
12826TIP3   OH259968   2.430   4.126  15.694  0.0195  0.0465  0.3051
12826TIP3    H159969   2.509   4.130  15.747  0.7737 -0.7341 -0.7391
12826TIP3    H259970   2.418   4.215  15.661 -0.0060  0.3510  1.1240
12827TIP3   OH259971   4.142   0.804   6.629  0.3391 -0.4420 -0.1208
12827TIP3    H159972   4.231   0.794   6.663  0.3959  0.3473 -0.0416
12827TIP3    H259973   4.124   0.720   6.586  1.0173 -0.7050  0.0944
12828TIP3   OH259974   1.186   3.018  15.282  0.0242  0.5423  0.0210
12828TIP3    H159975   1.251   2.966  15.235 -0.4318  0.8782 -0.9820
12828TIP3    H259976   1.123   2.954  15.314 -1.5258  0.6320 -2.7775
12829TIP3   OH259977   5.556   5.515  17.168  0.2686 -0.5165  0.6727
12829TIP3    H159978   5.612   5.534  17.092 -0.8037  1.2249  0.3037
12829TIP3    H259979   5.566   5.592  17.224 -2.5060  0.2500  0.1503
12830TIP3   OH259980   3.829   0.580  16.107  0.3301  0.2193 -0.0709
12830TIP3    H159981   3.902   0.572  16.170  0.9797 -0.2218 -0.8657
12830TIP3    H259982   3.820   0.492  16.070 -0.3497  0.3702 -0.2624
12831TIP3   OH259983   0.234   1.102   1.722  0.0198 -0.0301 -0.1437
12831TIP3    H159984   0.154   1.073   1.678  0.1786  1.0915 -1.2027
12831TIP3    H259985   0.262   1.179   1.672  0.5289  0.9197  1.5778
12832TIP3   OH259986   3.557   3.925   3.508 -0.0875  0.1467  0.4189
12832TIP3    H159987   3.521   4.004   3.468 -0.2788  0.3484  0.9888
12832TIP3    H259988   3.513   3.918   3.593 -0.7422 -1.0764 -0.0092
12833TIP3   OH259989   3.311   1.013  11.462 -0.3974  0.1331  0.3452
12833TIP3    H159990   3.320   0.918  11.463 -0.4849  0.0930 -0.8990
12833TIP3    H259991   3.398   1.046  11.483 -0.3044 -0.2223  0.5168
12834TIP3   OH259992   4.386   0.124   4.239  0.1259 -0.5244 -0.5391
12834TIP3    H159993   4.436   0.046   4.260 -0.6541 -0.8155  0.2749
12834TIP3    H259994   4.366   0.163   4.324 -0.0785  0.1871 -0.9092
12835TIP3   OH259995   2.944   1.021   2.021  0.2609 -0.2252  0.2205
12835TIP3    H159996   2.927   0.978   2.105  1.8714 -1.7047 -0.1833
12835TIP3    H259997   3.038   1.009   2.006  0.0858  0.4247 -1.5751
12836TIP3   OH259998   5.966   6.583   1.266 -0.0615 -0.5488 -0.5301
12836TIP3    H159999   6.007   6.500   1.241 -0.0297 -0.8384  0.4226
12836TIP3    H260000   5.924   6.615   1.186  1.2889 -0.6841 -1.2974
12837TIP3   OH260001   0.534   4.247   3.853 -0.5086  0.1072 -0.2265
12837TIP3    H160002   0.621   4.228   3.817 -0.9778 -1.8737 -0.3483
12837TIP3    H260003   0.549   4.322   3.911  1.3297 -0.3388 -0.0741
12838TIP3   OH260004   4.106   4.328   4.599  0.5158  0.0739 -0.1827
12838TIP3    H160005   4.089   4.234   4.598 -0.3061  0.2106 -2.8795
12838TIP3    H260006   4.024   4.366   4.631 -1.3337  0.1712 -4.6849
12839TIP3   OH260007   5.830   5.380  14.668  0.0400  0.4317 -0.4568
12839TIP3    H160008   5.914   5.368  14.624 -0.0816 -0.3163 -0.4971
12839TIP3    H260009   5.781   5.301  14.646  0.5608 -0.7132  2.3473
12840TIP3   OH260010   5.616   3.525   5.654  0.2942  0.1653 -0.4867
12840TIP3    H160011   5.561   3.505   5.730  0.5229  0.5002 -0.2352
12840TIP3    H260012   5.667   3.445   5.641 -0.8481 -0.4559 -1.2378
12841TIP3   OH260013   4.222   5.515   1.800  0.0167 -0.1702 -0.0987
12841TIP3    H160014   4.182   5.601   1.786  0.6379 -0.0951 -1.5006
12841TIP3    H260015   4.171   5.456   1.744 -0.7434 -0.8220  1.2509
12842TIP3   OH260016   6.662   5.108   4.364  0.1827 -0.1001 -0.0370
12842TIP3    H160017   6.689   5.052   4.290 -1.0907 -0.9052  0.1058
12842TIP3    H260018   6.744   5.125   4.411  0.9829  0.2405 -1.5006
12843TIP3   OH260019   3.665   0.838  11.803  0.1306  0.4113 -0.3150
12843TIP3    H160020   3.748   0.885  11.800 -0.0712  0.7871 -0.0803
12843TIP3    H260021   3.689   0.746  11.793  0.4288  0.6524 -1.9037
12844TIP3   OH260022   4.409   5.630  15.500 -0.5915  0.0287 -0.4937
12844TIP3    H160023   4.327   5.672  15.474  0.4610  2.2553 -0.3661
12844TIP3    H260024   4.395   5.604  15.591 -0.7009  1.7009 -0.0049
12845TIP3   OH260025   0.401   5.745   0.169  0.3870 -0.1097 -0.2259
12845TIP3    H160026   0.368   5.785   0.250 -1.1315 -2.5804  0.4186
12845TIP3    H260027   0.456   5.672   0.199 -0.9907 -1.6708 -1.4038
12846TIP3   OH260028   0.137   3.561  14.315 -0.1454  0.0333  0.0441
12846TIP3    H160029   0.167   3.648  14.285 -1.5627  0.2856 -0.6661
12846TIP3    H260030   0.042   3.566  14.313 -0.2460 -1.1840  1.1022
12847TIP3   OH260031   0.563   5.707   5.173 -0.0299 -0.7786  0.1958
12847TIP3    H160032   0.637   5.763   5.198 -0.2866 -0.3354 -0.0407
12847TIP3    H260033   0.579   5.625   5.220 -1.0126  0.3605  2.5802
12848TIP3   OH260034   4.691   2.343  14.919  0.3342  0.3477 -0.0016
12848TIP3    H160035   4.743   2.263  14.932 -0.0573  0.2438  0.9067
12848TIP3    H260036   4.700   2.392  15.000 -0.7570  0.4680  0.0550
12849TIP3   OH260037   6.775   1.368  13.897  0.7426  0.1582  0.4809
12849TIP3    H160038   6.758   1.440  13.957 -0.1836 -1.0433  1.7110
12849TIP3    H260039   6.837   1.312  13.944  0.0387 -0.7734  0.3182
12850TIP3   OH260040   3.338   5.080  15.215  0.1147  0.4781 -0.0275
12850TIP3    H160041   3.284   5.006  15.243  0.3886  0.4373  0.3990
12850TIP3    H260042   3.385   5.048  15.138 -1.6823  1.0344 -1.3944
12851TIP3   OH260043   1.642   5.541  11.488 -0.1414  0.0036 -0.0542
12851TIP3    H160044   1.640   5.618  11.545  1.6457 -1.2609  1.7619
12851TIP3    H260045   1.641   5.578  11.399  1.7331  2.1952  0.7656
12852TIP3   OH260046   2.864   5.091   2.204  0.0318 -0.5276 -0.2883
12852TIP3    H160047   2.786   5.117   2.155  0.1728  0.2283 -0.1118
12852TIP3    H260048   2.838   5.094   2.296  0.9227  2.0476 -0.0667
12853TIP3   OH260049   3.621   6.748   0.108  0.4146 -0.0966  0.5317
12853TIP3    H160050   3.714   6.737   0.126  0.3015  0.3142  1.3843
12853TIP3    H260051   3.615   6.751   0.012  0.9526 -2.9902  0.3638
12854TIP3   OH260052   0.342   0.576  11.726 -0.1696  0.3897  0.3192
12854TIP3    H160053   0.256   0.542  11.701  0.7852 -0.6295 -1.6827
12854TIP3    H260054   0.387   0.592  11.643  0.0692  4.9966  1.2107
12855TIP3   OH260055   5.684   6.486   0.083  0.5213  0.0002  0.4847
12855TIP3    H160056   5.606   6.446   0.044  0.8225 -0.2744  0.1710
12855TIP3    H260057   5.674   6.579   0.063 -0.2541  0.1173  1.3499
12856TIP3   OH260058   1.008   5.009  11.889  0.3954 -0.7032  0.7834
12856TIP3    H160059   1.052   5.067  11.951 -0.2381  0.1637  0.4196
12856TIP3    H260060   0.941   5.063  11.848 -0.1851 -1.6809  0.4194
12857TIP3   OH260061   3.710   2.116  12.699 -0.2588 -0.8830  0.0171
12857TIP3    H160062   3.693   2.035  12.746 -0.3614 -0.2849  1.0353
12857TIP3    H260063   3.705   2.092  12.607 -4.5301 -1.2243  0.2232
12858TIP3   OH260064   3.303   3.410  11.704 -0.0897  0.2272 -0.6021
12858TIP3    H160065   3.301   3.506  11.702 -1.2751  0.2104 -0.6876
12858TIP3    H260066   3.395   3.388  11.695  0.1682  1.3599 -0.8687
12859TIP3   OH260067   6.272   2.734  14.669 -0.0617  1.0303 -0.0594
12859TIP3    H160068   6.201   2.670  14.671  1.9761 -1.2772  0.6205
12859TIP3    H260069   6.269   2.771  14.581 -0.9584 -0.4066 -0.6499
12860TIP3   OH260070   0.738   0.954  13.435 -0.0418  0.2956 -0.0925
12860TIP3    H160071   0.682   1.026  13.407 -1.2635 -0.4018  0.5229
12860TIP3    H260072   0.718   0.943  13.528 -0.7716 -1.6503 -0.4714
12861TIP3   OH260073   6.406   5.934   2.797 -0.3075 -0.6135 -0.8167
12861TIP3    H160074   6.354   5.865   2.757 -0.8956 -1.0082  0.5758
12861TIP3    H260075   6.390   6.011   2.743 -3.4349 -0.3876  0.3077
12862TIP3   OH260076   1.971   2.742   1.443 -0.5317 -0.0243  0.1719
12862TIP3    H160077   1.954   2.753   1.536  1.6783 -1.3242  0.7749
12862TIP3    H260078   1.971   2.831   1.408  0.0404  0.6003  1.6939
12863TIP3   OH260079   2.720   4.755  12.876 -0.0569  0.9483  0.0736
12863TIP3    H160080   2.639   4.727  12.832  0.7382 -1.2600 -0.0439
12863TIP3    H260081   2.699   4.750  12.969 -0.5016  1.7755  0.0209
12864TIP3   OH260082   1.775   0.501   2.081 -0.1021  0.4188 -0.0071
12864TIP3    H160083   1.703   0.560   2.059  0.5480  0.6066 -1.7487
12864TIP3    H260084   1.745   0.415   2.052  0.8655  0.7079 -1.9353
12865TIP3   OH260085   0.897   3.063  16.421 -0.1911  0.4169  0.1706
12865TIP3    H160086   0.940   3.002  16.481  0.4241  0.9186  0.2400
12865TIP3    H260087   0.874   3.138  16.475 -2.9530 -0.6507  0.5722
12866TIP3   OH260088   2.338   5.533  15.732 -0.6851  0.3789  0.3870
12866TIP3    H160089   2.251   5.523  15.770 -0.5297  1.1612  0.9438
12866TIP3    H260090   2.398   5.533  15.807 -0.1942 -0.1824  0.0080
12867TIP3   OH260091   1.457   0.495  11.625 -0.2227  0.0983 -0.5852
12867TIP3    H160092   1.411   0.558  11.680  2.0723  1.9499 -0.6945
12867TIP3    H260093   1.416   0.504  11.539 -1.0312  0.2274 -0.1864
12868TIP3   OH260094   6.185   1.458  16.476  0.2542 -0.3112 -0.3715
12868TIP3    H160095   6.201   1.535  16.421 -1.0936 -0.5582 -1.1399
12868TIP3    H260096   6.268   1.443  16.521  1.0386  0.5852 -1.4853
12869TIP3   OH260097   6.812   6.499  11.925  0.5793 -0.2542  0.1361
12869TIP3    H160098   6.725   6.466  11.949  0.6583 -2.0165 -1.8508
12869TIP3    H260099   6.795   6.560  11.854  0.9062 -0.0785  0.2082
12870TIP3   OH260100   4.887   6.540  13.546 -0.2185 -0.3494  0.4561
12870TIP3    H160101   4.808   6.490  13.528 -2.0767  2.4874  0.3466
12870TIP3    H260102   4.908   6.583  13.462 -0.4916  1.4664  1.2857
12871TIP3   OH260103   6.234   1.363  15.373 -0.2342 -0.2020 -0.3780
12871TIP3    H160104   6.303   1.336  15.434 -0.4330  0.0616 -0.0420
12871TIP3    H260105   6.277   1.360  15.287 -0.0937 -1.0551 -0.2880
12872TIP3   OH260106   5.001   1.489   3.659 -0.5979  0.2807 -0.3467
12872TIP3    H160107   4.951   1.408   3.670 -2.2235  1.2772 -0.1395
12872TIP3    H260108   5.014   1.497   3.565  1.0649 -1.0775 -0.2553
12873TIP3   OH260109   4.913   0.707   6.002 -0.1016 -0.3499 -0.1984
12873TIP3    H160110   4.877   0.621   5.984  2.8609 -2.0108  1.4099
12873TIP3    H260111   4.946   0.738   5.917 -0.8074 -0.9660 -0.6990
12874TIP3   OH260112   0.718   5.350  12.940 -0.2477  0.1002 -0.1572
12874TIP3    H160113   0.737   5.338  12.847  0.9719  2.4600 -0.2613
12874TIP3    H260114   0.622   5.349  12.945 -0.3448  0.4661 -1.5431
12875TIP3   OH260115   4.127   5.253   3.601 -0.0428  0.3244  0.0819
12875TIP3    H160116   4.123   5.272   3.695 -0.4733  1.4398 -0.1481
12875TIP3    H260117   4.220   5.258   3.580  0.2595 -1.8610  0.8167
12876TIP3   OH260118   4.450   0.083  16.343  0.3852  0.1112  0.4104
12876TIP3    H160119   4.528   0.038  16.375 -1.2838 -2.1288  1.5366
12876TIP3    H260120   4.397   0.098  16.421 -1.7836 -1.4462 -0.6873
12877TIP3   OH260121   1.777   4.520  12.619  0.1794 -0.1428  0.2122
12877TIP3    H160122   1.758   4.554  12.706  0.1683  0.1784  0.0873
12877TIP3    H260123   1.816   4.594  12.572  1.3495 -0.6762  0.3272
12878TIP3   OH260124   5.650   1.233   6.214 -0.5778  0.3315 -0.1724
12878TIP3    H160125   5.555   1.243   6.202 -0.4735 -0.1663 -1.5180
12878TIP3    H260126   5.682   1.203   6.129  0.9850  1.7665 -0.1288
12879TIP3   OH260127   5.020   6.328   2.453 -0.1993 -0.9607 -0.3157
12879TIP3    H160128   5.062   6.410   2.428 -1.0418 -0.9883 -1.8835
12879TIP3    H260129   5.079   6.259   2.422 -0.7487 -0.9799 -1.3262
12880TIP3   OH260130   0.838   2.913   3.169  0.0184 -0.0295 -0.0494
12880TIP3    H160131   0.820   2.994   3.216  1.4138  0.6746 -0.7081
12880TIP3    H260132   0.906   2.869   3.219 -1.7738 -1.5569  1.1365
12881TIP3   OH260133   6.769   0.894  16.545  0.4089 -0.1339 -1.0707
12881TIP3    H160134   6.835   0.829  16.521  0.1835 -0.1896 -1.5609
12881TIP3    H260135   6.720   0.854  16.617 -0.8244 -1.2291 -2.4802
12882TIP3   OH260136   2.493   4.548  16.471  0.1130  0.6492  0.2986
12882TIP3    H160137   2.551   4.599  16.415  1.5977 -1.2923  0.0489
12882TIP3    H260138   2.549   4.516  16.542 -0.2183 -2.5937 -0.8144
12883TIP3   OH260139   1.800   1.211  14.319 -0.1102 -0.0383 -0.2474
12883TIP3    H160140   1.778   1.159  14.241 -1.8593  2.4158 -1.4509
12883TIP3    H260141   1.881   1.255  14.297  1.4639 -2.2830  0.8358
12884TIP3   OH260142   3.627   1.398  16.864  0.3656 -0.2137 -0.5496
12884TIP3    H160143   3.670   1.325  16.819  0.4965 -0.6578  0.2987
12884TIP3    H260144   3.628   1.374  16.956  1.3482  1.3438 -0.1449
12885TIP3   OH260145   5.351   1.681  12.042  0.1366 -0.1717  0.2033
12885TIP3    H160146   5.319   1.597  12.075  2.4930 -1.7044 -1.2875
12885TIP3    H260147   5.372   1.732  12.121 -0.7221 -1.1965  1.1055
12886TIP3   OH260148   2.246   5.126  16.589 -0.0119 -0.5378 -0.3315
12886TIP3    H160149   2.255   5.220  16.605  0.5085 -0.2884 -1.9463
12886TIP3    H260150   2.161   5.103  16.626 -0.1294  0.5672  0.0940
12887TIP3   OH260151   2.190   2.044  15.061  0.1282 -0.1364 -0.8309
12887TIP3    H160152   2.280   2.047  15.030 -0.0979  1.4956 -1.3649
12887TIP3    H260153   2.176   2.128  15.105 -0.8098 -0.7964  0.1781
12888TIP3   OH260154   0.144   5.692   3.497 -0.1534 -0.4353 -0.0553
12888TIP3    H160155   0.155   5.736   3.413 -0.7114 -1.3787 -0.6443
12888TIP3    H260156   0.231   5.658   3.518  0.1785  0.5590  0.1881
12889TIP3   OH260157   5.248   6.471   3.574  0.1550 -0.4389 -0.0881
12889TIP3    H160158   5.230   6.404   3.641 -0.8817 -0.0646  0.0145
12889TIP3    H260159   5.343   6.468   3.563  0.3630 -0.3742  1.5402
12890TIP3   OH260160   6.335   1.660   4.714 -0.0164 -0.4353  0.2314
12890TIP3    H160161   6.381   1.649   4.798  0.5379 -0.7217 -0.1122
12890TIP3    H260162   6.245   1.631   4.732 -0.1920  0.5344  1.0246
12891TIP3   OH260163   5.030   2.323   0.100 -0.3267 -0.0509 -0.1870
12891TIP3    H160164   4.998   2.284   0.018 -0.7499 -1.6902  0.7411
12891TIP3    H260165   5.053   2.248   0.155 -1.6183  0.9758  1.8270
12892TIP3   OH260166   5.914   5.824   5.834 -0.4626 -0.2517 -0.2061
12892TIP3    H160167   5.845   5.890   5.827 -0.0403  0.0908 -1.3989
12892TIP3    H260168   5.888   5.769   5.907 -1.4335  0.5312  0.0495
12893TIP3   OH260169   1.205   0.113   5.339  0.3899 -0.5270 -0.1629
12893TIP3    H160170   1.193   0.093   5.246 -2.3049  1.2758 -0.2661
12893TIP3    H260171   1.220   0.208   5.342  0.0090 -0.4989  1.2757
12894TIP3   OH260172   2.073   4.500  17.200 -0.6238  0.0219  0.2103
12894TIP3    H160173   1.978   4.496  17.192 -0.4518 -2.2587 -1.2829
12894TIP3    H260174   2.103   4.526  17.113  0.1551 -0.5819  0.2912
12895TIP3   OH260175   3.831   5.974   1.336  0.1820 -0.6952 -0.5166
12895TIP3    H160176   3.825   5.896   1.392 -0.6039  0.3582  0.8976
12895TIP3    H260177   3.907   6.022   1.368  0.4925 -0.7279 -1.1968
12896TIP3   OH260178   2.298   0.899   3.967  0.0888  0.5056  0.4074
12896TIP3    H160179   2.363   0.961   4.002 -0.3594  1.7598 -0.8998
12896TIP3    H260180   2.223   0.907   4.025  0.2118  0.8364  0.5232
12897TIP3   OH260181   4.113   3.012  13.729 -0.1611  0.8258  0.1400
12897TIP3    H160182   4.110   2.936  13.788  0.2632  1.0124  0.4027
12897TIP3    H260183   4.134   3.086  13.786 -0.1457  1.0704 -0.1856
12898TIP3   OH260184   5.244   6.816   0.172  0.3904  0.3504  0.1056
12898TIP3    H160185   5.164   6.842   0.126 -1.5457 -0.6487  2.7651
12898TIP3    H260186   5.313   6.870   0.133 -1.8992  2.6420 -0.9533
12899TIP3   OH260187   2.704   1.965  11.399  0.3756 -0.1280 -0.0076
12899TIP3    H160188   2.783   1.996  11.442 -0.5699  0.1366  1.5860
12899TIP3    H260189   2.693   2.022  11.324  1.0807  0.5598  0.4072
12900TIP3   OH260190   2.109   4.612  15.496 -0.0156  0.4352 -0.3757
12900TIP3    H160191   2.153   4.579  15.418 -1.1793  1.7593 -1.6252
12900TIP3    H260192   2.026   4.563  15.499  1.5937 -2.3180  2.1712
12901TIP3   OH260193   0.044   4.892   5.552 -0.2447 -0.2058  0.2346
12901TIP3    H160194   0.124   4.909   5.503  1.3834 -1.9964  2.1526
12901TIP3    H260195   0.018   4.977   5.587  0.0443  0.6176 -1.5186
12902TIP3   OH260196   2.360   1.925   0.220  0.5460 -0.3077 -0.2769
12902TIP3    H160197   2.349   1.955   0.130  3.6639 -1.7536 -1.2047
12902TIP3    H260198   2.417   1.991   0.260  2.4231 -1.6854 -0.5729
12903TIP3   OH260199   1.636   5.708   1.650  0.4358 -0.2472 -0.2527
12903TIP3    H160200   1.617   5.637   1.711 -1.1002  0.9325  0.7015
12903TIP3    H260201   1.732   5.713   1.647  0.5807  0.4812  3.1071
12904TIP3   OH260202   3.468   0.041   3.009  0.3372 -0.1430  0.7758
12904TIP3    H160203   3.379   0.058   3.037  0.9025  0.5304  2.2148
12904TIP3    H260204   3.491   0.114   2.951  0.1573 -0.0095  0.8757
12905TIP3   OH260205   1.341   6.368  14.931 -0.1175  0.5253  0.3890
12905TIP3    H160206   1.261   6.396  14.887 -0.7580 -1.1650  0.4297
12905TIP3    H260207   1.397   6.337  14.860  0.6039  1.8959  0.3398
12906TIP3   OH260208   6.497   5.432  12.075  0.0171  0.1558  0.3048
12906TIP3    H160209   6.556   5.376  12.126  0.9656  0.2236 -0.7095
12906TIP3    H260210   6.414   5.384  12.074  0.6347 -0.9185  0.0104
12907TIP3   OH260211   4.377   3.816  12.912 -0.3253 -0.0944  0.1553
12907TIP3    H160212   4.385   3.739  12.969 -2.3940  0.0830  0.7209
12907TIP3    H260213   4.310   3.792  12.848 -1.0678  1.2655  0.4038
12908TIP3   OH260214   4.273   2.011  14.920 -0.3967  0.0965 -0.1868
12908TIP3    H160215   4.316   1.926  14.923 -1.0752 -0.2824 -0.9877
12908TIP3    H260216   4.256   2.026  14.827  0.3501  1.4264 -0.1232
12909TIP3   OH260217   4.505   6.173   4.856  0.2256 -0.9002  0.0208
12909TIP3    H160218   4.495   6.238   4.786  0.2010 -0.5033  0.3892
12909TIP3    H260219   4.565   6.215   4.918 -1.7310 -0.2121  1.4863
12910TIP3   OH260220   4.410   0.256   1.135 -0.3862  0.3156 -0.3458
12910TIP3    H160221   4.373   0.323   1.191  1.0934  1.0237 -0.1968
12910TIP3    H260222   4.448   0.192   1.195  2.2364  1.6613 -0.4948
12911TIP3   OH260223   3.368   6.748  12.801 -0.0588 -0.5206  0.3848
12911TIP3    H160224   3.413   6.822  12.760  0.3639 -1.5031 -0.9768
12911TIP3    H260225   3.431   6.713  12.864  1.3919 -2.2497 -1.9250
12912TIP3   OH260226   5.856   5.966   2.321 -0.3135 -0.1836  0.1028
12912TIP3    H160227   5.864   5.897   2.255  1.9090  0.3822 -0.2405
12912TIP3    H260228   5.917   5.941   2.390  0.6618  1.5364 -0.1137
12913TIP3   OH260229   0.017   1.129  14.059  0.1243 -0.0420 -0.0977
12913TIP3    H160230   0.003   1.041  14.025 -0.5197  0.0895 -0.1829
12913TIP3    H260231  -0.068   1.155  14.094  0.2157  0.6763 -0.3914
12914TIP3   OH260232   2.597   1.210  12.050  1.0391 -0.3614 -0.4659
12914TIP3    H160233   2.580   1.169  12.135 -1.0615 -2.2387 -1.7764
12914TIP3    H260234   2.519   1.264  12.034  0.9538 -0.8479 -1.6887
12915TIP3   OH260235   4.919   6.533   5.855 -0.4625  0.5282 -0.3892
12915TIP3    H160236   4.920   6.461   5.917 -0.8665  1.3543  0.5908
12915TIP3    H260237   4.935   6.611   5.908 -2.9363  1.4940 -0.9730
12916TIP3   OH260238   4.020   5.129  14.383  0.3576 -0.2244  0.2507
12916TIP3    H160239   3.929   5.158  14.372  0.2170 -1.4097 -1.9637
12916TIP3    H260240   4.021   5.086  14.469 -0.9914  0.4378  0.6192
12917TIP3   OH260241   1.800   5.713   2.028 -0.5837 -0.1891  0.0740
12917TIP3    H160242   1.861   5.642   2.049 -0.3857  0.3063  1.2541
12917TIP3    H260243   1.810   5.774   2.102 -0.4433  1.2529 -1.1260
12918TIP3   OH260244   4.346   2.878  11.975 -0.3056  0.1659  0.0556
12918TIP3    H160245   4.325   2.954  12.029 -0.2750 -1.0290  1.7630
12918TIP3    H260246   4.422   2.906  11.923  2.0084  0.1246  3.2884
12919TIP3   OH260247   2.045   3.269   6.491 -0.2953 -0.1648  0.0610
12919TIP3    H160248   2.139   3.262   6.509  0.5898  0.7577 -3.5742
12919TIP3    H260249   2.035   3.357   6.454 -2.6349 -0.1691  0.6117
12920TIP3   OH260250   6.301   6.667  11.688  0.0182  0.2962 -0.0253
12920TIP3    H160251   6.276   6.691  11.599  1.0541  1.0603 -0.1208
12920TIP3    H260252   6.386   6.624  11.679 -0.6047 -1.0418  0.4328
12921TIP3   OH260253   0.743   3.382  12.976  0.3247  0.0583  0.4875
12921TIP3    H160254   0.672   3.318  12.968  2.2913 -2.2073  0.8331
12921TIP3    H260255   0.730   3.419  13.064 -0.4933 -0.2344  0.5023
12922TIP3   OH260256   1.934   1.290   6.013 -0.5926 -0.6215 -0.4340
12922TIP3    H160257   1.996   1.217   6.019  0.3505  0.2223  0.2059
12922TIP3    H260258   1.986   1.364   5.984 -1.2962  0.0908  0.0921
12923TIP3   OH260259   6.428   3.116   5.463 -0.6635  0.2701  0.5944
12923TIP3    H160260   6.443   3.210   5.477 -0.2319  0.1777  0.7556
12923TIP3    H260261   6.338   3.102   5.492 -0.1677  0.3006  2.2214
12924TIP3   OH260262   0.349   4.332  14.676  0.9946  0.2702 -0.3012
12924TIP3    H160263   0.315   4.283  14.601 -2.2079  1.6102  0.2428
12924TIP3    H260264   0.361   4.421  14.644  1.1212  0.4997  0.3697
12925TIP3   OH260265   4.998   5.668  13.766  0.5448  0.2532 -0.6907
12925TIP3    H160266   5.025   5.582  13.734  2.1066  0.3905  0.2375
12925TIP3    H260267   5.012   5.665  13.860  0.2393  1.4032 -0.5925
12926TIP3   OH260268   3.038   6.299  15.576  0.3330 -0.0791  0.1475
12926TIP3    H160269   3.032   6.239  15.650 -1.1847  0.1983  0.2661
12926TIP3    H260270   2.967   6.273  15.518  1.0831  0.1449 -0.8940
12927TIP3   OH260271   6.216   4.701   5.028 -0.3773 -0.5636  0.2692
12927TIP3    H160272   6.218   4.792   4.997  1.0299 -1.9293 -3.9333
12927TIP3    H260273   6.127   4.671   5.006  0.1961 -1.1365 -1.3275
12928TIP3   OH260274   1.713   2.650  15.031  0.1973 -0.2307 -0.5522
12928TIP3    H160275   1.724   2.742  15.007 -1.1262 -0.6801 -3.1174
12928TIP3    H260276   1.677   2.609  14.952  1.4037 -3.0893  0.3143
12929TIP3   OH260277   1.590   6.122   4.133 -0.0440  0.6710 -0.3615
12929TIP3    H160278   1.531   6.177   4.080 -2.3760  0.2625  1.7182
12929TIP3    H260279   1.662   6.180   4.155 -0.3760  1.6421 -1.7285
12930TIP3   OH260280   6.571   3.102   0.312  0.0370 -0.0173  0.1531
12930TIP3    H160281   6.652   3.073   0.354  0.3100 -1.6878 -1.4491
12930TIP3    H260282   6.503   3.046   0.350  0.0444 -0.4201 -0.4148
12931TIP3   OH260283   1.840   1.496  13.850 -0.0963  0.4065 -0.1444
12931TIP3    H160284   1.807   1.519  13.763  2.5004  0.4772 -1.1504
12931TIP3    H260285   1.872   1.578  13.886  1.7318 -0.1389 -0.4444
12932TIP3   OH260286   6.733   5.974  14.530 -0.1754  0.2391  0.5536
12932TIP3    H160287   6.793   6.049  14.536 -0.9492  0.9997 -0.9178
12932TIP3    H260288   6.692   5.970  14.617  0.6973  0.8293  1.0029
12933TIP3   OH260289   1.894   2.623   0.109  0.2331 -0.5102  0.0851
12933TIP3    H160290   1.919   2.704   0.064 -0.3644 -0.8302 -0.8423
12933TIP3    H260291   1.876   2.650   0.199  0.1233  0.3812 -0.1984
12934TIP3   OH260292   6.004   6.698   0.839  0.3539  0.0841 -0.3182
12934TIP3    H160293   6.004   6.606   0.813 -0.1593  0.0661 -0.2537
12934TIP3    H260294   6.097   6.724   0.837  0.5547 -0.5865  0.1956
12935TIP3   OH260295   1.030   5.954   3.504  0.2284  0.1406 -0.5982
12935TIP3    H160296   1.063   5.926   3.419 -2.5255 -0.1088 -1.6101
12935TIP3    H260297   1.071   6.039   3.519  0.3912  0.3743 -2.3621
12936TIP3   OH260298   0.368   4.411  12.363 -0.2997  0.8299 -0.0012
12936TIP3    H160299   0.296   4.368  12.410  0.0749  0.1457 -0.0455
12936TIP3    H260300   0.447   4.385  12.411 -0.0497  1.2997 -0.1558
12937TIP3   OH260301   2.260   0.672   1.862  0.6248 -0.2587 -0.7573
12937TIP3    H160302   2.185   0.614   1.874 -0.2791  1.1208  0.3516
12937TIP3    H260303   2.248   0.741   1.927  2.3685  0.4818 -1.1910
12938TIP3   OH260304   6.179   0.421   2.057 -0.3014  0.0252  0.0984
12938TIP3    H160305   6.249   0.407   1.992 -0.8189  0.8816 -0.6589
12938TIP3    H260306   6.224   0.414   2.142  0.1908 -2.1221 -0.3231
12939TIP3   OH260307   1.593   4.580   4.474 -0.3229 -0.4862  0.1500
12939TIP3    H160308   1.520   4.518   4.482  0.7639 -1.7522  0.5832
12939TIP3    H260309   1.602   4.594   4.380 -1.3725 -0.0077  0.1138
12940TIP3   OH260310   6.377   0.763   6.332 -0.3316 -0.1122 -0.5858
12940TIP3    H160311   6.428   0.685   6.351 -0.8584  0.0102  1.3751
12940TIP3    H260312   6.313   0.768   6.402 -2.4783  0.2445 -2.5133
12941TIP3   OH260313   1.094   1.727  13.500  0.8247 -0.0131  0.2435
12941TIP3    H160314   1.057   1.807  13.461  0.2898 -1.1201 -1.5752
12941TIP3    H260315   1.018   1.669  13.510  0.8988  0.3555  3.2600
12942TIP3   OH260316   2.250   0.074  14.807 -0.1704  0.1628  0.2090
12942TIP3    H160317   2.214   0.096  14.721 -0.4519  0.3182  0.3663
12942TIP3    H260318   2.223   0.146  14.864  0.5660  0.3805  0.2834
12943TIP3   OH260319   1.271   6.217   3.149 -0.2913 -0.1914  0.2858
12943TIP3    H160320   1.308   6.136   3.182  0.1481 -0.6414 -1.2753
12943TIP3    H260321   1.281   6.279   3.221 -0.5297 -1.4800  1.4538
12944TIP3   OH260322   1.057   0.313   1.798 -0.3900  0.2396 -0.1813
12944TIP3    H160323   1.143   0.344   1.771 -0.6999  1.2043 -0.0895
12944TIP3    H260324   1.055   0.222   1.771 -0.2624  0.8678 -2.3803
12945TIP3   OH260325   3.947   4.894  15.710 -0.1284 -0.1883 -0.0068
12945TIP3    H160326   3.955   4.800  15.696  0.5117 -0.2677  0.8590
12945TIP3    H260327   3.853   4.910  15.715 -0.2265 -0.8306  0.1610
12946TIP3   OH260328   1.312   1.886  14.581 -0.1497 -0.0108  0.0842
12946TIP3    H160329   1.403   1.909  14.599 -0.2924 -0.7131  1.8404
12946TIP3    H260330   1.317   1.804  14.532  0.1691 -0.4779  0.8781
12947TIP3   OH260331   0.571   0.158  14.590  0.1254 -0.2821  0.0492
12947TIP3    H160332   0.540   0.095  14.654  0.8439  0.6164  1.2954
12947TIP3    H260333   0.499   0.221  14.582  0.0348 -0.3955 -0.0325
12948TIP3   OH260334   2.822   2.333  13.785  0.1427 -0.6736  0.3600
12948TIP3    H160335   2.817   2.329  13.880 -0.4393  0.7838  0.4142
12948TIP3    H260336   2.833   2.243  13.757 -2.3247 -1.4228  1.6695
12949TIP3   OH260337   1.430   2.635   0.458  0.4627 -0.0974 -0.4391
12949TIP3    H160338   1.477   2.665   0.380 -0.9500 -1.3100 -1.8003
12949TIP3    H260339   1.343   2.674   0.450 -0.3416 -1.8513 -0.5461
12950TIP3   OH260340   0.599   0.363   3.937 -0.2072  0.1358 -0.1932
12950TIP3    H160341   0.577   0.435   3.996  2.1833  1.2265 -0.5542
12950TIP3    H260342   0.562   0.285   3.979  0.7609  0.9988  2.3826
12951TIP3   OH260343   5.010   2.337   2.206  0.2137  0.0522 -0.1951
12951TIP3    H160344   4.956   2.268   2.167 -0.3320 -0.5059  1.5122
12951TIP3    H260345   5.087   2.292   2.239  0.4474  0.4462 -0.2069
12952TIP3   OH260346   3.861   1.252   0.820  0.1933  0.1848  0.4586
12952TIP3    H160347   3.849   1.205   0.737 -1.5919  1.3279  0.0361
12952TIP3    H260348   3.939   1.213   0.859  0.4779 -1.0520 -1.2966
12953TIP3   OH260349   6.683   6.404  15.652  0.0064  0.8882  0.0062
12953TIP3    H160350   6.711   6.358  15.573 -0.2753  1.8601 -0.6644
12953TIP3    H260351   6.593   6.377  15.665 -0.6125  2.3051 -1.1816
12954TIP3   OH260352   6.570   6.788  14.398  0.0106  0.9032 -0.0080
12954TIP3    H160353   6.579   6.877  14.364 -0.4250  0.7696 -0.4785
12954TIP3    H260354   6.523   6.740  14.330  3.1751 -0.5929 -1.2273
12955TIP3   OH260355   6.597   6.656   0.460  0.4555 -0.6046  0.2368
12955TIP3    H160356   6.507   6.688   0.449  0.9183  0.9328  0.6605
12955TIP3    H260357   6.644   6.693   0.385  0.2026 -3.6006 -1.4463
12956TIP3   OH260358   0.174   3.458   4.800  0.6478  0.2008 -0.2906
12956TIP3    H160359   0.266   3.441   4.781  0.1138 -1.5564 -1.3822
12956TIP3    H260360   0.134   3.371   4.803 -0.5522  0.8090  2.4178
12957TIP3   OH260361   5.344   0.029   2.742  0.0496  0.1869  0.3675
12957TIP3    H160362   5.375  -0.061   2.757 -1.6309 -0.6002 -0.7402
12957TIP3    H260363   5.335   0.066   2.830  1.7429 -0.3755  0.8006
12958TIP3   OH260364   1.770   4.864  13.612 -0.1667  0.0751 -0.2978
12958TIP3    H160365   1.713   4.935  13.584  1.5101  1.4401 -0.3350
12958TIP3    H260366   1.858   4.900  13.605  0.6799 -1.8316  0.2142
12959TIP3   OH260367   6.543   5.663  11.238  0.3059  0.3589  0.9640
12959TIP3    H160368   6.630   5.653  11.200  0.8860 -1.7824  2.7443
12959TIP3    H260369   6.512   5.749  11.206  2.0062  0.0404 -1.6888
12960TIP3   OH260370   5.075   1.542  14.827 -0.4956  0.9315  0.0691
12960TIP3    H160371   5.036   1.578  14.748 -1.3445  0.9681  0.5025
12960TIP3    H260372   5.087   1.449  14.807 -3.0842  0.4062  0.8083
12961TIP3   OH260373   1.434   1.182   4.212  0.0028 -0.4548  0.3068
12961TIP3    H160374   1.496   1.235   4.262  0.0692 -0.2534  0.0164
12961TIP3    H260375   1.349   1.222   4.228  0.3052  1.0668 -1.5882
12962TIP3   OH260376   2.780   0.867  14.506 -0.0694  0.2698  0.1327
12962TIP3    H160377   2.839   0.908  14.443 -0.6445 -0.0407 -0.6095
12962TIP3    H260378   2.692   0.880  14.469 -0.2800 -1.4178 -0.0015
12963TIP3   OH260379   1.064   5.913  13.574 -0.1758 -0.6193 -0.0345
12963TIP3    H160380   0.972   5.939  13.579 -0.1208 -0.5177  0.4408
12963TIP3    H260381   1.063   5.818  13.586 -0.2149 -0.6176 -0.0231
12964TIP3   OH260382   2.970   2.142   5.308 -0.9147 -0.3936  0.2969
12964TIP3    H160383   2.980   2.053   5.343 -1.2459 -0.8729 -0.8193
12964TIP3    H260384   3.048   2.156   5.255 -1.7966 -0.7790 -1.1403
12965TIP3   OH260385   5.335   1.043   4.068  0.5116 -0.7906  0.3461
12965TIP3    H160386   5.351   1.079   4.156 -1.1366 -1.9501  1.1405
12965TIP3    H260387   5.376   0.957   4.069  2.1561 -0.0420 -0.6837
12966TIP3   OH260388   2.639   0.336  12.672  0.2351  0.3673 -0.2398
12966TIP3    H160389   2.570   0.270  12.674  0.0983  0.4286 -2.1870
12966TIP3    H260390   2.596   0.416  12.641  1.1755  0.3833 -1.5634
12967TIP3   OH260391   5.703   0.436   4.780  0.1154 -0.3626  0.3058
12967TIP3    H160392   5.690   0.531   4.770  0.4658 -0.5457 -2.2347
12967TIP3    H260393   5.637   0.397   4.722  0.8747 -1.6263  0.2873
12968TIP3   OH260394   4.099   0.814  16.923 -0.1929  0.3434  0.1386
12968TIP3    H160395   4.126   0.740  16.868  0.2008 -0.2653  1.1219
12968TIP3    H260396   4.149   0.802  17.004 -0.7132  1.2574  0.6008
12969TIP3   OH260397   5.896   2.078   2.786  0.0244 -0.2119  0.0268
12969TIP3    H160398   5.946   2.051   2.710 -0.7079 -0.2655 -0.4411
12969TIP3    H260399   5.960   2.084   2.857  0.2030 -3.4992  0.2295
12970TIP3   OH260400   1.907   3.178   4.078  0.6835  0.5402  0.0979
12970TIP3    H160401   1.836   3.191   4.014 -0.6224 -0.5473  1.2900
12970TIP3    H260402   1.987   3.186   4.026 -0.3194  1.3493 -1.3654
12971TIP3   OH260403   0.265   5.110  16.077  0.0767  0.0559  0.2066
12971TIP3    H160404   0.322   5.054  16.130 -1.7415  0.5396  2.7885
12971TIP3    H260405   0.222   5.050  16.017  0.2923 -0.9224  1.0061
12972TIP3   OH260406   6.181   3.098   5.618 -0.7954 -0.3126  0.4532
12972TIP3    H160407   6.128   3.165   5.661  1.4801  0.7028  1.7679
12972TIP3    H260408   6.149   3.015   5.653 -1.7957  0.2648  0.9056
12973TIP3   OH260409   0.716   5.266   4.504  0.3635 -0.1803 -0.3322
12973TIP3    H160410   0.702   5.182   4.460 -0.4328  0.0391 -0.4978
12973TIP3    H260411   0.647   5.271   4.569 -0.7897  1.2335 -1.6261
12974TIP3   OH260412   6.436   5.111  15.111  0.7806 -0.5916 -0.0695
12974TIP3    H160413   6.473   5.047  15.171  2.7449 -1.2783 -1.9566
12974TIP3    H260414   6.427   5.191  15.164 -0.1023 -1.9236  1.8399
12975TIP3   OH260415   2.936   1.390   1.881 -0.2951 -0.0180 -0.2548
12975TIP3    H160416   2.939   1.485   1.869  0.2594  0.1609  1.2274
12975TIP3    H260417   2.887   1.378   1.963  1.9160 -0.8922  0.9611
12976TIP3   OH260418   2.448   5.751  13.773 -0.5274 -0.0129  0.0401
12976TIP3    H160419   2.499   5.682  13.731  0.3428  1.0618 -0.7032
12976TIP3    H260420   2.468   5.830  13.723 -1.5317  0.7795  0.8543
12977TIP3   OH260421   3.514   3.246  15.071 -0.4206  0.2368  0.9669
12977TIP3    H160422   3.542   3.224  14.982  0.7420 -0.4275  1.5007
12977TIP3    H260423   3.456   3.322  15.059 -0.6085 -0.1078 -0.3928
12978TIP3   OH260424   5.631   3.326  13.284 -0.4529  0.2859 -0.0252
12978TIP3    H160425   5.600   3.283  13.364 -1.0785 -0.4632 -0.6689
12978TIP3    H260426   5.614   3.264  13.214 -1.9386  1.8071 -1.0654
12979TIP3   OH260427   2.632   4.288  12.057  0.3680 -0.1051  1.2991
12979TIP3    H160428   2.573   4.308  11.984  0.0154  2.9740  2.3632
12979TIP3    H260429   2.589   4.215  12.103  0.3653 -1.7712 -1.2490
12980TIP3   OH260430   4.237   2.647  14.383 -0.0164 -0.1032  0.0317
12980TIP3    H160431   4.243   2.553  14.363 -0.1590 -0.7195  2.6537
12980TIP3    H260432   4.146   2.660  14.410  0.4657  0.3908  1.4743
12981TIP3   OH260433   0.054   2.865  12.343 -0.4305 -0.6192 -0.0733
12981TIP3    H160434  -0.010   2.856  12.272  0.6390 -0.8361 -1.0390
12981TIP3    H260435   0.136   2.831  12.305  0.8404  1.9192  0.3040
12982TIP3   OH260436   5.145   4.850  15.302 -0.2368 -0.0797  0.2108
12982TIP3    H160437   5.231   4.859  15.262 -0.6153  0.8946 -0.4048
12982TIP3    H260438   5.158   4.877  15.393 -0.0656  0.9017 -0.0962
12983TIP3   OH260439   0.790   3.715   6.396 -0.3038 -0.9723 -0.0666
12983TIP3    H160440   0.718   3.655   6.415 -0.3924 -0.7189  0.4093
12983TIP3    H260441   0.777   3.788   6.456  1.5571 -1.9012  1.5736
12984TIP3   OH260442   0.675   1.334   1.328  0.0597  0.3217  0.0025
12984TIP3    H160443   0.616   1.259   1.334  0.0104  0.3824  0.2804
12984TIP3    H260444   0.696   1.340   1.235 -0.3664  0.2955 -0.1000
12985TIP3   OH260445   1.527   2.967   5.783  0.1107  0.5672 -1.0117
12985TIP3    H160446   1.484   2.944   5.701 -0.7372  1.1314 -0.7391
12985TIP3    H260447   1.463   3.022   5.829  0.3241 -0.2470  0.2881
12986TIP3   OH260448   6.296   4.857   2.833  0.6781 -0.0150 -0.3303
12986TIP3    H160449   6.305   4.805   2.913  0.4181  2.5738  1.4747
12986TIP3    H260450   6.323   4.945   2.860  0.9026  0.8245 -3.2123
12987TIP3   OH260451   3.564   0.748   0.657  0.0308  0.5345 -0.2134
12987TIP3    H160452   3.616   0.828   0.669 -1.0355  1.1630  0.3303
12987TIP3    H260453   3.507   0.746   0.733 -0.2170 -0.5560 -0.4268
12988TIP3   OH260454   5.494   2.071   2.271 -0.0676 -0.5245 -0.1492
12988TIP3    H160455   5.538   2.025   2.199 -1.4812  1.1468 -2.1082
12988TIP3    H260456   5.540   2.155   2.278 -0.3378 -0.4233  0.4966
12989TIP3   OH260457   1.434   3.520   5.563  0.0787  0.5541 -0.1767
12989TIP3    H160458   1.357   3.554   5.610 -0.9323  0.6982 -1.9120
12989TIP3    H260459   1.490   3.596   5.550  0.4189  0.4973  0.8482
12990TIP3   OH260460   5.234   6.755   3.623  0.0197 -0.2184  0.2978
12990TIP3    H160461   5.208   6.663   3.616  0.0235 -0.2957  1.2654
12990TIP3    H260462   5.326   6.751   3.650 -0.1646  0.0670  0.9738
12991TIP3   OH260463   4.831   0.090  14.944 -0.1584  0.4451 -0.2739
12991TIP3    H160464   4.886   0.140  15.004 -0.4688 -0.4689  0.7822
12991TIP3    H260465   4.878   0.093  14.861  0.8549  0.7307  0.3027
12992TIP3   OH260466   1.667   0.603  15.272  0.8279 -0.6992 -0.6526
12992TIP3    H160467   1.640   0.653  15.349 -0.0741  0.9644 -2.0151
12992TIP3    H260468   1.704   0.668  15.213  0.7271 -1.8138 -1.9730
12993TIP3   OH260469   2.146   4.137   2.763 -0.9643  0.2162  0.3938
12993TIP3    H160470   2.107   4.050   2.774  0.3699 -0.3512  0.7255
12993TIP3    H260471   2.228   4.121   2.717 -0.5303  1.2696  0.7878
12994TIP3   OH260472   2.113   5.033  10.747 -1.1754  0.2404 -0.6176
12994TIP3    H160473   2.174   4.982  10.692 -1.2865  0.3264 -0.8184
12994TIP3    H260474   2.026   5.001  10.722 -1.1905 -0.2115  0.0017
12995TIP3   OH260475   4.191   4.771   3.479 -0.5383  0.7598  0.2373
12995TIP3    H160476   4.193   4.788   3.385  0.3416 -1.7440 -0.2373
12995TIP3    H260477   4.263   4.824   3.514  2.4329 -2.0510 -1.2673
12996TIP3   OH260478   2.394   4.473   3.724 -0.1553  0.1678 -0.1308
12996TIP3    H160479   2.335   4.419   3.671 -0.6318  1.6078 -1.0935
12996TIP3    H260480   2.466   4.495   3.665 -0.0640  0.7609  0.2056
12997TIP3   OH260481   6.235   1.017  13.637 -0.3468 -0.2639  0.0596
12997TIP3    H160482   6.164   1.036  13.575 -1.0696  0.4762  1.0945
12997TIP3    H260483   6.305   1.076  13.612  0.4301 -1.9048 -1.8036
12998TIP3   OH260484   1.816   2.188   0.796  0.2576 -0.1110  0.1036
12998TIP3    H160485   1.745   2.252   0.788  0.8752  0.7876  1.5954
12998TIP3    H260486   1.771   2.103   0.800 -0.8478  0.5566  2.6243
12999TIP3   OH260487   2.234   2.468   0.760 -0.4408  0.2443  0.6603
12999TIP3    H160488   2.154   2.431   0.797 -0.7560  0.4292  0.1757
12999TIP3    H260489   2.265   2.401   0.699 -0.4275  0.3293  0.5736
13000TIP3   OH260490   1.361   4.861   1.556 -0.1013 -0.5205 -0.3156
13000TIP3    H160491   1.371   4.935   1.616  0.2525  1.2786 -2.5257
13000TIP3    H260492   1.441   4.810   1.569  0.1508  0.0482  0.4645
13001TIP3   OH260493   5.168   1.114  14.441 -0.0053  0.1930  0.3338
13001TIP3    H160494   5.140   1.084  14.355 -1.2586  1.7175  0.1783
13001TIP3    H260495   5.134   1.049  14.502  0.0485 -0.3764 -0.2467
13002TIP3   OH260496   6.754   5.057  12.875  0.0314 -0.1158 -0.3021
13002TIP3    H160497   6.732   5.085  12.964 -0.0130 -0.8500 -0.0775
13002TIP3    H260498   6.807   4.979  12.887  1.7592  0.9446 -0.8796
13003TIP3   OH260499   5.070   1.671   4.142  0.4441  0.2081  0.0352
13003TIP3    H160500   4.987   1.680   4.189  0.3029  1.5328 -0.4698
13003TIP3    H260501   5.093   1.759   4.115  1.2357 -0.3543 -1.1900
13004TIP3   OH260502   0.640   4.863   4.748 -0.5841 -0.0817 -0.2036
13004TIP3    H160503   0.710   4.856   4.813 -0.0877  0.6177 -0.6596
13004TIP3    H260504   0.685   4.882   4.666 -1.3126  0.6235 -0.4513
13005TIP3   OH260505   3.569   6.067  15.886  0.5897 -0.0387  0.4746
13005TIP3    H160506   3.485   6.083  15.929 -0.7078 -1.7911 -1.3044
13005TIP3    H260507   3.575   6.134  15.818  0.5031 -0.0726  0.4339
13006TIP3   OH260508   3.445   5.610   1.909 -0.5584 -0.1980 -0.4117
13006TIP3    H160509   3.401   5.694   1.901 -0.9234 -0.3347  0.1346
13006TIP3    H260510   3.423   5.564   1.827 -1.7764 -0.4240  0.0300
13007TIP3   OH260511   2.254   2.559  12.224 -0.4435 -0.0238 -0.7739
13007TIP3    H160512   2.256   2.521  12.312  2.5382 -1.2214 -1.3276
13007TIP3    H260513   2.262   2.484  12.165 -0.1777  0.9754 -2.0182
13008TIP3   OH260514   6.446   4.040  15.044  0.2523  0.6688 -0.1582
13008TIP3    H160515   6.403   3.960  15.075 -0.0766  0.4422 -1.2006
13008TIP3    H260516   6.412   4.109  15.102 -1.0273  0.3892 -0.5504
13009TIP3   OH260517   1.812   4.539  14.502 -0.2384 -0.4803  0.1837
13009TIP3    H160518   1.798   4.462  14.447  0.9466 -0.2879 -0.4083
13009TIP3    H260519   1.740   4.599  14.478  0.2804 -0.3827 -1.2085
13010TIP3   OH260520   4.425   5.268   1.506 -0.4701 -0.2674 -0.2501
13010TIP3    H160521   4.415   5.361   1.525  0.2789 -0.1325 -0.5094
13010TIP3    H260522   4.390   5.258   1.417  1.2656  0.1219 -0.9814
13011TIP3   OH260523   2.868   0.136  12.778 -0.3977 -0.3798 -0.3212
13011TIP3    H160524   2.800   0.193  12.740 -0.6963  0.6323  1.6911
13011TIP3    H260525   2.822   0.055  12.798 -0.3482 -0.7468 -1.6477
13012TIP3   OH260526   5.971   3.775  12.521  0.2080  0.1124 -0.4477
13012TIP3    H160527   5.988   3.806  12.432 -0.5721 -0.5569 -0.8348
13012TIP3    H260528   6.058   3.757  12.557  0.4968 -0.1834 -1.2872
13013TIP3   OH260529   0.167   3.794   1.698 -0.2745 -0.2922 -0.6372
13013TIP3    H160530   0.100   3.837   1.644  0.8254 -2.4603 -3.9073
13013TIP3    H260531   0.163   3.702   1.672  1.3339 -1.1647  1.9942
13014TIP3   OH260532   4.299   4.930  13.354 -0.3047 -0.1662  0.3411
13014TIP3    H160533   4.305   4.940  13.449  0.6477  0.0761  0.2611
13014TIP3    H260534   4.359   4.996  13.319  0.8392 -1.5352 -0.3716
13015TIP3   OH260535   2.662   4.308  16.518  0.3477 -0.0696 -0.2946
13015TIP3    H160536   2.633   4.226  16.478  0.3242 -0.7479  1.0892
13015TIP3    H260537   2.743   4.330  16.472 -0.2671 -0.2229 -1.4905
13016TIP3   OH260538   4.572   3.917   0.431 -0.1773 -0.3285 -0.4498
13016TIP3    H160539   4.606   3.831   0.455 -0.7903 -0.8442 -1.3701
13016TIP3    H260540   4.480   3.901   0.409 -0.7447  0.8556  0.9625
13017TIP3   OH260541   4.106   5.791  12.690 -0.3208 -0.3831  0.0665
13017TIP3    H160542   4.060   5.708  12.681  0.4914 -0.7143 -1.2374
13017TIP3    H260543   4.112   5.806  12.784 -0.1713 -1.9690  0.3177
13018TIP3   OH260544   0.824   6.065  16.559 -0.3532 -0.4095 -0.3463
13018TIP3    H160545   0.764   6.060  16.484  0.0789  1.3941 -0.8294
13018TIP3    H260546   0.832   5.974  16.588 -1.0765 -1.0581 -2.0557
13019TIP3   OH260547   3.834   5.460  15.155  0.2189 -0.2382  0.1489
13019TIP3    H160548   3.905   5.494  15.101 -0.7452  0.9967 -0.3491
13019TIP3    H260549   3.773   5.421  15.093 -0.1746 -0.1360  0.4658
13020TIP3   OH260550   3.809   3.330   0.264  0.6796  0.4877 -0.3418
13020TIP3    H160551   3.823   3.311   0.171  0.5624 -2.3503  0.1712
13020TIP3    H260552   3.897   3.352   0.296  1.0201 -0.1880 -0.7834
13021TIP3   OH260553   3.320   1.416   2.150  0.0373  0.7319 -0.4901
13021TIP3    H160554   3.254   1.398   2.218 -0.3504  1.0294 -0.7843
13021TIP3    H260555   3.273   1.407   2.068  1.2564 -2.7894 -0.8669
13022TIP3   OH260556   0.158   5.042  14.849  0.1862  0.2362  0.0002
13022TIP3    H160557   0.213   5.112  14.815  0.1039  0.7704  0.9316
13022TIP3    H260558   0.092   5.028  14.781  1.8728 -0.9151 -1.4447
13023TIP3   OH260559   5.301   0.058   5.302  0.0141 -0.5226 -0.1575
13023TIP3    H160560   5.327   0.035   5.392  1.3724 -0.8936 -0.6316
13023TIP3    H260561   5.257  -0.020   5.269 -1.8005  0.1107  0.6509
13024TIP3   OH260562   4.796   2.105  11.525 -0.8828  0.6864  0.0432
13024TIP3    H160563   4.780   2.024  11.573  0.7141  1.1060  1.3144
13024TIP3    H260564   4.759   2.174  11.579 -2.9660  0.7653 -1.4216
13025TIP3   OH260565   2.334   4.949  12.348 -0.1290 -0.2742  0.3513
13025TIP3    H160566   2.311   4.868  12.302 -0.8564 -0.5316  1.1694
13025TIP3    H260567   2.354   5.011  12.277 -1.2114 -0.6760 -0.3272
13026TIP3   OH260568   2.761   2.405   4.383  0.2163  0.0320  0.0893
13026TIP3    H160569   2.835   2.386   4.326 -0.4174 -0.9228 -0.4171
13026TIP3    H260570   2.697   2.337   4.364 -1.1422  1.3168 -0.0750
13027TIP3   OH260571   6.157   3.191  16.344  0.4972  0.1652  0.5483
13027TIP3    H160572   6.066   3.175  16.317  0.2755  0.0989  1.2983
13027TIP3    H260573   6.159   3.163  16.436  1.6473 -1.1965  0.1202
13028TIP3   OH260574   3.209   5.963  16.940  0.3461 -0.1897  0.2101
13028TIP3    H160575   3.248   6.042  16.903 -2.0266  0.5135 -0.9454
13028TIP3    H260576   3.227   5.967  17.034  1.5629  0.9354 -0.0732
13029TIP3   OH260577   1.065   0.131  16.669 -0.3919 -0.9314 -0.3973
13029TIP3    H160578   1.079   0.184  16.748 -1.8013 -0.8391 -0.1968
13029TIP3    H260579   1.053   0.042  16.702  0.0470 -1.0692 -0.5983
13030TIP3   OH260580   3.191   4.010   5.896 -0.0200 -0.5802  0.2951
13030TIP3    H160581   3.131   4.008   5.970  1.8410 -1.7223  1.8139
13030TIP3    H260582   3.250   4.084   5.914  1.4672 -1.8580  0.8408
13031TIP3   OH260583   5.286   3.398  16.611  0.2214 -0.4612  0.3719
13031TIP3    H160584   5.290   3.304  16.594 -0.5410 -0.4695  0.2168
13031TIP3    H260585   5.192   3.417  16.616  0.3953  0.0959  1.4830
13032TIP3   OH260586   0.111   1.706  13.410 -0.4928  0.0482  0.2326
13032TIP3    H160587   0.083   1.738  13.496  0.2146  0.8263  0.1774
13032TIP3    H260588   0.094   1.779  13.351  0.1089 -0.0669 -0.0862
13033TIP3   OH260589   1.253   3.171   1.788 -0.3350 -0.2184 -0.4286
13033TIP3    H160590   1.340   3.198   1.817 -0.4349 -1.6079  1.1918
13033TIP3    H260591   1.206   3.253   1.773  0.3077  0.5303  1.5733
13034TIP3   OH260592   6.575   5.096  13.259  0.1194 -0.5828  0.2705
13034TIP3    H160593   6.652   5.154  13.262 -1.8979  2.2575 -0.6318
13034TIP3    H260594   6.596   5.026  13.321  3.3901  0.1482  0.1077
13035TIP3   OH260595   6.225   2.968  11.234  0.2567  0.4180  0.3058
13035TIP3    H160596   6.138   2.930  11.226  0.4141 -0.0434  0.7861
13035TIP3    H260597   6.253   2.984  11.144 -1.4367  3.1076  0.1810
13036TIP3   OH260598   5.918   4.088  13.480  0.0439  0.1559  0.3744
13036TIP3    H160599   5.872   4.149  13.537  0.3132 -0.6325  1.4625
13036TIP3    H260600   6.011   4.108  13.493  0.0799  0.5815 -0.4896
13037TIP3   OH260601   2.984   6.655   6.397  0.5822  0.3561 -0.1731
13037TIP3    H160602   2.944   6.569   6.413 -0.7146  1.3172  1.8949
13037TIP3    H260603   2.951   6.681   6.311 -0.8675 -0.2050  0.1946
13038TIP3   OH260604   5.846   4.311  14.762  0.5420 -0.4287  0.3180
13038TIP3    H160605   5.752   4.299  14.749  0.3587  1.0468  0.0948
13038TIP3    H260606   5.884   4.296  14.676  0.5030 -0.9170  0.3838
13039TIP3   OH260607   0.727   0.392  11.623  0.1672  0.1723 -0.0878
13039TIP3    H160608   0.655   0.385  11.560  0.2257 -0.8186 -0.0631
13039TIP3    H260609   0.771   0.307  11.618  1.7004  0.9813 -0.5273
13040TIP3   OH260610   3.600   2.422   1.266 -0.3171 -0.5967  0.4029
13040TIP3    H160611   3.561   2.495   1.219  1.0228 -1.7347 -2.5651
13040TIP3    H260612   3.642   2.463   1.342  0.4503  1.7682 -1.2199
13041TIP3   OH260613   5.611   4.088  15.182  0.3759 -0.4112 -0.0955
13041TIP3    H160614   5.697   4.129  15.182  0.3942 -0.4461 -0.5991
13041TIP3    H260615   5.556   4.148  15.232  0.8100 -0.6462  0.6781
13042TIP3   OH260616   4.781   6.116  14.614  0.2720  0.6430  0.1169
13042TIP3    H160617   4.722   6.061  14.666 -0.7399  1.3662 -0.2514
13042TIP3    H260618   4.804   6.062  14.538 -2.7813  1.6034 -1.5835
13043TIP3   OH260619   4.538   4.031  16.841 -0.0655  0.3987  0.5439
13043TIP3    H160620   4.521   3.948  16.796 -1.3022 -0.0349  1.7784
13043TIP3    H260621   4.512   4.098  16.777 -0.7798 -0.1920  0.2004
13044TIP3   OH260622   5.349   4.247  14.399  0.6963 -0.3889  1.0982
13044TIP3    H160623   5.312   4.221  14.484  0.4518  1.6126  1.6158
13044TIP3    H260624   5.283   4.305  14.362 -0.0894 -2.7109 -1.3421
13045TIP3   OH260625   3.972   3.845  11.647  0.2114  0.0707 -0.4899
13045TIP3    H160626   4.067   3.829  11.652  0.2192  0.3993  0.6287
13045TIP3    H260627   3.946   3.809  11.562  0.6795 -3.4364  0.7602
13046TIP3   OH260628   1.111   1.697   6.076  0.0379 -0.7980  0.8051
13046TIP3    H160629   1.183   1.744   6.117  0.3233 -0.3026 -0.2409
13046TIP3    H260630   1.100   1.618   6.129  0.1183  0.0228  2.0688
13047TIP3   OH260631   1.348   6.362   3.403 -0.1084  0.1088 -0.1151
13047TIP3    H160632   1.354   6.406   3.487 -1.6541 -2.1252  1.2170
13047TIP3    H260633   1.417   6.295   3.406 -0.3254 -0.1369 -0.5189
13048TIP3   OH260634   3.260   5.541  17.217 -1.1866  0.3239  0.1966
13048TIP3    H160635   3.191   5.501  17.164 -0.1180  2.0156 -2.5714
13048TIP3    H260636   3.340   5.525  17.167 -0.0315  1.2758  1.7064
13049TIP3   OH260637   5.624   3.717   6.617  0.1869 -0.0461  0.5454
13049TIP3    H160638   5.635   3.651   6.548  0.8577 -0.3802  0.9598
13049TIP3    H260639   5.541   3.694   6.658 -0.1865  0.1190 -0.1094
13050TIP3   OH260640   2.410   5.548  13.469  0.0794 -0.0625 -0.0571
13050TIP3    H160641   2.413   5.507  13.383  0.7202  2.0992 -1.0841
13050TIP3    H260642   2.478   5.504  13.519  2.0005  0.9444 -1.7173
13051TIP3   OH260643   0.085   4.031  14.740 -0.0580  0.1813 -0.4845
13051TIP3    H160644   0.061   4.018  14.648 -0.4287  0.6626 -0.4604
13051TIP3    H260645   0.096   3.943  14.775  1.4448  0.0125 -1.3463
13052TIP3   OH260646   5.246   3.963   5.324 -0.1975  0.2894  0.2079
13052TIP3    H160647   5.212   3.873   5.323  1.5791 -0.4039 -0.3112
13052TIP3    H260648   5.262   3.983   5.231  3.0794 -0.3352  0.5616
13053TIP3   OH260649   4.700   4.384  11.080 -0.5685  0.9558 -0.7922
13053TIP3    H160650   4.710   4.331  11.002  2.4821  0.2867 -0.0069
13053TIP3    H260651   4.715   4.323  11.153  3.5532  2.8466  0.1125
13054TIP3   OH260652   4.363   2.438  16.316 -0.0614  0.0095  0.7184
13054TIP3    H160653   4.384   2.411  16.405  0.1608  2.5282  1.4731
13054TIP3    H260654   4.405   2.523  16.306 -0.4543 -0.0301 -1.6481
13055TIP3   OH260655   0.577   4.236  15.178  0.2890 -0.1586 -0.2531
13055TIP3    H160656   0.517   4.176  15.134  0.6981 -0.2897 -0.6350
13055TIP3    H260657   0.604   4.190  15.257 -1.2981  0.5144  0.7196
13056TIP3   OH260658   0.739   6.715  11.172 -0.1549  1.3399 -0.7197
13056TIP3    H160659   0.707   6.715  11.262  0.1212 -0.5199 -0.5978
13056TIP3    H260660   0.661   6.734  11.119 -0.4968  1.5291 -0.1558
13057TIP3   OH260661   4.203   5.316   2.650 -0.3867  0.1102  0.4983
13057TIP3    H160662   4.119   5.352   2.678 -1.3575 -3.1276  1.9237
13057TIP3    H260663   4.248   5.293   2.731  0.5513 -1.1209 -0.3527
13058TIP3   OH260664   2.102   5.273   2.269  0.5646 -0.6811  0.3608
13058TIP3    H160665   2.179   5.323   2.296 -0.2493  0.7078  0.1715
13058TIP3    H260666   2.134   5.216   2.199  0.9977  1.3802 -1.1725
13059TIP3   OH260667   3.631   3.754   1.874  0.1949  0.1135 -0.5105
13059TIP3    H160668   3.713   3.751   1.825  0.4615 -0.1183 -0.0529
13059TIP3    H260669   3.634   3.837   1.921  0.8365 -0.5434  0.6452
13060TIP3   OH260670   4.685   3.731   1.160 -0.2759 -0.3003 -0.5548
13060TIP3    H160671   4.743   3.756   1.087  0.9045 -1.2824  0.0168
13060TIP3    H260672   4.597   3.733   1.123  0.1397  1.0948 -1.4880
13061TIP3   OH260673   0.162   3.533   5.350  0.0110  0.0450 -0.5045
13061TIP3    H160674   0.174   3.628   5.353  0.8488 -0.0576 -0.5003
13061TIP3    H260675   0.139   3.515   5.259 -1.0025  0.3517 -0.3058
13062TIP3   OH260676   4.199   1.215   3.286  0.4613 -0.7855 -0.1692
13062TIP3    H160677   4.268   1.193   3.223  0.2236  1.8261 -1.4090
13062TIP3    H260678   4.241   1.275   3.348 -0.6768  0.9200 -1.0043
13063TIP3   OH260679   2.643   3.023  11.337  0.0554  1.1172 -0.5982
13063TIP3    H160680   2.714   2.978  11.291 -0.0857  0.0437  0.2095
13063TIP3    H260681   2.632   3.105  11.290  0.4818  0.4062 -1.9661
13064TIP3   OH260682   4.543   4.903   1.706  0.0333  0.1277 -0.0591
13064TIP3    H160683   4.495   4.827   1.739  0.9073 -1.0961 -1.5052
13064TIP3    H260684   4.508   4.917   1.618  1.6436 -0.2169 -0.7878
13065TIP3   OH260685   4.595   0.896  14.246  0.0566  0.3881  0.2338
13065TIP3    H160686   4.509   0.854  14.240  0.7525 -0.8632 -1.4160
13065TIP3    H260687   4.622   0.909  14.155  1.9849 -0.0329  0.7144
13066TIP3   OH260688   0.986   6.054   0.654  0.0251  0.3845 -0.2281
13066TIP3    H160689   0.902   6.010   0.671  0.1103 -0.6170 -2.1844
13066TIP3    H260690   0.962   6.142   0.626 -0.4035  0.0766 -0.8521
13067TIP3   OH260691   0.377   0.775   6.202  0.0899  0.2040 -0.4577
13067TIP3    H160692   0.465   0.750   6.231 -0.2459 -1.3974 -0.8155
13067TIP3    H260693   0.378   0.761   6.107 -0.4856  0.3771 -0.4910
13068TIP3   OH260694   0.193   3.874   0.949 -0.6659 -0.2212 -0.1799
13068TIP3    H160695   0.226   3.934   1.016 -0.5810 -1.0582  0.5338
13068TIP3    H260696   0.254   3.801   0.950  0.5616  0.6968 -2.6445
13069TIP3   OH260697   0.414   3.643   6.012  0.2364 -0.0176  0.3378
13069TIP3    H160698   0.355   3.647   5.937 -0.0067  1.4079  0.5916
13069TIP3    H260699   0.380   3.572   6.066 -0.3703 -0.1695 -0.2433
13070TIP3   OH260700   1.113   2.059   0.043  0.4961  0.3208  0.2248
13070TIP3    H160701   1.150   2.053   0.131  0.7596 -0.1343  0.0820
13070TIP3    H260702   1.189   2.058  -0.015  0.3287  0.7351 -0.0022
13071TIP3   OH260703   4.474   5.453   4.681  0.3507  0.5503  0.7147
13071TIP3    H160704   4.494   5.547   4.689 -0.1517  0.7574 -0.3645
13071TIP3    H260705   4.547   5.410   4.725 -0.2810  1.4843  2.7498
13072TIP3   OH260706   5.841   4.807   4.147 -0.1474  0.3308 -0.1227
13072TIP3    H160707   5.785   4.766   4.081 -0.2586 -1.1935  0.8917
13072TIP3    H260708   5.783   4.821   4.222 -0.0265  2.0672 -0.3330
13073TIP3   OH260709   5.786   3.561   2.511  0.0092 -0.7169 -0.2650
13073TIP3    H160710   5.835   3.593   2.436  2.1938 -0.9106  1.0434
13073TIP3    H260711   5.852   3.545   2.578 -2.1884  2.7886  2.9420
13074TIP3   OH260712   0.778   4.314  17.171  0.3728 -0.4517 -0.1938
13074TIP3    H160713   0.686   4.339  17.168  0.1127 -1.4084 -0.5698
13074TIP3    H260714   0.825   4.391  17.139 -0.3316 -0.1134 -0.4239
13075TIP3   OH260715   0.942   6.603  11.563 -0.7927 -0.2270 -0.0134
13075TIP3    H160716   0.973   6.639  11.480  0.7359 -1.4905 -0.0223
13075TIP3    H260717   1.016   6.551  11.595 -1.1827  0.6684  2.3979
13076TIP3   OH260718   4.973   6.171   1.595  0.1203  0.2276 -0.5277
13076TIP3    H160719   5.045   6.220   1.555  0.0853 -0.6333 -1.6877
13076TIP3    H260720   4.895   6.221   1.571  0.2353  0.5414 -0.2454
13077TIP3   OH260721   6.030   3.148  12.203 -0.2106 -0.6563 -0.2192
13077TIP3    H160722   5.994   3.235  12.218 -1.2718 -1.2657  0.9177
13077TIP3    H260723   6.109   3.163  12.151  2.1628  1.4533  3.6851
13078TIP3   OH260724   6.191   2.972   6.471 -0.1134  0.5995  0.3740
13078TIP3    H160725   6.134   3.049   6.468 -0.8033  0.1171  1.0256
13078TIP3    H260726   6.141   2.902   6.429  1.3221  0.9954 -2.1004
13079TIP3   OH260727   1.353   6.696  15.846 -0.3745 -0.2536  0.1284
13079TIP3    H160728   1.448   6.705  15.848 -0.4656  0.8760 -0.3252
13079TIP3    H260729   1.336   6.607  15.877  0.8243 -0.4301  0.2722
13080TIP3   OH260730   0.206   3.083   2.721 -0.0356  0.2561 -0.0485
13080TIP3    H160731   0.144   3.035   2.777 -0.8883  0.4335 -0.8343
13080TIP3    H260732   0.158   3.100   2.641  2.3424 -3.1156 -2.3092
13081TIP3   OH260733   4.167   4.603  15.042  0.5275 -0.3589  0.1069
13081TIP3    H160734   4.083   4.575  15.008  0.6601 -1.4992  0.6848
13081TIP3    H260735   4.156   4.603  15.137  1.3842 -1.2125  0.2176
13082TIP3   OH260736   5.466   3.831  13.296 -0.3241 -0.3383  0.2665
13082TIP3    H160737   5.527   3.834  13.370 -3.0318 -0.3496  2.5983
13082TIP3    H260738   5.380   3.815  13.337 -2.1120  1.1518 -2.7412
13083TIP3   OH260739   1.350   4.603   1.809 -0.1447  1.1443  0.1468
13083TIP3    H160740   1.259   4.630   1.800 -0.1286  2.1519  2.6689
13083TIP3    H260741   1.375   4.630   1.897  1.8393 -1.3996  0.4373
13084TIP3   OH260742   1.750   6.095  16.475 -0.1808 -0.6164 -0.1304
13084TIP3    H160743   1.744   6.033  16.403 -1.9433  0.3756 -0.8813
13084TIP3    H260744   1.789   6.173  16.437 -0.2418 -0.4168  0.2100
13085TIP3   OH260745   5.818   1.805   5.749  0.2813 -0.2430 -0.6850
13085TIP3    H160746   5.748   1.749   5.715 -0.5485 -0.6189  1.5474
13085TIP3    H260747   5.772   1.874   5.797  1.4265 -1.8035  2.8045
13086TIP3   OH260748   4.847   3.350   4.690  0.1532 -0.0478  0.2239
13086TIP3    H160749   4.799   3.431   4.673 -0.2720 -0.2236  0.5596
13086TIP3    H260750   4.913   3.346   4.621 -0.7422 -0.1307 -0.6436
13087TIP3   OH260751   1.202   5.117  17.009 -1.0992  0.4596 -0.0125
13087TIP3    H160752   1.233   5.046  17.066  0.0785 -0.2902 -1.5271
13087TIP3    H260753   1.213   5.196  17.060  0.4432 -0.1458  0.6219
13088TIP3   OH260754   5.072   3.349  14.530 -0.4133 -0.5679 -0.1661
13088TIP3    H160755   5.102   3.394  14.609 -0.6916  2.2230 -1.6117
13088TIP3    H260756   5.148   3.349  14.472 -0.9785 -0.2580 -0.9129
13089TIP3   OH260757   2.628   5.477  11.241 -0.2350  0.4584  0.1055
13089TIP3    H160758   2.678   5.468  11.160  1.9440 -1.9422  1.6259
13089TIP3    H260759   2.565   5.406  11.237  0.2627 -0.0246  0.7559
13090TIP3   OH260760   3.994   6.199   6.581 -0.0141 -0.5794 -0.3020
13090TIP3    H160761   4.056   6.133   6.550 -0.8883 -1.3577 -0.4340
13090TIP3    H260762   3.908   6.157   6.570 -0.8613  1.8208 -3.6220
13091TIP3   OH260763   5.403   3.266  13.783  0.2660 -0.1553 -0.0431
13091TIP3    H160764   5.409   3.301  13.694  1.0446 -0.7920 -0.2503
13091TIP3    H260765   5.312   3.281  13.809 -0.0925 -0.4030 -1.1272
13092TIP3   OH260766   0.840   2.184   0.650  0.1147  0.1642  0.3152
13092TIP3    H160767   0.900   2.231   0.708  1.1796 -0.3617 -0.3332
13092TIP3    H260768   0.770   2.246   0.631  1.2593  1.3330 -0.1436
13093TIP3   OH260769   5.087   5.101   5.551  0.4921 -0.1707  0.1111
13093TIP3    H160770   5.068   5.082   5.459  0.5234  0.2512  0.0152
13093TIP3    H260771   5.133   5.185   5.548  0.7959 -0.3236  0.4822
13094TIP3   OH260772   0.014   5.139   0.875  0.0346 -0.7316 -0.4067
13094TIP3    H160773   0.036   5.064   0.931  1.6433 -0.7176 -0.9843
13094TIP3    H260774  -0.002   5.100   0.789 -0.6585 -0.5659 -0.3547
13095TIP3   OH260775   0.780   2.286   4.298 -0.0541 -0.0199  0.2389
13095TIP3    H160776   0.687   2.285   4.322 -0.3992  0.1718 -1.0597
13095TIP3    H260777   0.825   2.298   4.381 -1.2183  0.4072  0.8294
13096TIP3   OH260778   3.353   6.341  11.813  0.0625  0.3922 -0.3634
13096TIP3    H160779   3.446   6.349  11.834 -0.2494 -3.1204  3.0116
13096TIP3    H260780   3.315   6.425  11.837  1.9893  1.0419  0.4616
13097TIP3   OH260781   3.467   3.829  12.269  0.1230  0.8385  0.0022
13097TIP3    H160782   3.562   3.827  12.272  0.1449  1.2130 -0.4068
13097TIP3    H260783   3.441   3.883  12.343  0.1572 -0.7530  1.1939
13098TIP3   OH260784   3.343   4.760   5.849  0.1170 -0.1203  0.4669
13098TIP3    H160785   3.311   4.820   5.781 -0.1448 -0.8556 -0.0552
13098TIP3    H260786   3.289   4.779   5.926  1.5972  1.9893  1.0419
13099TIP3   OH260787   6.328   4.244   1.909 -0.1740  0.3046 -0.5103
13099TIP3    H160788   6.263   4.267   1.843 -1.6130  0.0394  0.8085
13099TIP3    H260789   6.371   4.327   1.931 -1.0533  0.7189 -0.3343
13100TIP3   OH260790   1.242   1.012  16.377  0.5709  0.4056 -0.2281
13100TIP3    H160791   1.246   1.033  16.470 -1.9058 -1.6976  0.4121
13100TIP3    H260792   1.207   1.090  16.335 -2.2498 -0.0379  1.2065
13101TIP3   OH260793   4.569   1.233   1.210  0.2561 -0.4615 -0.2093
13101TIP3    H160794   4.536   1.145   1.229  0.4146 -1.0424 -2.5065
13101TIP3    H260795   4.661   1.230   1.236  0.2032 -0.9010 -0.0679
13102TIP3   OH260796   1.143   5.886   5.095  0.4524  0.1869 -0.4802
13102TIP3    H160797   1.095   5.803   5.102  0.8694 -0.1044 -1.0386
13102TIP3    H260798   1.089   5.941   5.039  0.9041 -0.2473 -1.3545
13103TIP3   OH260799   4.891   2.914   1.172 -0.0725  0.3120  0.0122
13103TIP3    H160800   4.819   2.904   1.234 -0.5145 -0.9092 -0.6717
13103TIP3    H260801   4.968   2.881   1.218 -0.3603 -0.4070 -0.0213
13104TIP3   OH260802   1.965   4.895   5.480  0.1620  0.4964 -0.1249
13104TIP3    H160803   2.018   4.830   5.433  1.6061  0.0240  2.0512
13104TIP3    H260804   2.028   4.941   5.536 -1.4987  0.8334  1.5370
13105TIP3   OH260805   3.006   3.230  14.370  0.0579 -0.1116  0.0506
13105TIP3    H160806   2.916   3.261  14.381  0.3310  0.0993  1.9182
13105TIP3    H260807   3.028   3.251  14.279 -1.1817  1.3892  0.0783
13106TIP3   OH260808   3.073   3.650   5.239  0.2532 -0.0111  0.0925
13106TIP3    H160809   3.142   3.683   5.296 -1.1489  1.3555  1.0056
13106TIP3    H260810   3.010   3.610   5.298 -2.3144  3.3770 -0.2355
13107TIP3   OH260811   4.779   1.773   4.948 -0.7945 -0.1407  0.5910
13107TIP3    H160812   4.746   1.787   4.859  0.2817 -1.2043  0.0069
13107TIP3    H260813   4.756   1.682   4.968  0.3658 -0.3990  0.7757
13108TIP3   OH260814   1.126   5.132  12.102  0.6007 -0.0088 -0.0603
13108TIP3    H160815   1.164   5.172  12.180 -0.3101 -0.7843  0.7825
13108TIP3    H260816   1.033   5.151  12.108  0.1891 -2.0674  0.2356
13109TIP3   OH260817   2.495   3.195  16.435 -0.1552 -0.1892 -0.9150
13109TIP3    H160818   2.443   3.164  16.361 -0.1992 -1.3062 -0.4166
13109TIP3    H260819   2.580   3.152  16.425  0.2538  0.6316 -1.0103
13110TIP3   OH260820   4.505   3.724  13.539  0.1807  0.1334  0.0955
13110TIP3    H160821   4.426   3.733  13.485  0.8337 -0.5720 -0.9800
13110TIP3    H260822   4.503   3.801  13.596  0.2129  1.6574 -1.9046
13111TIP3   OH260823   0.032   6.175   2.480  0.1036 -0.1329 -0.1117
13111TIP3    H160824   0.126   6.167   2.471  0.1281  1.3449 -1.4704
13111TIP3    H260825   0.006   6.237   2.411 -1.9764 -1.2917 -0.4206
13112TIP3   OH260826   5.547   4.203   0.596  0.5762  0.4650 -0.1440
13112TIP3    H160827   5.563   4.152   0.517  1.0416 -0.3349  0.4549
13112TIP3    H260828   5.596   4.284   0.583  0.5273  0.4012 -0.7359
13113TIP3   OH260829   3.339   4.840  16.688 -0.1701  0.5556  0.3727
13113TIP3    H160830   3.245   4.823  16.677 -0.2791  0.9821  0.6452
13113TIP3    H260831   3.379   4.753  16.688 -0.2612  0.4581 -2.4164
13114TIP3   OH260832   0.239   4.199   1.519 -0.0784  0.0436 -0.2250
13114TIP3    H160833   0.205   4.198   1.609  1.0512 -0.0015  0.1978
13114TIP3    H260834   0.225   4.110   1.488 -1.6302  0.3780 -0.5378
13115TIP3   OH260835   3.067   4.417  12.167  0.0288 -0.1720 -0.1541
13115TIP3    H160836   3.136   4.475  12.197 -0.7871  0.6596  0.1488
13115TIP3    H260837   3.037   4.455  12.085 -0.9619  0.2286  0.3792
13116TIP3   OH260838   3.794   5.435  13.820 -0.0227 -0.3749  0.0985
13116TIP3    H160839   3.807   5.511  13.876  1.6061 -0.3282 -0.3282
13116TIP3    H260840   3.722   5.460  13.762  0.1190  0.6084  0.3445
13117TIP3   OH260841   2.904   6.098   0.475  0.0976 -0.2314  1.0580
13117TIP3    H160842   2.816   6.120   0.444  0.6015 -0.6204 -0.7272
13117TIP3    H260843   2.900   6.003   0.490  0.8085 -0.6316 -1.1362
13118TIP3   OH260844   6.129   3.451   1.060  0.6099 -0.0797 -0.1307
13118TIP3    H160845   6.149   3.477   0.970 -0.6423 -0.6399 -0.5916
13118TIP3    H260846   6.088   3.365   1.051 -0.0296  0.1108  0.9239
13119TIP3   OH260847   5.362   1.044   4.823  0.0940 -0.5681 -0.6215
13119TIP3    H160848   5.324   1.132   4.822  1.1767 -0.0940 -2.5873
13119TIP3    H260849   5.404   1.035   4.738  1.6059 -2.2877  0.2644
13120TIP3   OH260850   4.152   0.064   1.062 -0.7455  0.1413 -0.4996
13120TIP3    H160851   4.193   0.146   1.033 -0.4430  0.2956  0.3640
13120TIP3    H260852   4.178   0.054   1.153  4.1781 -3.9346 -2.1076
13121TIP3   OH260853   6.813   2.912  15.902  0.3420 -0.3712  0.0270
13121TIP3    H160854   6.835   2.834  15.851 -2.1252 -1.4674  0.5263
13121TIP3    H260855   6.889   2.928  15.958  0.0060 -3.8501  1.5958
13122TIP3   OH260856   1.831   1.059   1.084  0.6989  0.6918 -0.0026
13122TIP3    H160857   1.798   1.128   1.142 -1.8226  1.1767 -1.9313
13122TIP3    H260858   1.796   1.082   0.998  2.7797 -1.0736 -1.3499
13123TIP3   OH260859   6.773   3.333  15.031 -0.5820  0.3822  0.4277
13123TIP3    H160860   6.856   3.287  15.027  0.9606  3.2126 -2.3447
13123TIP3    H260861   6.718   3.280  15.089  3.1595 -1.4619  2.3996
13124TIP3   OH260862   4.212   3.881  15.145  0.4756 -0.1462  0.5247
13124TIP3    H160863   4.165   3.956  15.108  0.0396 -0.3659  0.6292
13124TIP3    H260864   4.143   3.825  15.180  0.7428 -1.0413 -0.3793
13125TIP3   OH260865   6.179   4.112  11.613  0.0850 -0.2604  0.2811
13125TIP3    H160866   6.191   4.067  11.529 -1.9698  1.7917 -1.1675
13125TIP3    H260867   6.266   4.145  11.636  0.3092  0.8637 -2.0617
13126TIP3   OH260868   0.511   0.172   0.207  0.1555 -0.3773  0.0162
13126TIP3    H160869   0.572   0.244   0.192  1.3322 -1.2909  0.3919
13126TIP3    H260870   0.564   0.093   0.198 -1.1545 -1.2146 -0.5483
13127TIP3   OH260871   5.975   1.665  16.177 -0.2382  0.4235 -0.0944
13127TIP3    H160872   6.057   1.677  16.226 -0.7750  0.6478  0.7702
13127TIP3    H260873   5.990   1.709  16.094  0.5785  0.3294 -0.0000
13128TIP3   OH260874   4.326   1.634  14.613 -0.3712  0.0290  0.0497
13128TIP3    H160875   4.281   1.706  14.568  0.2480  0.7217  0.5300
13128TIP3    H260876   4.309   1.650  14.706 -1.9779 -1.6144  0.0842
13129TIP3   OH260877   5.717   2.147   3.812  0.3977 -0.3923 -0.0641
13129TIP3    H160878   5.634   2.162   3.767  0.5561  0.7713  0.0066
13129TIP3    H260879   5.757   2.234   3.817  0.7283 -0.6296  1.6338
13130TIP3   OH260880   4.254   2.066   1.568 -0.2329 -0.4685  0.1782
13130TIP3    H160881   4.196   2.047   1.494 -0.8563  0.1495  0.5160
13130TIP3    H260882   4.341   2.075   1.528 -0.3154 -1.6646 -0.2917
13131TIP3   OH260883   0.753   5.499   6.327  0.0053 -0.3152 -0.2803
13131TIP3    H160884   0.712   5.584   6.346 -2.2159 -1.1212 -1.3327
13131TIP3    H260885   0.709   5.438   6.386  0.3993 -1.0411 -0.7323
13132TIP3   OH260886   2.457   1.373   0.477 -0.4396 -0.4979  0.4032
13132TIP3    H160887   2.506   1.293   0.459  2.2024  1.3281 -0.8508
13132TIP3    H260888   2.490   1.403   0.562 -0.9903 -0.4463  0.5995
13133TIP3   OH260889   3.639   4.773   5.248  0.0252  0.4095  0.6757
13133TIP3    H160890   3.554   4.741   5.278 -0.7243  2.5105  0.8445
13133TIP3    H260891   3.686   4.794   5.329 -0.0626  1.1730  0.5311
13134TIP3   OH260892   0.708   3.355  13.323  0.2517  0.0387  0.0058
13134TIP3    H160893   0.775   3.287  13.318 -0.9591 -1.0703 -1.7102
13134TIP3    H260894   0.631   3.310  13.357 -0.6247  0.4952 -1.3653
13135TIP3   OH260895   3.880   0.854   5.975  0.2744  0.0525 -0.0174
13135TIP3    H160896   3.916   0.803   6.048 -1.4257  0.1160  0.8813
13135TIP3    H260897   3.897   0.945   5.998 -0.1721  0.0679  0.2497
13136TIP3   OH260898   5.805   2.683   0.347 -0.1398  0.2831  0.0823
13136TIP3    H160899   5.739   2.734   0.300 -1.6937 -0.6529  1.2126
13136TIP3    H260900   5.761   2.601   0.369  0.8935  0.2794  2.2411
13137TIP3   OH260901   5.108   2.232  15.427 -0.1889 -0.5367 -0.4983
13137TIP3    H160902   5.109   2.157  15.368  3.1413 -2.3179  1.6326
13137TIP3    H260903   5.026   2.224  15.475 -1.2437 -1.0980 -2.3541
13138TIP3   OH260904   0.979   5.786  13.891 -0.8019  0.2027  0.8162
13138TIP3    H160905   1.032   5.860  13.860 -0.9521  0.6225  1.5311
13138TIP3    H260906   1.008   5.712  13.839  1.1261  0.2310  1.7970
13139TIP3   OH260907   3.100   3.230  13.447  0.0070  0.0088  0.0167
13139TIP3    H160908   3.065   3.237  13.536 -0.6081  1.5762 -0.3320
13139TIP3    H260909   3.029   3.262  13.391  0.3506 -1.0714 -1.0577
13140TIP3   OH260910   1.574   2.538  16.405  0.0711 -0.1312  0.3576
13140TIP3    H160911   1.648   2.595  16.385 -0.6292  0.8004  0.3534
13140TIP3    H260912   1.500   2.599  16.415 -0.5762 -0.9981  0.8896
13141TIP3   OH260913   3.927   1.933   1.642 -0.3895 -0.1902  0.6565
13141TIP3    H160914   3.947   2.000   1.577 -0.5561  1.9013  2.7023
13141TIP3    H260915   3.833   1.916   1.632 -0.3753 -0.0144  0.2268
13142TIP3   OH260916   6.034   0.849   3.802  0.3894  0.9969  0.1905
13142TIP3    H160917   5.955   0.823   3.756  0.9641 -0.0144 -0.2461
13142TIP3    H260918   6.030   0.802   3.886  1.3185 -0.3690 -0.5072
13143TIP3   OH260919   3.088   4.610  14.852 -0.1006 -0.5403  0.1428
13143TIP3    H160920   3.124   4.620  14.764 -1.9653 -0.5806 -0.6496
13143TIP3    H260921   2.998   4.580  14.838 -0.3263 -0.8473  2.0729
13144TIP3   OH260922   6.409   1.015  14.224  0.1757 -0.3577 -0.5170
13144TIP3    H160923   6.432   0.923  14.220 -0.8316 -0.5504 -2.1273
13144TIP3    H260924   6.481   1.060  14.181  1.0579 -0.2944  0.9741
13145TIP3   OH260925   4.379   3.966  13.282  0.5132  0.4917  0.1452
13145TIP3    H160926   4.380   3.952  13.188  2.0868 -0.9663  0.3543
13145TIP3    H260927   4.295   3.931  13.311 -0.3261  1.6751 -0.7905
13146TIP3   OH260928   6.092   5.015  12.832 -0.1266 -0.0280  0.4967
13146TIP3    H160929   6.144   5.004  12.912 -0.3389 -3.6360  0.1930
13146TIP3    H260930   6.004   5.033  12.863  0.4210  1.9702  1.0101
13147TIP3   OH260931   3.946   2.545  13.752 -0.2477  0.3188 -0.5675
13147TIP3    H160932   3.866   2.514  13.710 -0.9026  1.7890 -0.4164
13147TIP3    H260933   3.924   2.551  13.845 -1.1098  4.1253 -0.9411
13148TIP3   OH260934   5.964   2.802   5.190  0.3003 -0.1408 -0.6151
13148TIP3    H160935   5.880   2.847   5.184  0.0260 -0.5270  0.2311
13148TIP3    H260936   6.029   2.868   5.165 -0.1065  0.7260  0.5471
13149TIP3   OH260937   1.549   5.610   3.328  0.6935  0.2565 -0.0319
13149TIP3    H160938   1.495   5.652   3.394  0.7071  1.1974 -0.6110
13149TIP3    H260939   1.553   5.673   3.256  4.7629  1.4125  1.0448
13150TIP3   OH260940   1.504   2.292  15.564 -0.2846 -0.4167 -0.1505
13150TIP3    H160941   1.489   2.308  15.657 -1.2010 -1.7182 -0.0446
13150TIP3    H260942   1.594   2.258  15.559 -0.4772 -1.0235  0.3659
13151TIP3   OH260943   3.494   1.711  16.643 -0.5372  0.6585  0.0093
13151TIP3    H160944   3.426   1.707  16.711 -1.7058  0.4441 -1.1368
13151TIP3    H260945   3.470   1.640  16.582  0.2885  1.0693 -0.8038
13152TIP3   OH260946   0.291   5.120   1.085 -0.3102 -0.0720 -0.1703
13152TIP3    H160947   0.311   5.050   1.023 -1.9222 -1.9951  1.4003
13152TIP3    H260948   0.376   5.151   1.115  0.4531 -0.0488 -2.3046
13153TIP3   OH260949   2.394   0.612   2.454  0.1125 -0.1082 -0.2323
13153TIP3    H160950   2.451   0.573   2.387  0.1999 -0.2159 -0.0949
13153TIP3    H260951   2.405   0.706   2.443  0.9346 -0.1359  0.3258
13154TIP3   OH260952   3.062   2.373   5.469 -0.0569  0.4515  0.4313
13154TIP3    H160953   3.091   2.363   5.560  0.9475  0.5718  0.1295
13154TIP3    H260954   3.017   2.290   5.449  1.2004 -0.2566  0.5037
13155TIP3   OH260955   6.144   6.104   2.179  0.7285 -0.0027 -0.2014
13155TIP3    H160956   6.155   6.173   2.245 -0.2073 -1.3717  1.4361
13155TIP3    H260957   6.083   6.042   2.219  0.2397 -0.9451 -2.3236
13156TIP3   OH260958   0.671   3.155   5.320 -0.0665  0.6342 -0.2374
13156TIP3    H160959   0.694   3.228   5.378 -0.8803  1.7483 -1.2907
13156TIP3    H260960   0.575   3.152   5.322 -0.0090 -2.8607  2.7705
13157TIP3   OH260961   5.390   0.809   5.608 -0.1565 -0.2663  0.3387
13157TIP3    H160962   5.342   0.863   5.670  1.1900 -1.1360  2.1793
13157TIP3    H260963   5.443   0.750   5.662 -0.3145 -2.2898 -1.6127
13158TIP3   OH260964   2.400   2.951   0.470 -0.2269 -0.4845 -0.3059
13158TIP3    H160965   2.351   2.956   0.388 -0.0609 -0.0309 -0.3800
13158TIP3    H260966   2.338   2.978   0.538  0.6051  2.6493 -0.6785
13159TIP3   OH260967   6.206   6.802  11.442  0.4507  0.8544 -0.2428
13159TIP3    H160968   6.123   6.836  11.476 -0.0805 -1.1127  0.5230
13159TIP3    H260969   6.270   6.871  11.461 -0.1158  0.4750  3.5065
13160TIP3   OH260970   3.137   2.216  14.218  0.0196 -0.4227 -0.2615
13160TIP3    H160971   3.081   2.282  14.260  0.7001 -0.0679  0.0997
13160TIP3    H260972   3.226   2.252  14.223  0.6509 -2.0969  1.4582
13161TIP3   OH260973   3.396   0.925  13.450  0.0970  0.8517  0.2527
13161TIP3    H160974   3.383   1.013  13.415 -0.2009  0.5570 -0.3954
13161TIP3    H260975   3.439   0.938  13.534 -1.4292  1.6962  0.9059
13162TIP3   OH260976   3.878   5.034   4.007  0.0530  0.4064  0.4949
13162TIP3    H160977   3.946   5.074   3.953 -1.1573  2.5174  0.4448
13162TIP3    H260978   3.910   5.042   4.096  0.9979 -0.9372  0.2881
13163TIP3   OH260979   4.809   5.316   2.364  0.2960 -0.3699 -0.1029
13163TIP3    H160980   4.818   5.357   2.450 -1.0728 -2.9702  1.3247
13163TIP3    H260981   4.899   5.309   2.332  0.7768  1.0544  0.8719
13164TIP3   OH260982   4.068   4.272  15.356 -0.0793  0.1099 -0.6887
13164TIP3    H160983   4.093   4.365  15.352  0.4170  0.0097  0.0564
13164TIP3    H260984   4.149   4.226  15.376 -0.2516 -0.5334 -1.4359
13165TIP3   OH260985   6.172   6.125  13.718 -0.1688  0.4119  0.1708
13165TIP3    H160986   6.122   6.202  13.743  0.8385  1.0737  0.1812
13165TIP3    H260987   6.254   6.132  13.768  1.1786  0.8797 -2.0021
13166TIP3   OH260988   3.347   2.679  13.168 -0.4130 -0.2201  0.9666
13166TIP3    H160989   3.402   2.649  13.241 -1.2441 -0.9892  1.2796
13166TIP3    H260990   3.388   2.761  13.140  0.4667 -0.4037  1.6784
13167TIP3   OH260991   2.947   1.598  13.958  0.5225  0.0088 -0.5659
13167TIP3    H160992   2.883   1.622  14.024  2.6061 -0.2779  1.6173
13167TIP3    H260993   2.964   1.679  13.909  2.7449  1.5521  2.5946
13168TIP3   OH260994   0.505   4.944  13.911 -0.2858  0.0764 -0.1959
13168TIP3    H160995   0.483   5.029  13.873 -1.0866  0.3609  0.9085
13168TIP3    H260996   0.584   4.916  13.863 -0.6448  0.9357 -1.2986
13169TIP3   OH260997   5.934   3.878  13.301  0.1890  0.1990  0.2115
13169TIP3    H160998   5.992   3.913  13.234  1.8148 -0.5951  1.1831
13169TIP3    H260999   5.918   3.951  13.360  0.3634  0.3554  0.0643
13170TIP3   OH261000   1.572   6.115  12.427  0.1263  0.1460  0.0237
13170TIP3    H161001   1.652   6.102  12.478 -0.2898  0.0531  0.6593
13170TIP3    H261002   1.601   6.159  12.347  0.8162  0.0788  0.2384
13171TIP3   OH261003   6.078   6.153   4.496  0.4359  0.4160 -0.3347
13171TIP3    H161004   6.005   6.193   4.449  0.4893  0.5560 -0.3015
13171TIP3    H261005   6.156   6.193   4.458  0.5499 -0.6132 -1.1829
13172TIP3   OH261006   0.176   1.834   4.767 -0.2350  0.2103 -0.2174
13172TIP3    H161007   0.184   1.929   4.760 -0.5188  0.2885  0.4182
13172TIP3    H261008   0.220   1.799   4.690 -0.2340  0.8655 -0.5089
13173TIP3   OH261009   1.910   3.156   0.102  0.2438 -0.1438  0.2901
13173TIP3    H161010   1.937   3.156   0.011  3.3898  0.1814  1.1758
13173TIP3    H261011   1.891   3.247   0.122 -2.9359 -0.5137 -0.6584
13174TIP3   OH261012   0.124   0.446  16.935  0.1775 -0.0190  0.1161
13174TIP3    H161013   0.110   0.533  16.899  2.5565 -0.2582 -1.5546
13174TIP3    H261014   0.210   0.451  16.978  0.6894 -1.6898 -0.6424
13175TIP3   OH261015   2.580   1.526  16.808 -0.1855 -0.4524 -0.3776
13175TIP3    H161016   2.567   1.571  16.891  0.9056  0.1203 -0.5199
13175TIP3    H261017   2.574   1.433  16.830 -0.7359 -0.2798  0.1989
13176TIP3   OH261018   4.086   6.667   4.308 -0.4365  0.6751  0.2395
13176TIP3    H161019   4.001   6.625   4.298 -0.3726  0.7324 -0.5706
13176TIP3    H261020   4.066   6.759   4.322 -0.5538  0.4814  1.4281
13177TIP3   OH261021   3.231   0.530   1.286  0.1099 -0.0959 -0.2032
13177TIP3    H161022   3.204   0.444   1.318 -0.5116  0.2879  0.3250
13177TIP3    H261023   3.202   0.591   1.354 -0.0868  0.6050 -0.9047
13178TIP3   OH261024   0.079   3.649   1.164 -0.1969 -0.7656 -0.7228
13178TIP3    H161025   0.139   3.621   1.094 -0.9053 -0.9707 -1.2493
13178TIP3    H261026   0.046   3.567   1.201  0.1129 -0.6552 -0.2001
13179TIP3   OH261027   4.558   5.528  14.665  0.2371  0.1120  0.0733
13179TIP3    H161028   4.542   5.509  14.572  0.3735  1.2522 -0.1864
13179TIP3    H261029   4.519   5.614  14.679 -0.4783 -0.3935  1.2786
13180TIP3   OH261030   2.377   4.031  11.197 -0.8158 -0.0619  0.1537
13180TIP3    H161031   2.437   4.035  11.122 -0.9659 -0.8289 -0.0084
13180TIP3    H261032   2.297   4.074  11.165  0.3727  3.0172  1.0931
13181TIP3   OH261033   4.048   4.455   0.859 -0.0308 -0.4070 -0.1345
13181TIP3    H161034   3.970   4.478   0.909 -0.0632 -2.4827  0.8250
13181TIP3    H261035   4.071   4.535   0.812 -0.9494  1.1399  1.9557
13182TIP3   OH261036   4.257   1.508  15.464  0.2299 -0.1908  0.2865
13182TIP3    H161037   4.334   1.510  15.521  0.0910 -1.6944  0.5538
13182TIP3    H261038   4.283   1.557  15.387  1.5834 -0.9724  0.2320
13183TIP3   OH261039   3.015   1.087  15.467 -0.2255  0.0061 -0.1309
13183TIP3    H161040   3.092   1.030  15.456 -0.2377 -0.1776  0.6900
13183TIP3    H261041   3.021   1.118  15.557 -0.7452  0.5449 -0.2782
13184TIP3   OH261042   5.275   4.832  16.962 -0.0265 -0.6091 -0.2075
13184TIP3    H161043   5.226   4.906  17.000 -6.7098 -4.0619 -1.3912
13184TIP3    H261044   5.295   4.776  17.037 -1.8852 -1.2514 -0.1553
13185TIP3   OH261045   4.126   5.902   0.812  0.0942 -0.6493  0.0789
13185TIP3    H161046   4.063   5.830   0.810 -0.7445  0.0452  1.2763
13185TIP3    H261047   4.075   5.980   0.790  0.3212  0.0539  1.9693
13186TIP3   OH261048   4.597   2.385   4.358 -0.9407  0.9856  0.4686
13186TIP3    H161049   4.515   2.413   4.318 -0.6032  0.6528 -0.4628
13186TIP3    H261050   4.656   2.459   4.346 -0.6297  0.6227 -0.2789
13187TIP3   OH261051   0.026   3.232  14.373  0.3750 -0.7540  0.0404
13187TIP3    H161052   0.031   3.249  14.279 -0.1983 -1.6931 -0.1658
13187TIP3    H261053   0.105   3.272  14.409  0.7890 -0.7207 -0.8943
13188TIP3   OH261054   2.026   3.980   5.275 -0.3049  0.2310 -0.1961
13188TIP3    H161055   2.074   3.910   5.229 -0.4876  0.0747 -0.1483
13188TIP3    H261056   1.956   3.935   5.322 -1.6389  0.6523 -1.7387
13189TIP3   OH261057   6.531   3.230  17.095  0.1236 -0.1056  0.5969
13189TIP3    H161058   6.456   3.283  17.124 -0.5687  0.1399 -1.5296
13189TIP3    H261059   6.563   3.188  17.175 -1.3591  0.9573  1.7838
13190TIP3   OH261060   1.695   3.919   1.466  0.0475 -0.3349  0.3101
13190TIP3    H161061   1.744   3.976   1.406 -0.1418 -0.5519 -0.0565
13190TIP3    H261062   1.762   3.883   1.525  0.4951 -1.4123 -0.8166
13191TIP3   OH261063   0.776   6.206  15.490 -0.5245  0.2183 -0.5516
13191TIP3    H161064   0.775   6.182  15.397  0.0880 -0.2421 -0.4399
13191TIP3    H261065   0.798   6.299  15.490 -0.6990  0.2607 -0.8750
13192TIP3   OH261066   1.060   2.546   2.384 -0.1320 -0.1882 -0.0554
13192TIP3    H161067   1.020   2.562   2.469  0.2435  0.3034  0.0303
13192TIP3    H261068   1.035   2.622   2.331 -1.1487 -0.9395 -0.6766
13193TIP3   OH261069   4.069   3.281  15.011  0.0258 -0.1759 -0.5303
13193TIP3    H161070   3.998   3.343  15.026  1.0210  0.4758  1.8546
13193TIP3    H261071   4.062   3.219  15.084  3.3727  1.3678  1.2014
13194TIP3   OH261072   2.952   6.743   4.752  0.3955  0.6633  0.1505
13194TIP3    H161073   2.905   6.800   4.813  2.7384  1.9725  0.7692
13194TIP3    H261074   3.019   6.701   4.806  0.0525 -1.0868 -0.7445
13195TIP3   OH261075   1.061   3.710  14.824  0.3794 -0.2571 -0.1841
13195TIP3    H161076   1.125   3.691  14.756 -0.1045 -0.3912 -0.6061
13195TIP3    H261077   1.084   3.797  14.855  2.5649 -1.4365  1.7036
13196TIP3   OH261078   2.272   6.175  11.538  0.3607 -0.1144  0.0929
13196TIP3    H161079   2.336   6.225  11.589 -0.5093 -0.1700  1.2662
13196TIP3    H261080   2.269   6.218  11.453  1.4435  0.3110  0.2596
13197TIP3   OH261081   4.458   1.163  16.534  0.3609 -0.0582  0.0345
13197TIP3    H161082   4.525   1.231  16.543  0.9374 -0.5308 -0.5633
13197TIP3    H261083   4.377   1.211  16.517  0.4720  0.5379  1.1418
13198TIP3   OH261084   4.294   6.445  12.227 -0.4498  0.2231 -0.0670
13198TIP3    H161085   4.380   6.481  12.205  0.4632 -2.0134 -0.4014
13198TIP3    H261086   4.293   6.439  12.322  0.1100 -0.4629 -0.0955
13199TIP3   OH261087   6.152   6.551   2.438 -0.7130  0.5583  0.6319
13199TIP3    H161088   6.119   6.513   2.520 -0.8304  2.1250  1.3174
13199TIP3    H261089   6.097   6.628   2.424  0.4732  1.2959  0.0118
13200TIP3   OH261090   0.055   0.811  12.052 -0.2465  0.2894  0.6198
13200TIP3    H161091   0.073   0.741  12.114 -2.5565  0.4769  1.5391
13200TIP3    H261092   0.034   0.767  11.971 -3.6675 -0.2025  1.7143
13201TIP3   OH261093   1.516   4.531  16.368  0.0600 -0.4433 -0.0866
13201TIP3    H161094   1.443   4.587  16.341  1.1969  0.8919 -0.4275
13201TIP3    H261095   1.565   4.584  16.431  1.2337 -1.0007 -0.5248
13202TIP3   OH261096   0.136   0.080   3.594 -0.1268  0.1342  0.2476
13202TIP3    H161097   0.208   0.051   3.538  0.3291  0.8131  0.4683
13202TIP3    H261098   0.137   0.017   3.667  0.9893  0.7977  0.8287
13203TIP3   OH261099   4.402   1.013   5.716 -0.3043  0.4441  0.6046
13203TIP3    H161100   4.344   1.084   5.689  0.7914  2.0063  2.2729
13203TIP3    H261101   4.354   0.967   5.785 -0.2549  0.6593  0.7794
13204TIP3   OH261102   1.593   1.710  16.853 -0.3916 -0.0732  0.0422
13204TIP3    H161103   1.498   1.705  16.862 -0.4991 -0.3116 -1.1002
13204TIP3    H261104   1.608   1.793  16.807 -0.1411 -0.6492 -0.9303
13205TIP3   OH261105   1.747   5.151  12.612  0.0704 -0.0374  0.0227
13205TIP3    H161106   1.760   5.060  12.637  0.7116 -0.5392 -2.0152
13205TIP3    H261107   1.820   5.170  12.553 -0.7900  1.3891 -0.6040
13206TIP3   OH261108   6.288   2.034   0.899  0.0450 -0.1626 -0.0597
13206TIP3    H161109   6.266   1.971   0.830 -0.7247  1.2041 -1.0902
13206TIP3    H261110   6.203   2.062   0.933  0.4401 -1.9892  2.5445
13207TIP3   OH261111   6.087   6.112  15.225  0.2565 -0.4851 -0.8225
13207TIP3    H161112   6.040   6.058  15.162 -2.2935 -0.0619  0.6266
13207TIP3    H261113   6.078   6.201  15.193 -1.2084 -0.2485  0.1950
13208TIP3   OH261114   5.299   1.308   4.740 -0.1560  0.1060  0.3979
13208TIP3    H161115   5.347   1.375   4.788  0.3291  0.1034 -0.0831
13208TIP3    H261116   5.211   1.344   4.730 -0.3856 -0.0796  1.6735
13209TIP3   OH261117   4.636   2.488  15.546  0.8795 -0.0698 -0.3492
13209TIP3    H161118   4.553   2.453  15.578  0.8026  0.0815 -0.3846
13209TIP3    H261119   4.679   2.522  15.625  0.3007  1.1139 -0.5338
13210TIP3   OH261120   1.060   3.419   3.999 -0.1104 -0.6437 -0.4197
13210TIP3    H161121   1.028   3.493   3.948 -0.5439 -0.9137 -0.5360
13210TIP3    H261122   0.981   3.374   4.029  0.1357 -0.2145  0.8932
13211TIP3   OH261123   0.600   6.365   3.697  0.1968  0.5902  0.5790
13211TIP3    H161124   0.574   6.374   3.605 -1.4646  2.1691  1.1838
13211TIP3    H261125   0.688   6.403   3.701  0.6144 -0.2174 -0.4961
13212TIP3   OH261126   5.800   6.439  12.162  0.6627 -0.3297 -0.2005
13212TIP3    H161127   5.847   6.519  12.185  0.7514 -0.1982 -0.8510
13212TIP3    H261128   5.794   6.391  12.245  1.4448 -0.0936 -0.0016
13213TIP3   OH261129   6.283   0.665  15.448 -0.3293  0.4761 -0.2993
13213TIP3    H161130   6.231   0.649  15.370 -1.2145 -0.9746  0.5578
13213TIP3    H261131   6.226   0.719  15.504  0.9830  3.0470 -1.3670
13214TIP3   OH261132   2.136   1.042   4.645  0.6499  0.1819  0.1417
13214TIP3    H161133   2.196   0.968   4.646  0.1734 -0.1919  1.4223
13214TIP3    H261134   2.127   1.064   4.552  0.5880 -1.5281 -0.2746
13215TIP3   OH261135   3.307   0.593  15.382 -0.1331  0.7861 -0.1589
13215TIP3    H161136   3.358   0.597  15.463 -0.4858  2.8888  0.0117
13215TIP3    H261137   3.358   0.644  15.319 -0.6392  0.5104 -0.8043
13216TIP3   OH261138   1.765   4.133  14.624  0.0276 -0.3018 -0.3389
13216TIP3    H161139   1.792   4.203  14.684  2.7909 -0.3441 -1.4574
13216TIP3    H261140   1.767   4.053  14.678 -1.0047  0.1620  0.3947
13217TIP3   OH261141   2.570   5.314  14.379 -0.4339  0.1401 -0.6378
13217TIP3    H161142   2.491   5.264  14.395  0.3969 -1.7980 -2.3533
13217TIP3    H261143   2.617   5.314  14.462 -1.2282 -0.5354 -0.1990
13218TIP3   OH261144   1.726   4.013  15.929 -0.2775 -0.4534 -0.5782
13218TIP3    H161145   1.731   4.000  16.023 -0.5633  0.5296 -0.4169
13218TIP3    H261146   1.817   4.005  15.899  0.1965  1.8136  0.1578
13219TIP3   OH261147   0.771   2.724  15.997 -0.4091  0.2947  0.3651
13219TIP3    H161148   0.782   2.649  15.938 -0.2605 -0.4778  1.3666
13219TIP3    H261149   0.778   2.800  15.940  0.5748 -0.4255 -0.4878
13220TIP3   OH261150   2.655   5.104   2.399  0.4832  0.3941  0.0486
13220TIP3    H161151   2.663   5.024   2.452 -0.0086  0.9259  0.9445
13220TIP3    H261152   2.579   5.088   2.343  0.2171  0.3337  0.4195
13221TIP3   OH261153   1.630   5.445   6.067  0.0586  0.4649 -0.1220
13221TIP3    H161154   1.547   5.471   6.107 -0.2941 -1.0318  0.1229
13221TIP3    H261155   1.643   5.354   6.093  0.6586 -0.0231 -1.9882
13222TIP3   OH261156   5.980   6.424   2.019 -0.1795  0.0332  0.3263
13222TIP3    H161157   5.925   6.423   2.097 -0.5270  2.4467  0.1420
13222TIP3    H261158   5.933   6.370   1.956 -1.2697  0.3059  0.8874
13223TIP3   OH261159   5.468   2.880   6.659 -0.7952  0.4408  0.1317
13223TIP3    H161160   5.487   2.969   6.688 -0.4865  0.8513 -1.2988
13223TIP3    H261161   5.462   2.886   6.564  2.3171 -1.6118 -0.2640
13224TIP3   OH261162   5.664   2.394  16.948  0.0574  0.3134 -0.5704
13224TIP3    H161163   5.699   2.334  17.014  0.9408  0.0529 -1.2669
13224TIP3    H261164   5.712   2.476  16.963 -0.0925  0.3993 -0.5665
13225TIP3   OH261165   3.296   1.748  11.466  0.1985 -0.7282  0.0567
13225TIP3    H161166   3.343   1.678  11.510 -0.7100 -1.2573  0.1873
13225TIP3    H261167   3.353   1.773  11.393  1.8776  0.4004  1.7069
13226TIP3   OH261168   5.769   5.994   4.720 -0.1716  0.4869 -0.2895
13226TIP3    H161169   5.724   6.076   4.738  1.5238  1.8842 -2.2102
13226TIP3    H261170   5.759   5.980   4.626  0.7694 -0.7814 -0.2257
13227TIP3   OH261171   0.496   0.879   3.186  0.1635 -0.7523  0.4198
13227TIP3    H161172   0.505   0.974   3.177 -2.0225 -0.7424 -2.0318
13227TIP3    H261173   0.574   0.852   3.237  2.5314  1.8782 -1.6769
13228TIP3   OH261174   2.485   1.349   4.896  0.0989  0.0618 -0.5982
13228TIP3    H161175   2.484   1.426   4.840  1.5520  0.4339 -0.1296
13228TIP3    H261176   2.547   1.289   4.853 -0.0159 -0.3096 -0.2506
13229TIP3   OH261177   3.033   2.642   0.578  0.3978  0.3555 -0.3117
13229TIP3    H161178   3.047   2.551   0.554  0.2636  0.1049  0.5253
13229TIP3    H261179   2.946   2.664   0.544  0.5243  0.2374 -0.7066
13230TIP3   OH261180   0.107   6.792  12.409 -0.1627 -0.3872  0.6063
13230TIP3    H161181   0.031   6.743  12.440 -0.9788  0.1062 -0.5826
13230TIP3    H261182   0.124   6.758  12.322  0.1977  0.3837  0.3656
13231TIP3   OH261183   3.191   2.087   2.045  0.1226 -0.1060 -0.2332
13231TIP3    H161184   3.244   2.029   1.991  0.2128  0.0432 -0.3063
13231TIP3    H261185   3.142   2.028   2.103 -0.5185 -0.3113 -0.9694
13232TIP3   OH261186   6.159   6.044   3.404  0.1959 -0.1388  0.0672
13232TIP3    H161187   6.184   5.970   3.459 -0.4200 -0.1914  0.2744
13232TIP3    H261188   6.071   6.068   3.433  1.2957  2.2021  1.6547
13233TIP3   OH261189   1.743   2.354   1.060  0.6584  0.4576 -0.2006
13233TIP3    H161190   1.726   2.344   1.154 -0.0652  1.5857 -0.2063
13233TIP3    H261191   1.820   2.411   1.056  2.1791 -1.5508 -0.2553
13234TIP3   OH261192   5.825   0.673  13.427 -0.3245  0.5609  0.0820
13234TIP3    H161193   5.901   0.670  13.486  0.2697 -0.7216 -0.7198
13234TIP3    H261194   5.759   0.619  13.471 -0.7821  1.6825  0.7848
13235TIP3   OH261195   5.143   3.380   1.609 -0.0435  0.2448  0.0770
13235TIP3    H161196   5.203   3.399   1.682  0.4210  1.1565 -0.5374
13235TIP3    H261197   5.168   3.292   1.581  1.7710  1.0562 -0.8998
13236TIP3   OH261198   0.258   0.795  13.805 -0.9207  0.4956 -0.0849
13236TIP3    H161199   0.302   0.713  13.826 -2.2779 -0.3151 -0.4116
13236TIP3    H261200   0.319   0.863  13.835  0.6235 -0.6059 -0.6597
13237TIP3   OH261201   3.158   3.301   4.201 -0.0200 -0.2311 -0.1918
13237TIP3    H161202   3.104   3.303   4.122 -0.9334  1.4886  0.4370
13237TIP3    H261203   3.186   3.392   4.213  0.7790 -0.6217  1.0131
13238TIP3   OH261204   1.330   1.714  16.820  0.8301  0.4276  0.0254
13238TIP3    H161205   1.326   1.800  16.776  0.9371  0.8550  0.8410
13238TIP3    H261206   1.273   1.724  16.896 -0.7482 -0.8676 -0.9467
13239TIP3   OH261207   2.148   3.050   4.172  0.5351  0.6637  0.4984
13239TIP3    H161208   2.078   3.114   4.161  0.1384  0.3735  1.3271
13239TIP3    H261209   2.118   2.973   4.124  0.2767  0.5370  0.8582
13240TIP3   OH261210   6.525   3.667   4.128  0.2790  0.1815  0.2630
13240TIP3    H161211   6.429   3.673   4.133  0.2573 -0.3846  0.5238
13240TIP3    H261212   6.544   3.647   4.037  0.2113  1.4267 -0.0443
13241TIP3   OH261213   5.640   2.839  13.888 -0.6393  0.0227  0.0535
13241TIP3    H161214   5.685   2.758  13.866 -1.9205 -0.1657 -2.0211
13241TIP3    H261215   5.608   2.826  13.978  0.8179 -0.9904  0.4341
13242TIP3   OH261216   6.795   2.511   1.967 -0.1243 -0.0711 -0.0153
13242TIP3    H161217   6.882   2.536   1.998 -0.1820  0.3546 -0.2016
13242TIP3    H261218   6.798   2.415   1.965  0.0235 -0.0866  0.8669
13243TIP3   OH261219   5.216   5.183  16.897 -0.1362 -0.1663  0.2066
13243TIP3    H161220   5.249   5.242  16.965  2.7746  0.0480 -1.3242
13243TIP3    H261221   5.206   5.098  16.942 -0.4781  0.5172  1.4435
13244TIP3   OH261222   4.743   0.614  12.484  0.2881  0.4265 -0.5018
13244TIP3    H161223   4.751   0.559  12.561  0.0705  0.5555 -0.3882
13244TIP3    H261224   4.832   0.645  12.467  0.1132  1.5047  0.5033
13245TIP3   OH261225   3.884   2.777   5.152 -0.4797  0.7968  1.0212
13245TIP3    H161226   3.832   2.835   5.208  0.9057  1.4014  1.7323
13245TIP3    H261227   3.958   2.751   5.208 -0.7110 -1.0914  0.4682
13246TIP3   OH261228   1.136   4.570  14.925 -0.1582  0.1190  0.1648
13246TIP3    H161229   1.047   4.592  14.901 -0.5862  1.5300  2.8206
13246TIP3    H261230   1.177   4.654  14.949  1.8223 -0.5222 -0.8039
13247TIP3   OH261231   5.518   0.821   6.039  0.0808 -0.1686  0.1017
13247TIP3    H161232   5.518   0.730   6.071 -0.3676 -0.5785 -1.0502
13247TIP3    H261233   5.501   0.873   6.118  1.2402 -1.0151  0.9304
13248TIP3   OH261234   4.564   0.264  11.889 -0.0875 -0.5435 -0.4667
13248TIP3    H161235   4.647   0.222  11.911 -1.1716 -1.9109  1.1635
13248TIP3    H261236   4.518   0.272  11.973 -1.9664 -0.6411 -1.4512
13249TIP3   OH261237   0.635   4.538   0.448 -0.2702  0.1566 -0.3735
13249TIP3    H161238   0.700   4.475   0.477 -0.9658 -0.6201 -0.4647
13249TIP3    H261239   0.579   4.552   0.524 -1.5348 -1.1677 -1.0360
13250TIP3   OH261240   4.525   5.894   2.154  0.6102 -0.2407  0.1404
13250TIP3    H161241   4.431   5.881   2.167  0.8339 -0.1163  1.9343
13250TIP3    H261242   4.543   5.979   2.194  1.2358  0.4080 -1.4747
13251TIP3   OH261243   2.957   4.668   1.003 -0.5908 -0.4169  0.0834
13251TIP3    H161244   2.959   4.625   1.089  1.0121 -1.4142 -0.4256
13251TIP3    H261245   2.918   4.604   0.944  0.2126 -0.5228 -0.3396
13252TIP3   OH261246   1.051   1.997  13.061 -0.2819 -0.4516  0.1402
13252TIP3    H161247   1.058   2.090  13.083 -0.2249 -0.4831  0.2570
13252TIP3    H261248   0.993   1.995  12.986 -0.2155 -0.3135  0.0841
13253TIP3   OH261249   1.603   3.780   0.574 -0.1956  0.4738 -0.3445
13253TIP3    H161250   1.553   3.766   0.654 -0.6388  1.7692 -0.3891
13253TIP3    H261251   1.540   3.764   0.504 -0.0949  0.4140 -0.4214
13254TIP3   OH261252   1.732   0.326  13.097 -0.1308  0.7768  0.0664
13254TIP3    H161253   1.801   0.375  13.142  0.2262  0.8107 -0.5110
13254TIP3    H261254   1.706   0.383  13.024  1.3131 -0.5216 -1.4916
13255TIP3   OH261255   5.492   1.615   2.977 -0.6608  0.2671  0.0380
13255TIP3    H161256   5.470   1.700   3.013  0.5328  0.3733  0.5432
13255TIP3    H261257   5.582   1.624   2.946 -1.2362 -0.1860 -1.8459
13256TIP3   OH261258   5.569   2.480   3.573 -0.3291  0.2132  0.5295
13256TIP3    H161259   5.579   2.474   3.668  1.7840  0.8969  0.3755
13256TIP3    H261260   5.545   2.571   3.557  1.7572  0.7270  0.2339
13257TIP3   OH261261   5.858   0.691  11.016 -0.9620  0.2865  0.0657
13257TIP3    H161262   5.771   0.650  11.020 -1.3754  1.0975 -0.3406
13257TIP3    H261263   5.840   0.784  11.030 -0.0678  0.3617  0.6994
13258TIP3   OH261264   2.180   2.377  13.899 -0.1592  0.4069 -0.3387
13258TIP3    H161265   2.141   2.364  13.985 -0.1074 -0.9339 -0.5189
13258TIP3    H261266   2.212   2.291  13.873 -0.3475  0.7602 -1.7880
13259TIP3   OH261267   0.196   5.384  12.798 -0.3529  0.2843  0.4987
13259TIP3    H161268   0.238   5.449  12.742  0.9748 -1.0561 -0.1063
13259TIP3    H261269   0.157   5.322  12.737  1.0925 -1.1859  1.0341
13260TIP3   OH261270   4.207   4.432   0.080  0.1018  0.0991 -0.0523
13260TIP3    H161271   4.302   4.436   0.065  0.0268 -0.9885 -0.9182
13260TIP3    H261272   4.198   4.393   0.167  0.4558  1.0881  0.4375
13261TIP3   OH261273   5.926   5.192   5.326  0.0327  0.0648 -0.0075
13261TIP3    H161274   5.961   5.281   5.327 -0.0569  0.1488  3.5992
13261TIP3    H261275   5.998   5.137   5.295  0.3379  1.2778 -1.4811
13262TIP3   OH261276   5.975   1.225  16.911  0.4628 -0.4760  0.5905
13262TIP3    H161277   5.966   1.273  16.993  2.3717 -1.3846  1.3394
13262TIP3    H261278   5.889   1.233  16.869 -0.2697  0.6795  2.2835
13263TIP3   OH261279   5.929   2.662  13.549  0.2497 -0.5800  0.3145
13263TIP3    H161280   5.907   2.602  13.478 -1.7496  1.3519 -0.7500
13263TIP3    H261281   6.024   2.676  13.539  0.1842 -1.1545 -1.3165
13264TIP3   OH261282   0.976   2.015   2.752 -0.8141  0.4367 -0.1920
13264TIP3    H161283   0.934   2.057   2.827 -0.7008  1.5877 -0.7586
13264TIP3    H261284   0.921   2.041   2.677  0.1546  0.8668 -0.7601
13265TIP3   OH261285   6.680   2.397   1.531 -0.0135  0.3104  0.0184
13265TIP3    H161286   6.760   2.389   1.583  0.5704  0.2110 -0.8932
13265TIP3    H261287   6.653   2.488   1.543  0.3885  0.4197  0.0949
13266TIP3   OH261288   0.359   0.669  15.114 -0.2114 -0.6390  0.0090
13266TIP3    H161289   0.433   0.615  15.139 -0.3516 -0.5286  0.6961
13266TIP3    H261290   0.383   0.707  15.030  1.6903  1.5206  1.4394
13267TIP3   OH261291   4.364   5.435   2.462  0.1244 -0.0602  0.0094
13267TIP3    H161292   4.449   5.392   2.474 -0.3096 -0.9533 -0.1063
13267TIP3    H261293   4.311   5.405   2.535 -0.4600 -0.4155 -0.5573
13268TIP3   OH261294   3.494   2.061  16.117 -0.5280 -0.3115  0.0315
13268TIP3    H161295   3.412   2.014  16.128 -1.3510  0.8003 -1.2337
13268TIP3    H261296   3.503   2.112  16.198 -1.8179  0.6376 -0.3943
13269TIP3   OH261297   6.163   1.063  17.012 -0.5316  0.1399 -0.5634
13269TIP3    H161298   6.253   1.097  17.008 -0.6788  1.3103  3.5760
13269TIP3    H261299   6.113   1.123  16.956  0.5959  1.8896  0.2696
13270TIP3   OH261300   1.766   2.555   2.974  0.3165 -0.2366  0.4263
13270TIP3    H161301   1.705   2.618   2.935  2.1797 -0.2097 -2.6200
13270TIP3    H261302   1.740   2.471   2.936  1.2264 -0.4373  0.2351
13271TIP3   OH261303   2.075   1.219  16.761 -0.7637  0.5871  0.0470
13271TIP3    H161304   2.067   1.128  16.789 -2.5340  1.1650  1.5176
13271TIP3    H261305   2.116   1.214  16.675  0.2886 -1.5201  0.6335
13272TIP3   OH261306   0.201   0.229  14.392 -0.0457 -0.1076  0.3410
13272TIP3    H161307   0.173   0.154  14.445  0.8145 -0.6030  0.0981
13272TIP3    H261308   0.181   0.305  14.447 -0.6241 -0.5312  0.7249
13273TIP3   OH261309   4.993   0.960  13.429  0.6259 -0.4610 -0.1673
13273TIP3    H161310   4.963   0.926  13.345 -1.3489  0.5745  0.0858
13273TIP3    H261311   5.040   1.041  13.406  2.3758 -1.5335 -0.4699
13274TIP3   OH261312   3.948   0.364   5.169  0.0549 -0.0430 -0.4550
13274TIP3    H161313   3.950   0.446   5.120 -0.1409 -1.1428 -2.3257
13274TIP3    H261314   3.993   0.301   5.113  1.6611 -0.8635  1.6690
13275TIP3   OH261315   1.549   2.271  16.037 -0.3658 -0.3478 -0.2841
13275TIP3    H161316   1.500   2.310  15.965 -0.9529  0.7831  0.7125
13275TIP3    H261317   1.639   2.263  16.003  0.0084  2.8507 -0.1966
13276TIP3   OH261318   5.585   4.138   1.063  0.5221 -0.2496  0.1788
13276TIP3    H161319   5.596   4.204   1.131 -0.2909 -1.8426  1.8780
13276TIP3    H261320   5.602   4.054   1.106 -4.6211 -1.7048 -0.3014
13277TIP3   OH261321   3.618   3.209   0.926 -0.2468  0.2652  0.4004
13277TIP3    H161322   3.659   3.288   0.961 -0.4701  0.3608  0.4482
13277TIP3    H261323   3.594   3.232   0.836  1.6580 -0.4527 -0.3294
13278TIP3   OH261324   3.775   2.235  17.292  0.1534  0.0058 -0.3601
13278TIP3    H161325   3.681   2.249  17.281  0.3749  0.5104 -1.7162
13278TIP3    H261326   3.798   2.177  17.219  0.7850 -0.6464  0.3458
13279TIP3   OH261327   5.232   0.014  16.413  0.4694  0.1991 -0.2962
13279TIP3    H161328   5.290  -0.062  16.423 -0.9610 -0.7433  0.9060
13279TIP3    H261329   5.190   0.001  16.329 -0.1988 -0.6398  0.1621
13280TIP3   OH261330   1.722   4.423   3.799  0.4916  0.4971  0.0055
13280TIP3    H161331   1.818   4.423   3.803  0.4173  0.7314  2.4220
13280TIP3    H261332   1.695   4.370   3.874 -1.2915  2.7006  0.9822
13281TIP3   OH261333   1.398   2.551  13.892 -0.1110 -0.3874 -0.2802
13281TIP3    H161334   1.400   2.523  13.801 -0.3732  0.9159 -0.7034
13281TIP3    H261335   1.481   2.520  13.929 -0.2047 -1.3049 -0.8433
13282TIP3   OH261336   4.375   5.633  15.904 -0.0337 -0.2969 -0.1555
13282TIP3    H161337   4.420   5.602  15.983 -0.3081  1.2241  0.6229
13282TIP3    H261338   4.347   5.722  15.926 -0.5067 -0.0180 -1.8217
13283TIP3   OH261339   5.463   4.905  11.943 -0.2594  0.2712  0.0309
13283TIP3    H161340   5.548   4.864  11.959  0.0249  0.2899 -1.3706
13283TIP3    H261341   5.411   4.881  12.020  0.7640 -0.3940  0.5392
13284TIP3   OH261342   4.377   0.119  13.663  0.4681 -0.2608  0.2141
13284TIP3    H161343   4.432   0.196  13.678  3.4400 -2.4266  1.0431
13284TIP3    H261344   4.338   0.101  13.748  2.1881 -1.3814  0.8043
13285TIP3   OH261345   1.298   2.284  17.235  0.2182  0.0525 -0.1378
13285TIP3    H161346   1.307   2.293  17.330 -0.4080  2.3051 -0.2586
13285TIP3    H261347   1.387   2.275  17.203  0.4654 -0.2671  0.6332
13286TIP3   OH261348   2.156   3.666   4.638  0.2154  0.0919  0.0792
13286TIP3    H161349   2.101   3.667   4.560 -0.1302 -1.4897  0.2824
13286TIP3    H261350   2.243   3.691   4.607 -0.1604  0.5496 -0.6141
13287TIP3   OH261351   2.467   3.507   0.138  0.1350 -0.3923  0.1848
13287TIP3    H161352   2.477   3.464   0.053 -1.4974 -0.6225  0.0943
13287TIP3    H261353   2.471   3.600   0.119  0.7794 -0.4522  0.0012
13288TIP3   OH261354   3.077   1.508   5.952 -0.0426 -0.2670 -0.2411
13288TIP3    H161355   3.142   1.556   6.004 -0.7496  0.2330  0.1935
13288TIP3    H261356   3.036   1.448   6.015 -0.2287 -0.3441 -0.4348
13289TIP3   OH261357   4.674   5.847   3.191  0.4228  0.3559  0.6789
13289TIP3    H161358   4.641   5.896   3.266 -0.2843  2.0087 -0.6792
13289TIP3    H261359   4.606   5.857   3.124  2.5409  1.7389 -1.3324
13290TIP3   OH261360   1.023   2.396  16.627  0.6856  0.1412 -0.0401
13290TIP3    H161361   1.099   2.351  16.664  1.3300  0.4883 -0.9528
13290TIP3    H261362   1.058   2.454  16.561 -0.5827 -1.5536 -2.2841
13291TIP3   OH261363   5.236   4.117  14.058 -0.1600 -0.4593 -0.8522
13291TIP3    H161364   5.228   4.210  14.082  1.0575 -0.1596 -1.5701
13291TIP3    H261365   5.262   4.074  14.140 -1.4988 -0.2895 -0.3337
13292TIP3   OH261366   4.398   4.512   4.066  0.2795  0.3063  0.5359
13292TIP3    H161367   4.421   4.439   4.009  1.0492  0.3851  0.7434
13292TIP3    H261368   4.339   4.566   4.013  1.9065  0.9970 -0.6094
13293TIP3   OH261369   3.695   4.554  15.347 -0.3040  0.1723  0.5228
13293TIP3    H161370   3.723   4.486  15.286 -0.2430 -0.1438  0.9015
13293TIP3    H261371   3.776   4.591  15.382 -0.3462 -0.0352  0.8397
13294TIP3   OH261372   6.069   5.874  16.210 -0.8947 -0.5606  0.4133
13294TIP3    H161373   6.062   5.899  16.302  0.3173  0.5145  0.2269
13294TIP3    H261374   6.075   5.779  16.212  3.2522 -0.4029  1.7860
13295TIP3   OH261375   3.709   0.520  12.513  0.1232  0.4265 -0.6370
13295TIP3    H161376   3.774   0.452  12.527  0.5021  0.8613 -0.3023
13295TIP3    H261377   3.683   0.548  12.601  1.0773  1.7733 -0.7677
13296TIP3   OH261378   3.622   2.890  14.667  0.0994  0.3398 -0.1824
13296TIP3    H161379   3.570   2.843  14.602 -0.4001 -1.7173  1.6636
13296TIP3    H261380   3.558   2.931  14.724  0.4563 -1.3774  1.5037
13297TIP3   OH261381   0.548   2.062   5.329 -0.0461 -0.0495  0.1592
13297TIP3    H161382   0.460   2.025   5.328 -0.4689  0.9533 -1.4971
13297TIP3    H261383   0.585   2.036   5.413 -2.0391 -0.2172  0.9877
13298TIP3   OH261384   0.812   1.143  11.776  0.1495 -0.2798  0.5517
13298TIP3    H161385   0.725   1.103  11.769  0.6788 -1.2049 -1.1293
13298TIP3    H261386   0.857   1.089  11.842 -0.9779  1.0652  2.4735
13299TIP3   OH261387   6.721   5.957   4.182 -0.2188 -0.1965  0.0504
13299TIP3    H161388   6.733   5.975   4.275  0.4994  0.4208 -0.1543
13299TIP3    H261389   6.725   6.043   4.141  0.6738 -0.5732 -0.6732
13300TIP3   OH261390   2.884   4.550   1.541  0.3215  0.2738  0.0216
13300TIP3    H161391   2.883   4.619   1.607  1.5672 -1.1476  1.5653
13300TIP3    H261392   2.823   4.484   1.574 -1.0382  0.7033 -1.5594
13301TIP3   OH261393   1.330   3.374   2.511 -0.2230 -0.2985  0.9388
13301TIP3    H161394   1.334   3.354   2.418 -0.9015  0.3897  0.7495
13301TIP3    H261395   1.242   3.410   2.524  0.1239  0.2949  1.7002
13302TIP3   OH261396   0.691   2.458  12.042 -0.1324  0.3605 -0.2870
13302TIP3    H161397   0.760   2.396  12.066 -1.7480 -1.0965  0.6843
13302TIP3    H261398   0.718   2.541  12.082  1.6967  0.1372 -1.0138
13303TIP3   OH261399   2.861   0.134   2.139  0.3844  0.0341 -0.1136
13303TIP3    H161400   2.835   0.094   2.223  0.8991  1.4392  0.7320
13303TIP3    H261401   2.957   0.132   2.140  0.4233  1.4554  0.0328
13304TIP3   OH261402   3.370   5.029  15.810  0.0612 -0.1603 -0.1350
13304TIP3    H161403   3.356   5.004  15.719 -0.9981  0.6529 -0.2004
13304TIP3    H261404   3.368   4.945  15.858  0.5542 -0.5785 -0.8355
13305TIP3   OH261405   5.364   2.316   1.312  0.1374  0.0437 -0.7386
13305TIP3    H161406   5.431   2.381   1.331 -1.1896  0.8632  1.3567
13305TIP3    H261407   5.401   2.233   1.342  0.0398  0.5719  0.8972
13306TIP3   OH261408   1.496   2.343   6.078 -0.2133  0.3327 -0.0803
13306TIP3    H161409   1.420   2.394   6.106  1.0184  1.3886  1.4152
13306TIP3    H261410   1.476   2.253   6.103 -1.5471  0.3667 -0.9467
13307TIP3   OH261411   5.793   6.556  16.286 -0.5764  0.1401  0.1512
13307TIP3    H161412   5.844   6.478  16.263  0.8337  1.3481 -0.9181
13307TIP3    H261413   5.843   6.597  16.357 -1.7789 -0.3916  1.3179
13308TIP3   OH261414   1.462   5.136  16.893  0.0547 -0.7100 -0.2682
13308TIP3    H161415   1.505   5.204  16.944 -2.6284  0.7552  0.1450
13308TIP3    H261416   1.370   5.140  16.921 -0.2948 -4.0813 -0.6950
13309TIP3   OH261417   2.580   1.692  15.356 -0.2055 -0.3577 -0.0069
13309TIP3    H161418   2.559   1.714  15.265 -1.8793  1.3005  0.7684
13309TIP3    H261419   2.506   1.639  15.386  0.6433 -1.4487  0.2326
13310TIP3   OH261420   2.082   2.278   5.224  0.3285  0.4333  0.2179
13310TIP3    H161421   2.173   2.296   5.201  0.3445 -0.0625 -0.1093
13310TIP3    H261422   2.072   2.314   5.312  0.3843  1.9360 -0.3786
13311TIP3   OH261423   6.295   6.063  16.682 -0.3931  0.1267 -0.2114
13311TIP3    H161424   6.370   6.070  16.623  0.3769  1.3244  0.8901
13311TIP3    H261425   6.327   6.012  16.756 -0.6066  0.8520  0.3772
13312TIP3   OH261426   5.399   1.966   0.583 -0.1243  0.1048 -0.3116
13312TIP3    H161427   5.350   2.020   0.521  2.3279  2.2976 -0.4236
13312TIP3    H261428   5.420   1.887   0.534  1.2741  1.5596 -2.1339
13313TIP3   OH261429   1.190   1.411  13.822  0.8699 -0.8944  0.2092
13313TIP3    H161430   1.271   1.366  13.798  2.5288  0.8886  2.2861
13313TIP3    H261431   1.160   1.451  13.741  2.7593 -0.5082 -0.3219
13314TIP3   OH261432   5.182   4.021   2.375 -0.0487  0.0185 -0.4746
13314TIP3    H161433   5.256   4.069   2.411  0.3674 -0.3773 -0.7964
13314TIP3    H261434   5.219   3.938   2.344 -0.1742  0.7947 -2.8238
13315TIP3   OH261435   0.813   3.327  14.070 -0.2002 -0.2624  0.0275
13315TIP3    H161436   0.891   3.316  14.124  0.4417 -0.1400 -0.8591
13315TIP3    H261437   0.822   3.414  14.032 -0.3619 -0.5644 -0.7150
13316TIP3   OH261438   4.230   0.729  10.565 -0.3355  0.5803 -0.0469
13316TIP3    H161439   4.174   0.678  10.506 -0.5121  0.2061  0.4449
13316TIP3    H261440   4.228   0.818  10.529  0.1652  0.1903 -1.0450
13317TIP3   OH261441   4.693   5.074  14.067 -0.1136 -0.0465 -0.3422
13317TIP3    H161442   4.694   4.998  14.126 -0.2914 -0.6201 -1.0746
13317TIP3    H261443   4.748   5.047  13.993 -2.1013 -0.3663 -1.7421
13318TIP3   OH261444   3.042   5.916   4.032 -0.5673  0.3660  0.4167
13318TIP3    H161445   3.110   5.854   4.059 -0.0007 -0.0615 -1.8868
13318TIP3    H261446   3.061   5.996   4.080  1.4679  0.1910 -0.0817
13319TIP3   OH261447   1.009   6.233  13.678  0.0343  0.6367 -0.1070
13319TIP3    H161448   1.042   6.264  13.594  1.3389  0.4373  0.3264
13319TIP3    H261449   0.925   6.193  13.656  0.4354  0.4336 -1.3502
13320TIP3   OH261450   5.654   0.396   0.141  0.3888 -0.3370 -0.2156
13320TIP3    H161451   5.603   0.473   0.116  0.9326 -0.0420 -0.4220
13320TIP3    H261452   5.628   0.379   0.232 -0.8780 -0.8374 -0.6564
13321TIP3   OH261453   0.808   0.868   4.311  0.1155 -0.0016 -0.4358
13321TIP3    H161454   0.892   0.913   4.317 -0.1738  0.6219 -1.1227
13321TIP3    H261455   0.747   0.933   4.276 -0.6101 -0.5122 -0.1410
13322TIP3   OH261456   5.986   2.576   4.733 -0.4911 -0.6395  0.3126
13322TIP3    H161457   6.015   2.514   4.800  0.0592  0.3981  1.0536
13322TIP3    H261458   5.925   2.634   4.779  1.2830  1.1980  0.3781
13323TIP3   OH261459   2.136   1.664   3.383 -0.0258 -0.2350  0.0279
13323TIP3    H161460   2.132   1.748   3.429 -1.3990 -0.2049 -0.1054
13323TIP3    H261461   2.134   1.599   3.453  1.0833 -0.1623  0.1337
13324TIP3   OH261462   4.640   2.671  14.446  0.7472  0.3409 -0.1100
13324TIP3    H161463   4.579   2.739  14.475 -1.0940 -0.5661 -1.7302
13324TIP3    H261464   4.726   2.702  14.474 -0.2081  2.6527  0.3894
13325TIP3   OH261465   6.675   2.494  15.357 -0.1927 -0.3489 -0.1879
13325TIP3    H161466   6.604   2.531  15.409  0.4483  0.2598  0.2700
13325TIP3    H261467   6.706   2.419  15.408 -0.0338 -0.1778 -0.0304
13326TIP3   OH261468   4.070   6.636  11.754  0.2446 -0.3630  0.0578
13326TIP3    H161469   4.094   6.591  11.835 -2.2760  0.4285  1.2828
13326TIP3    H261470   4.101   6.725  11.766  0.0006 -0.2834  0.0978
13327TIP3   OH261471   0.943   3.662  14.532  0.1026  0.2103 -0.3894
13327TIP3    H161472   0.956   3.596  14.600 -1.7101 -1.0542 -1.2170
13327TIP3    H261473   1.031   3.693  14.511  0.9284 -1.4464  0.5080
13328TIP3   OH261474   4.183   2.317   3.158 -0.2579 -0.6961  1.1256
13328TIP3    H161475   4.099   2.293   3.119 -0.0742 -0.6271  0.6883
13328TIP3    H261476   4.171   2.300   3.252 -0.9925 -0.0358  1.1610
13329TIP3   OH261477   3.867   2.969  12.093 -0.2180  0.3025 -0.1376
13329TIP3    H161478   3.799   2.909  12.062  0.2718 -1.0231  1.2482
13329TIP3    H261479   3.929   2.976  12.021 -0.6228 -0.3418 -0.5509
13330TIP3   OH261480   1.782   5.227  16.681 -0.4793  0.1112 -0.0070
13330TIP3    H161481   1.712   5.189  16.627  0.9635 -0.7567 -1.3300
13330TIP3    H261482   1.743   5.305  16.719 -2.4053 -0.7593 -0.1085
13331TIP3   OH261483   4.114   2.288   0.601 -0.0800  0.6805  0.2501
13331TIP3    H161484   4.161   2.344   0.539  0.3217  0.5447  0.4293
13331TIP3    H261485   4.050   2.241   0.547  1.5869 -0.8950 -0.3841
13332TIP3   OH261486   0.404   5.483   3.745 -0.2672 -0.4539 -0.2220
13332TIP3    H161487   0.428   5.533   3.667 -1.2974  0.6053  0.1214
13332TIP3    H261488   0.487   5.465   3.789  0.3455 -1.2462 -1.6682
13333TIP3   OH261489   0.227   2.574   6.356 -0.3929 -0.0155  0.0746
13333TIP3    H161490   0.209   2.515   6.429  0.8513  0.5270  0.8368
13333TIP3    H261491   0.209   2.521   6.278  0.7116 -1.4219  0.7546
13334TIP3   OH261492   6.314   5.433   5.556  0.3350 -0.0667  0.0217
13334TIP3    H161493   6.297   5.394   5.471  0.2957  1.1617 -0.5454
13334TIP3    H261494   6.406   5.461   5.551 -0.1162  1.4059 -0.1885
13335TIP3   OH261495   2.527   3.435  14.090 -0.0294 -0.2645  0.3436
13335TIP3    H161496   2.589   3.476  14.030 -1.7757 -0.2256 -1.4904
13335TIP3    H261497   2.564   3.450  14.177  2.5040 -0.2189 -0.6960
13336TIP3   OH261498   1.386   5.819   0.277  0.2342 -0.3146 -0.0989
13336TIP3    H161499   1.324   5.891   0.274 -0.2930 -0.7061  1.1109
13336TIP3    H261500   1.364   5.765   0.201 -0.1494  0.1598 -0.3240
13337TIP3   OH261501   1.946   1.684   0.354  0.2306  0.2498 -0.1362
13337TIP3    H161502   1.989   1.655   0.274 -0.0857  0.0264 -0.2291
13337TIP3    H261503   2.010   1.740   0.398  1.0636 -1.0624  0.3294
13338TIP3   OH261504   0.718   2.834   1.025  0.2409 -0.0251  0.0186
13338TIP3    H161505   0.754   2.843   0.937 -0.4535  1.7633 -0.1128
13338TIP3    H261506   0.795   2.829   1.082  0.7374  2.0243 -0.4165
13339TIP3   OH261507   3.168   0.186   5.922  0.2085  0.2273  0.2617
13339TIP3    H161508   3.185   0.263   5.977 -0.1588  0.6171 -0.1620
13339TIP3    H261509   3.145   0.117   5.983  0.2990  0.5224  0.6318
13340TIP3   OH261510   3.918   5.649  14.694  0.2767 -0.8444 -0.3828
13340TIP3    H161511   3.902   5.568  14.743  1.0891  0.7196  2.5497
13340TIP3    H261512   3.840   5.703  14.712  0.7653 -0.1010 -0.4927
13341TIP3   OH261513   0.851   6.324   4.690  0.5283 -0.0035  0.1063
13341TIP3    H161514   0.828   6.252   4.630  0.2786 -0.5676  0.8749
13341TIP3    H261515   0.838   6.287   4.777  2.0620  0.4164  0.5315
13342TIP3   OH261516   4.694   3.673  14.926 -0.5083  0.6896 -0.3470
13342TIP3    H161517   4.784   3.696  14.946 -0.6964  1.0491  0.0816
13342TIP3    H261518   4.692   3.577  14.930 -0.3110  0.7138  0.3383
13343TIP3   OH261519   2.593   2.431  12.475  0.0694  0.3192 -0.0102
13343TIP3    H161520   2.640   2.381  12.542 -0.0745  0.5021  0.2266
13343TIP3    H261521   2.600   2.522  12.504 -0.8250  0.3008  0.2661
13344TIP3   OH261522   5.234   5.297  15.221  0.7966  0.0946  0.0082
13344TIP3    H161523   5.279   5.337  15.296  1.3700 -0.2581 -0.1486
13344TIP3    H261524   5.181   5.227  15.260  0.5962  0.3297  0.1598
13345TIP3   OH261525   1.335   3.378   3.982 -0.3152  0.3586 -0.4260
13345TIP3    H161526   1.244   3.401   4.002 -0.0957 -0.4198  1.6412
13345TIP3    H261527   1.385   3.456   4.005 -0.3446  0.4184 -0.5635
13346TIP3   OH261528   5.194   3.771  13.420  0.1169  0.1952  0.3705
13346TIP3    H161529   5.158   3.850  13.461 -1.6974  0.3775 -1.5158
13346TIP3    H261530   5.119   3.729  13.379  1.9821  0.6033 -3.7082
13347TIP3   OH261531   1.925   5.403  14.199 -0.5889 -0.1587  0.2568
13347TIP3    H161532   1.945   5.473  14.137  0.1582 -1.0092 -0.4778
13347TIP3    H261533   2.010   5.377  14.235 -0.8161 -0.9147  0.2693
13348TIP3   OH261534   6.127   2.119   2.643  0.3399  0.4718 -0.4313
13348TIP3    H161535   6.135   2.212   2.622  1.5072  0.3739 -0.4783
13348TIP3    H261536   6.186   2.106   2.717  0.6052 -0.3397 -0.7792
13349TIP3   OH261537   5.446   3.207   5.126  0.2424 -0.6612  0.2967
13349TIP3    H161538   5.385   3.259   5.177 -0.3099 -1.2659  0.2583
13349TIP3    H261539   5.517   3.268   5.103  0.1363 -0.2136  1.1628
13350TIP3   OH261540   2.635   4.721  13.181  0.2589 -0.0037  0.5297
13350TIP3    H161541   2.689   4.671  13.243  0.2882  0.3597  0.7992
13350TIP3    H261542   2.630   4.809  13.219  0.0227  0.1387  0.1701
13351TIP3   OH261543   4.762   1.789   0.639 -0.3092 -0.4913  0.2261
13351TIP3    H161544   4.748   1.879   0.670  4.2417  0.7218 -0.8738
13351TIP3    H261545   4.823   1.751   0.702  0.9419 -1.4443 -1.5229
13352TIP3   OH261546   1.540   3.161   2.443 -0.2414  0.2504  0.1018
13352TIP3    H161547   1.465   3.116   2.481  0.3723  0.4766  1.6009
13352TIP3    H261548   1.567   3.225   2.509  1.6030 -0.2001 -0.1826
13353TIP3   OH261549   0.107   4.499   3.292  0.5579 -0.1882  0.0308
13353TIP3    H161550   0.187   4.453   3.269 -0.2781 -1.7095  0.0778
13353TIP3    H261551   0.067   4.445   3.361 -0.2626  0.7986  0.3483
13354TIP3   OH261552   5.198   4.230  11.245  0.1341 -0.1832  0.2968
13354TIP3    H161553   5.212   4.186  11.161 -0.2195 -0.9184  0.6210
13354TIP3    H261554   5.112   4.200  11.274  0.1974  0.1741  0.8631
13355TIP3   OH261555   1.218   2.373  14.887 -0.0073  0.0583  0.2722
13355TIP3    H161556   1.297   2.384  14.833 -0.5245 -2.2735 -1.0321
13355TIP3    H261557   1.236   2.425  14.966  3.0555 -0.7912  0.2224
13356TIP3   OH261558   4.814   1.297   5.751 -0.2669  0.2865  0.5364
13356TIP3    H161559   4.743   1.308   5.687 -0.3808 -1.7688  0.2860
13356TIP3    H261560   4.806   1.373   5.809 -1.4510  1.0949 -0.6486
13357TIP3   OH261561   1.534   4.435   0.738 -0.2890 -0.2618  0.0551
13357TIP3    H161562   1.549   4.341   0.745  0.3023 -0.0227  2.0852
13357TIP3    H261563   1.495   4.446   0.651 -0.5058 -2.3895 -0.1445
13358TIP3   OH261564   4.235   3.983  15.749  0.5087  0.0981  0.1017
13358TIP3    H161565   4.145   3.994  15.778  0.0330 -5.4411  1.2407
13358TIP3    H261566   4.288   3.998  15.827  0.3274  0.0182  0.2384
13359TIP3   OH261567   5.283   5.513  13.619  0.0767 -0.1230 -0.3403
13359TIP3    H161568   5.233   5.446  13.665 -0.1497  0.3188  0.0640
13359TIP3    H261569   5.371   5.508  13.658 -0.1810  0.4184  0.3225
13360TIP3   OH261570   0.363   3.542  17.056  0.1562  0.3153  0.1327
13360TIP3    H161571   0.413   3.601  17.000 -1.8161  2.1316  0.2202
13360TIP3    H261572   0.352   3.590  17.138 -1.1031 -0.3411  0.3705
13361TIP3   OH261573   5.895   4.836   1.813 -0.0926 -0.2850 -0.1728
13361TIP3    H161574   5.916   4.922   1.850 -3.2734  0.3066  0.3169
13361TIP3    H261575   5.961   4.824   1.744  0.2122  2.6946 -0.4761
13362TIP3   OH261576   5.132   1.771  15.293 -0.6407 -0.1228  0.4899
13362TIP3    H161577   5.126   1.861  15.324 -1.7506 -0.1391  0.3289
13362TIP3    H261578   5.042   1.739  15.294 -0.2354 -1.2740  0.6734
13363TIP3   OH261579   2.690   4.769   4.411  0.0955 -0.0352 -0.1152
13363TIP3    H161580   2.660   4.769   4.501  2.2325 -0.3756  0.6269
13363TIP3    H261581   2.662   4.684   4.376 -1.0470  0.2460  0.0958
13364TIP3   OH261582   4.349   3.632   0.653 -0.1756  0.6569  0.0242
13364TIP3    H161583   4.254   3.625   0.655 -0.0860 -0.4626  2.1930
13364TIP3    H261584   4.378   3.560   0.596 -0.6323  1.2085 -0.9082
13365TIP3   OH261585   4.834   4.587  15.845 -0.5294  1.1863  0.0203
13365TIP3    H161586   4.864   4.651  15.909 -0.1419  0.1470  0.8986
13365TIP3    H261587   4.817   4.508  15.897  0.5786  0.0769 -1.2517
13366TIP3   OH261588   3.279   0.687  14.985  0.3793  0.4253 -0.4313
13366TIP3    H161589   3.202   0.723  15.029  1.3502  1.0943  0.7538
13366TIP3    H261590   3.347   0.686  15.052  1.7187  0.8767 -1.7432
13367TIP3   OH261591   0.507   0.363  11.478 -0.1414  0.4806 -0.5135
13367TIP3    H161592   0.447   0.297  11.513  0.4700 -0.5204 -1.3410
13367TIP3    H261593   0.493   0.362  11.383  1.7814 -0.3672 -0.8141
13368TIP3   OH261594   4.157   5.844   4.888 -0.1710  0.5434  0.4452
13368TIP3    H161595   4.155   5.936   4.915  0.0754  0.8740 -0.6541
13368TIP3    H261596   4.237   5.837   4.835 -1.6442  0.3441 -1.7872
13369TIP3   OH261597   5.378   0.354   3.776  0.1974  0.2273 -0.0054
13369TIP3    H161598   5.428   0.285   3.732 -0.9319 -0.4731 -0.2222
13369TIP3    H261599   5.380   0.427   3.714 -0.3047 -0.3203 -0.6892
13370TIP3   OH261600   2.498   3.084  13.365  1.0316  0.4290  0.3961
13370TIP3    H161601   2.482   3.071  13.459 -0.2849  0.5085  0.1786
13370TIP3    H261602   2.538   3.001  13.337 -2.7700 -1.3831  0.0727
13371TIP3   OH261603   0.330   0.611  15.766  0.5899 -0.3723 -0.4433
13371TIP3    H161604   0.321   0.653  15.852 -2.0436 -0.9781 -0.4017
13371TIP3    H261605   0.400   0.661  15.723  0.4878  1.3002  1.2387
13372TIP3   OH261606   5.110   5.070  11.111  0.3707 -0.0187  0.0152
13372TIP3    H161607   5.054   5.085  11.188  0.6769  2.7391 -0.2654
13372TIP3    H261608   5.049   5.040  11.044 -0.3772  0.4148  0.4821
13373TIP3   OH261609   5.184   6.313   3.790 -0.0880 -0.5468 -0.4708
13373TIP3    H161610   5.144   6.228   3.773  0.9864 -1.3466  0.8710
13373TIP3    H261611   5.156   6.335   3.879  0.9185 -0.2429 -0.2244
13374TIP3   OH261612   2.537   1.990   5.086 -0.3531 -0.0707  0.4796
13374TIP3    H161613   2.559   2.056   5.152  0.2144  1.5034 -1.2154
13374TIP3    H261614   2.444   1.974   5.099  0.1293 -1.1853  2.8563
13375TIP3   OH261615   0.102   6.413   0.291  0.2034 -0.0893  0.2288
13375TIP3    H161616   0.194   6.427   0.314  0.6471  0.2766 -1.6252
13375TIP3    H261617   0.090   6.463   0.210 -1.6278 -0.1512  0.4331
13376TIP3   OH261618   4.969   2.795  13.595 -0.1836 -0.2971  0.0271
13376TIP3    H161619   4.879   2.787  13.561 -0.2666 -1.9555  0.5904
13376TIP3    H261620   4.985   2.889  13.599 -1.6176 -0.0032 -0.8340
13377TIP3   OH261621   1.260   4.939  11.173 -0.1425 -0.3777  0.0321
13377TIP3    H161622   1.242   4.909  11.261 -0.0550  0.3736  0.3149
13377TIP3    H261623   1.242   4.864  11.117 -1.4954 -0.4657  0.5633
13378TIP3   OH261624   0.867   3.561   3.821  0.6325  0.1834 -0.1149
13378TIP3    H161625   0.828   3.607   3.895  3.8155  1.7588  0.7046
13378TIP3    H261626   0.799   3.502   3.790 -2.0651  2.2664  1.6449
13379TIP3   OH261627   2.960   0.999  14.340  0.1259  0.0262 -0.5780
13379TIP3    H161628   3.050   0.973  14.359  0.5008  1.9942  0.4750
13379TIP3    H261629   2.964   1.036  14.252  0.1971 -0.5661 -0.8250
13380TIP3   OH261630   1.148   6.143   5.893 -0.2690  0.0247 -0.4048
13380TIP3    H161631   1.096   6.200   5.950 -2.0976 -0.7971 -1.2161
13380TIP3    H261632   1.214   6.105   5.951  0.3076  2.1268  0.3577
13381TIP3   OH261633   0.970   0.603   2.528  0.1210  0.4304  0.5258
13381TIP3    H161634   1.032   0.664   2.566 -0.3250  0.6279  0.9434
13381TIP3    H261635   0.949   0.640   2.442  3.1456 -1.3859 -1.0515
13382TIP3   OH261636   4.752   4.707  13.108 -0.7171  0.2137  0.0589
13382TIP3    H161637   4.703   4.784  13.137 -1.3929 -0.6847  1.3275
13382TIP3    H261638   4.820   4.743  13.050 -1.1984  1.7288  0.3995
13383TIP3   OH261639   2.987   2.500   1.174 -0.0742 -0.2701  0.2169
13383TIP3    H161640   2.943   2.475   1.256 -0.4795 -0.7254 -0.1422
13383TIP3    H261641   3.080   2.480   1.190  0.0264  0.7651  1.0044
13384TIP3   OH261642   0.125   2.736   4.548 -0.1721  0.4003 -0.2770
13384TIP3    H161643   0.132   2.670   4.479 -1.1519 -1.1601  1.0749
13384TIP3    H261644   0.054   2.704   4.605 -0.3145  2.3566  0.6892
13385TIP3   OH261645   6.559   2.822  15.062 -0.2417 -0.8050 -1.1386
13385TIP3    H161646   6.609   2.759  15.114 -0.0399  0.8720  0.7772
13385TIP3    H261647   6.625   2.880  15.025 -0.5096 -1.0219 -1.9810
13386TIP3   OH261648   4.315   5.672  16.467  0.7477  0.1867  0.0013
13386TIP3    H161649   4.323   5.654  16.561 -0.7279 -0.2188  0.0514
13386TIP3    H261650   4.277   5.760  16.463 -0.0877 -0.1895 -0.2207
13387TIP3   OH261651   2.866   0.666  11.189  0.6946 -0.2486 -0.3935
13387TIP3    H161652   2.831   0.578  11.204 -0.2939 -0.1458 -1.9633
13387TIP3    H261653   2.788   0.721  11.180  1.3009  1.1402  2.3582
13388TIP3   OH261654   0.417   5.541  11.263 -0.4080  0.2074  0.3995
13388TIP3    H161655   0.337   5.576  11.224 -0.5470 -1.3810 -0.8085
13388TIP3    H261656   0.469   5.511  11.188 -0.9063 -3.3811  1.3715
13389TIP3   OH261657   6.806   2.374  11.449 -0.3822 -0.6604 -0.1875
13389TIP3    H161658   6.736   2.322  11.409  0.3510 -1.0738 -0.9261
13389TIP3    H261659   6.783   2.465  11.429  0.2993 -0.8865 -2.0793
13390TIP3   OH261660   0.981   3.376   3.112  0.3603  0.0713  0.4397
13390TIP3    H161661   1.035   3.397   3.036  1.0571  0.2641  0.9847
13390TIP3    H261662   0.894   3.360   3.075 -0.0902  3.2640 -0.0850
13391TIP3   OH261663   0.219   3.156   4.473  0.6650  0.1655  0.7106
13391TIP3    H161664   0.257   3.099   4.540 -0.7967 -0.9063  0.6676
13391TIP3    H261665   0.186   3.095   4.406  1.9882  1.2139 -0.9240
13392TIP3   OH261666   2.176   2.592   2.843 -0.4769 -0.7506 -0.3121
13392TIP3    H161667   2.178   2.607   2.748  0.8173  0.2243 -0.1389
13392TIP3    H261668   2.131   2.508   2.852 -0.1603 -1.1150 -1.8374
13393TIP3   OH261669   0.720   4.042  11.960 -0.9558 -0.8753  0.8355
13393TIP3    H161670   0.692   3.996  12.038 -0.0060 -0.2762  1.5392
13393TIP3    H261671   0.808   4.073  11.980 -0.9492 -0.1619 -0.2286
13394TIP3   OH261672   3.073   4.918  15.459  0.2076  0.3255  0.2133
13394TIP3    H161673   3.139   4.881  15.400 -1.5038 -1.5280 -0.5978
13394TIP3    H261674   3.015   4.968  15.402 -0.2272  0.3030  0.6327
13395TIP3   OH261675   2.797   5.377  17.267 -0.0765 -0.4047 -0.7808
13395TIP3    H161676   2.886   5.348  17.288 -0.6735 -1.6039  0.1437
13395TIP3    H261677   2.741   5.306  17.296 -1.4986  1.1696  0.4502
13396TIP3   OH261678   6.469   2.354  14.588 -0.2326  0.4007 -0.1909
13396TIP3    H161679   6.459   2.431  14.533 -0.1685  1.0508  0.7044
13396TIP3    H261680   6.497   2.388  14.673 -0.3649 -0.5891  0.2566
13397TIP3   OH261681   6.671   3.030  16.930 -0.0623 -0.1151  0.0665
13397TIP3    H161682   6.632   3.110  16.964  1.2510  0.1319  1.0583
13397TIP3    H261683   6.694   3.050  16.840  0.1928  0.6212  0.2899
13398TIP3   OH261684   6.742   4.451   4.052 -0.1515  0.3746 -0.3035
13398TIP3    H161685   6.677   4.447   4.122 -1.5049  0.8287 -1.4855
13398TIP3    H261686   6.690   4.445   3.972  1.0877  2.6683 -1.3418
13399TIP3   OH261687   2.970   5.554   4.103  0.2442 -0.6607  0.4774
13399TIP3    H161688   2.898   5.617   4.095  0.9886  0.1668  0.0931
13399TIP3    H261689   3.019   5.563   4.021  0.7871 -1.2049  0.7350
13400TIP3   OH261690   4.410   0.469   5.711 -0.0217  0.1895 -0.2802
13400TIP3    H161691   4.409   0.565   5.713 -1.7425  0.1662  1.7571
13400TIP3    H261692   4.336   0.444   5.766 -0.0366 -2.3181 -1.3979
13401TIP3   OH261693   6.757   3.223  11.284 -0.3095  0.1744 -0.2012
13401TIP3    H161694   6.762   3.152  11.348  0.8097  0.4059 -0.0290
13401TIP3    H261695   6.664   3.241  11.277 -0.4923 -0.2659  0.9067
13402TIP3   OH261696   6.109   4.844  13.204 -0.0278 -0.4052  0.1484
13402TIP3    H161697   6.163   4.861  13.127  0.6767 -0.5086  0.6159
13402TIP3    H261698   6.119   4.923  13.258 -0.8823 -0.1391 -0.0697
13403TIP3   OH261699   0.789   6.560   6.174 -0.1137  0.7291  0.4617
13403TIP3    H161700   0.850   6.583   6.105 -0.8852 -0.8966 -0.7839
13403TIP3    H261701   0.806   6.624   6.243  3.0945  0.2216  0.2273
13404TIP3   OH261702   5.612   4.099  10.712  0.1140  0.3955 -0.1958
13404TIP3    H161703   5.620   4.194  10.706  1.3878  0.3657  0.8845
13404TIP3    H261704   5.650   4.076  10.796 -0.4944 -1.0493 -0.2852
13405TIP3   OH261705   5.257   3.059   0.179 -0.2488  0.0826  0.2019
13405TIP3    H161706   5.228   2.982   0.130  0.4655 -0.6449  0.8978
13405TIP3    H261707   5.177   3.097   0.215 -0.4139 -1.5806  1.6444
13406TIP3   OH261708   0.617   3.865  14.242  0.1566  0.4480  0.2242
13406TIP3    H161709   0.525   3.868  14.269 -0.2176 -1.6617 -0.7017
13406TIP3    H261710   0.620   3.918  14.162 -0.4355 -0.1509 -0.1997
13407TIP3   OH261711   1.249   4.853  15.003 -0.3478  0.1959  0.2486
13407TIP3    H161712   1.333   4.825  15.039  0.4868 -0.7927 -2.3553
13407TIP3    H261713   1.217   4.919  15.065  2.2922  0.5481  1.3121
13408TIP3   OH261714   4.681   4.428  13.115 -0.2171  0.1034  0.6748
13408TIP3    H161715   4.698   4.512  13.157  0.3933 -0.7529  2.1516
13408TIP3    H261716   4.690   4.363  13.184 -1.4689 -1.1272 -0.2827
13409TIP3   OH261717   2.897   4.372  16.402  0.6994 -0.1276 -0.1864
13409TIP3    H161718   2.948   4.302  16.362 -0.2128  0.1271 -1.8417
13409TIP3    H261719   2.933   4.453  16.364  0.3385  0.1671  0.0866
13410TIP3   OH261720   5.138   1.450   5.749 -0.1326 -0.4902 -0.2619
13410TIP3    H161721   5.087   1.475   5.826 -0.8371 -0.6122 -0.6861
13410TIP3    H261722   5.214   1.403   5.785 -0.2755 -0.2416  0.3714
13411TIP3   OH261723   2.292   1.714   3.722 -0.0512 -0.5039  0.3172
13411TIP3    H161724   2.275   1.622   3.702  1.5722 -1.0034  1.2083
13411TIP3    H261725   2.266   1.724   3.814 -1.9392  0.3773 -0.2931
13412TIP3   OH261726   4.756   3.116  14.951  0.4077 -0.1798  0.0962
13412TIP3    H161727   4.661   3.103  14.960  0.0900  2.4702  0.7918
13412TIP3    H261728   4.792   3.079  15.032 -0.0148 -1.2721 -0.2046
13413TIP3   OH261729   4.291   3.316  14.865 -0.4784 -0.3431 -0.0667
13413TIP3    H161730   4.213   3.302  14.917 -0.8129 -0.3279 -0.5629
13413TIP3    H261731   4.264   3.378  14.796 -0.3462 -1.2726 -0.9625
13414TIP3   OH261732   6.115   6.225   2.441  0.0810  0.7173  0.7892
13414TIP3    H161733   6.162   6.296   2.396 -0.6875  1.7731  1.6147
13414TIP3    H261734   6.039   6.268   2.480 -1.4966 -0.9262 -0.3675
13415TIP3   OH261735   5.547   1.550  16.232  0.2426 -0.2141  0.2250
13415TIP3    H161736   5.582   1.528  16.146 -1.3259 -1.0223 -0.2077
13415TIP3    H261737   5.591   1.632  16.255  1.7302 -0.7277 -0.7084
13416TIP3   OH261738   1.800   6.537   6.018 -0.4701 -0.1211 -0.2578
13416TIP3    H161739   1.791   6.617   5.966 -2.8548  0.4731  0.9779
13416TIP3    H261740   1.710   6.508   6.033  0.3181 -2.3105  0.4603
13417TIP3   OH261741   0.438   2.595  15.142  0.2241 -0.3531  0.0238
13417TIP3    H161742   0.423   2.669  15.200 -1.0449 -0.1602 -0.5436
13417TIP3    H261743   0.434   2.518  15.200 -1.0906 -0.1679  0.1760
13418TIP3   OH261744   0.524   5.091   5.604  0.1951  0.4572  0.4076
13418TIP3    H161745   0.511   5.167   5.662  2.6407  1.3904 -0.2197
13418TIP3    H261746   0.619   5.084   5.594 -0.0921 -1.3258 -1.3667
13419TIP3   OH261747   3.209   5.316  16.922  0.2745 -0.7109  0.1680
13419TIP3    H161748   3.211   5.258  16.998  0.8273  0.6027  1.1896
13419TIP3    H261749   3.301   5.330  16.900  0.1698  0.1439  0.2333
13420TIP3   OH261750   0.414   1.315  15.377 -0.0358  0.2580  0.0205
13420TIP3    H161751   0.374   1.247  15.430 -1.5844  1.4380  0.4031
13420TIP3    H261752   0.429   1.274  15.291 -0.1574 -0.7992  0.5002
13421TIP3   OH261753   1.348   1.579  11.817 -0.2856 -0.2728 -0.2730
13421TIP3    H161754   1.278   1.533  11.770 -0.5410  0.3730 -0.5304
13421TIP3    H261755   1.374   1.649  11.758  0.2182 -0.1919  0.0466
13422TIP3   OH261756   4.066   2.232   2.598  0.3269  0.9149 -0.2153
13422TIP3    H161757   4.085   2.204   2.688 -0.0173 -2.0989 -1.0185
13422TIP3    H261758   4.145   2.210   2.550 -0.5495 -0.1832 -1.1817
13423TIP3   OH261759   5.724   0.765   5.042  0.3734  0.0134  0.4053
13423TIP3    H161760   5.642   0.813   5.030 -0.0458 -0.3796  1.6253
13423TIP3    H261761   5.698   0.674   5.054  1.0562 -0.2575 -0.0908
13424TIP3   OH261762   1.288   1.577   0.071 -0.9364  0.6093  0.8614
13424TIP3    H161763   1.218   1.513   0.082 -1.3919  1.0326  0.4752
13424TIP3    H261764   1.278   1.635   0.147  0.2728 -0.5090  1.8926
13425TIP3   OH261765   6.022   0.859  12.756 -0.0743  0.5923 -0.3252
13425TIP3    H161766   5.955   0.919  12.722 -1.4515  0.6083  2.2859
13425TIP3    H261767   6.021   0.785  12.695 -1.0905  1.4845 -1.4099
13426TIP3   OH261768   6.076   2.192   4.932 -0.0709 -0.2180 -0.4320
13426TIP3    H161769   6.013   2.121   4.919 -0.2802 -0.5755  2.3595
13426TIP3    H261770   6.023   2.271   4.939  0.0818  0.0630 -2.0915
13427TIP3   OH261771   4.130   3.359  13.136  0.0603 -0.0782 -0.2084
13427TIP3    H161772   4.080   3.397  13.209 -0.9866  0.0757 -0.9905
13427TIP3    H261773   4.067   3.354  13.064  1.1734  0.1087 -1.2172
13428TIP3   OH261774   2.470   6.452  10.757  0.4600  0.5265  0.1254
13428TIP3    H161775   2.402   6.428  10.820 -1.2654  1.2331 -1.4164
13428TIP3    H261776   2.432   6.524  10.707  2.2332  0.7289 -0.9946
13429TIP3   OH261777   0.041   5.769   4.715 -0.1882 -0.2866  0.0515
13429TIP3    H161778  -0.033   5.740   4.768  0.2388 -0.2185  0.7065
13429TIP3    H261779   0.099   5.812   4.778 -1.4177  3.1715 -1.0843
13430TIP3   OH261780   2.691   5.996   6.016 -0.0074  0.6331 -0.1221
13430TIP3    H161781   2.660   5.998   6.107  1.1848 -0.2199  0.3207
13430TIP3    H261782   2.635   6.060   5.970 -0.4227  1.2961  1.2641
13431TIP3   OH261783   2.092   3.069   5.214  0.3830  0.4767  0.0543
13431TIP3    H161784   2.048   3.069   5.129  1.5259 -0.8526 -0.5421
13431TIP3    H261785   2.067   3.153   5.254  0.3317  1.3828 -1.8389
13432TIP3   OH261786   3.998   2.525   5.612 -0.3902 -0.0819 -0.2896
13432TIP3    H161787   3.957   2.442   5.637 -0.6471  0.3571  0.7827
13432TIP3    H261788   4.048   2.551   5.689  0.8207  0.0699 -1.1125
13433TIP3   OH261789   4.813   1.933   3.790  0.1305 -0.0383 -0.4521
13433TIP3    H161790   4.721   1.945   3.813  0.1830  0.8203 -0.6774
13433TIP3    H261791   4.814   1.856   3.733 -0.4530 -0.0114 -0.5000
13434TIP3   OH261792   3.918   1.649   4.594  1.0395 -0.7982  0.1313
13434TIP3    H161793   3.983   1.596   4.548  0.6069  0.4342 -1.9578
13434TIP3    H261794   3.841   1.592   4.603  0.0310 -0.1134 -3.4572
13435TIP3   OH261795   5.301   3.266   2.664 -0.2924 -0.6148  0.3726
13435TIP3    H161796   5.322   3.201   2.732 -1.8622 -0.1930  1.2985
13435TIP3    H261797   5.364   3.249   2.595 -0.7249 -3.2205  0.5429
13436TIP3   OH261798   6.089   5.927  11.445 -0.2784  0.0623  0.3143
13436TIP3    H161799   6.133   5.870  11.381 -0.7661 -0.2001  0.2065
13436TIP3    H261800   6.032   5.867  11.494  0.1620  0.2506  1.0577
13437TIP3   OH261801   3.841   0.851   0.052 -0.4603  0.6126 -0.3498
13437TIP3    H161802   3.933   0.860   0.077 -0.7221  0.8092  0.5729
13437TIP3    H261803   3.842   0.792  -0.023  0.4500  0.8829 -0.5563
13438TIP3   OH261804   5.260   6.091  15.487  0.1484 -0.2819  0.1304
13438TIP3    H161805   5.245   6.048  15.571  2.2619  1.3526  1.3842
13438TIP3    H261806   5.354   6.104  15.483  0.1112 -0.5441 -2.6301
13439TIP3   OH261807   3.559   5.302  12.713 -0.0492 -0.1669  0.2550
13439TIP3    H161808   3.637   5.310  12.767  0.4899  1.4781 -0.7498
13439TIP3    H261809   3.486   5.314  12.774  0.5339  0.7661  0.7782
13440TIP3   OH261810   0.992   2.813   0.516 -0.0715 -0.1278 -0.2934
13440TIP3    H161811   1.002   2.887   0.576 -2.6163 -0.3930  0.5213
13440TIP3    H261812   1.005   2.850   0.429  1.8859  0.6148  0.3013
13441TIP3   OH261813   5.774   4.644   2.210 -0.4609 -0.5685  0.5158
13441TIP3    H161814   5.688   4.633   2.250 -0.7084 -1.0641 -0.1503
13441TIP3    H261815   5.825   4.570   2.243 -0.6448 -0.9389 -0.0216
13442TIP3   OH261816   0.379   0.067   0.657  0.4398 -0.2113  0.5239
13442TIP3    H161817   0.452   0.088   0.715  0.9019 -1.1242  0.2774
13442TIP3    H261818   0.419   0.037   0.576 -0.1938 -1.5055  0.6722
13443TIP3   OH261819   6.227   2.656   4.608  0.2144  0.4866 -0.0448
13443TIP3    H161820   6.155   2.616   4.657  2.0227 -0.8246  1.6426
13443TIP3    H261821   6.263   2.585   4.554  1.9323  0.3866  1.1694
13444TIP3   OH261822   0.798   2.276  13.099  0.2483  0.0156 -0.3116
13444TIP3    H161823   0.818   2.281  13.005  0.6633  1.3942 -0.1524
13444TIP3    H261824   0.782   2.183  13.114  0.9734 -0.3357 -1.5898
13445TIP3   OH261825   4.986   2.405  16.961 -0.8546  0.0566  0.2912
13445TIP3    H161826   4.964   2.426  16.871  1.2580 -0.2880 -0.3390
13445TIP3    H261827   5.000   2.310  16.961 -3.4163 -0.3716  1.5748
13446TIP3   OH261828   5.918   6.174  14.397 -0.1773  0.1766  0.2726
13446TIP3    H161829   5.928   6.161  14.302  1.2554  0.7958  0.3164
13446TIP3    H261830   5.844   6.234  14.405  0.4496  1.0772 -0.5362
13447TIP3   OH261831   2.653   0.717  14.994 -0.4725  0.6569 -0.4436
13447TIP3    H161832   2.730   0.774  14.993  0.3981 -0.4807 -0.1292
13447TIP3    H261833   2.676   0.647  15.055 -1.8617  0.4343 -0.1655
13448TIP3   OH261834   2.273   4.386  14.437  0.6501  0.0710 -0.3080
13448TIP3    H161835   2.234   4.382  14.524  1.7231 -1.8254  0.1120
13448TIP3    H261836   2.304   4.476  14.429 -1.6937  0.9614  0.2588
13449TIP3   OH261837   1.821   0.997  17.228 -0.0295  0.1060  0.4320
13449TIP3    H161838   1.914   0.981  17.240  0.3799  2.1264  0.2590
13449TIP3    H261839   1.807   1.084  17.265 -1.3402  0.8798 -1.7648
13450TIP3   OH261840   0.864   2.964   2.432 -0.5957 -0.6940  0.2673
13450TIP3    H161841   0.782   2.946   2.478 -0.4686  0.9527  1.1877
13450TIP3    H261842   0.841   3.033   2.369 -0.1147 -0.8629 -0.0935
13451TIP3   OH261843   4.137   3.004   4.645  0.2315  0.1832 -0.0018
13451TIP3    H161844   4.133   2.929   4.703 -2.4505 -0.7775 -1.3415
13451TIP3    H261845   4.121   3.079   4.702  0.9391 -0.4372  1.0298
13452TIP3   OH261846   2.941   2.192  15.635 -0.3833  0.1671  0.3938
13452TIP3    H161847   3.030   2.158  15.642 -0.4058 -0.3293 -1.5297
13452TIP3    H261848   2.884   2.118  15.656 -0.4107 -0.8101 -2.8485
13453TIP3   OH261849   3.834   2.773  14.550 -0.3205 -0.5128 -0.1503
13453TIP3    H161850   3.903   2.832  14.518 -0.2013 -1.1301 -1.0509
13453TIP3    H261851   3.777   2.829  14.602  0.6682  0.0826  0.3198
13454TIP3   OH261852   5.607   4.135  12.297  0.2728 -0.1162 -0.0550
13454TIP3    H161853   5.603   4.169  12.386  0.8586 -2.2832  0.8562
13454TIP3    H261854   5.596   4.211  12.240 -0.9067  1.1735  1.8741
13455TIP3   OH261855   3.330   1.782   2.317  0.0088 -0.1632  0.7559
13455TIP3    H161856   3.306   1.872   2.340  0.0441  0.0716 -0.1225
13455TIP3    H261857   3.395   1.757   2.383 -1.9311 -0.4950  2.6311
13456TIP3   OH261858   0.453   6.293  12.228 -0.6727 -0.4938  0.0194
13456TIP3    H161859   0.452   6.198  12.233  1.5221 -0.5423  0.0905
13456TIP3    H261860   0.426   6.312  12.138  0.8055 -1.2696 -0.6014
13457TIP3   OH261861   3.823   0.105   5.633 -0.0535  0.1555  0.3395
13457TIP3    H161862   3.846   0.161   5.559  0.1527 -0.0169  0.2705
13457TIP3    H261863   3.902   0.053   5.648  0.3342  1.0441  1.4505
13458TIP3   OH261864   3.376   1.612  14.108  0.1512  0.3163  0.0657
13458TIP3    H161865   3.383   1.674  14.035  1.4721  0.3441  0.2144
13458TIP3    H261866   3.334   1.662  14.178  0.7115  0.8883 -0.0002
13459TIP3   OH261867   1.159   5.986  13.176 -0.2771 -0.4306  0.1655
13459TIP3    H161868   1.233   6.032  13.135  0.4183 -1.7538 -0.1055
13459TIP3    H261869   1.195   5.901  13.201 -1.0561 -0.1594  2.3241
13460TIP3   OH261870   5.091   1.228   0.595 -0.1624 -0.7487 -0.5793
13460TIP3    H161871   5.077   1.314   0.555  1.4340 -1.0757 -1.9021
13460TIP3    H261872   5.034   1.169   0.545 -2.6568 -0.2088  1.5074
13461TIP3   OH261873   3.470   1.476  13.650  0.1981 -0.2618  0.2795
13461TIP3    H161874   3.414   1.479  13.727 -0.2245 -0.0931 -0.0325
13461TIP3    H261875   3.474   1.566  13.619  1.7774 -0.0312  1.1083
13462TIP3   OH261876   5.127   2.995  11.582 -0.1405 -0.0184 -0.0753
13462TIP3    H161877   5.195   3.040  11.632 -1.0764  0.4739  0.7769
13462TIP3    H261878   5.164   2.908  11.565  1.4690  0.8828 -1.2945
13463TIP3   OH261879   1.143   6.450   1.472  0.1465  0.0558 -0.5501
13463TIP3    H161880   1.221   6.411   1.512 -0.3720 -0.4761 -0.0502
13463TIP3    H261881   1.126   6.528   1.524  1.5155  1.2970 -1.8964
13464TIP3   OH261882   3.414   5.829  16.675  0.1026 -0.2335  0.5500
13464TIP3    H161883   3.367   5.837  16.593 -0.6705  1.7234  1.1574
13464TIP3    H261884   3.447   5.918  16.693  1.3015 -0.8909  1.7268
13465TIP3   OH261885   0.872   3.142  13.317 -0.1370  0.0808  0.2455
13465TIP3    H161886   0.806   3.089  13.360 -1.4787 -0.4905 -2.4142
13465TIP3    H261887   0.949   3.085  13.312 -0.1068  0.0101  1.4670
13466TIP3   OH261888   3.786   3.454   0.548  0.2695  0.1819 -0.3201
13466TIP3    H161889   3.768   3.499   0.466  2.5515 -0.3501 -1.1603
13466TIP3    H261890   3.825   3.370   0.521  0.5950 -0.2060  1.2964
13467TIP3   OH261891   1.738   1.203   1.294 -0.9120 -0.4863 -0.1219
13467TIP3    H161892   1.723   1.218   1.387  0.4212 -0.1049  0.0399
13467TIP3    H261893   1.766   1.288   1.260 -1.7644 -0.5306 -0.9550
13468TIP3   OH261894   6.800   4.249   5.691  0.4909 -0.2945  0.1329
13468TIP3    H161895   6.856   4.211   5.759  1.1519 -1.0110 -0.8074
13468TIP3    H261896   6.764   4.173   5.645  0.3984  0.1976 -0.6042
13469TIP3   OH261897   6.082   4.944   2.522  0.1095  0.2832  0.4882
13469TIP3    H161898   6.038   4.874   2.474  2.0400 -1.2706  0.9051
13469TIP3    H261899   6.049   5.025   2.483 -0.4986 -0.8954 -1.5179
13470TIP3   OH261900   5.730   6.775  13.724  0.0408  0.1650  0.1524
13470TIP3    H161901   5.647   6.768  13.677  0.0232 -1.9077  0.4398
13470TIP3    H261902   5.785   6.830  13.668 -2.6645  4.6136  1.6586
13471TIP3   OH261903   3.510   6.090  14.355 -0.1769 -0.5407  0.2926
13471TIP3    H161904   3.423   6.080  14.318 -0.3851 -1.4428  0.9965
13471TIP3    H261905   3.496   6.137  14.437 -0.0192 -0.7603  0.4478
13472TIP3   OH261906   5.576   4.571   0.727  0.3507  0.4041 -0.0318
13472TIP3    H161907   5.648   4.565   0.789  0.5344 -0.0257 -0.2899
13472TIP3    H261908   5.618   4.581   0.642  0.1015  0.3257 -0.1647
13473TIP3   OH261909   3.953   2.073   0.487  0.1773  0.6198 -0.1252
13473TIP3    H161910   3.955   1.992   0.538 -0.8776 -0.1120 -1.2253
13473TIP3    H261911   4.015   2.058   0.416  0.1761  0.8784 -0.1817
13474TIP3   OH261912   6.737   3.762  15.294  0.1515 -0.4815 -0.1361
13474TIP3    H161913   6.812   3.814  15.267 -0.5853  0.2675 -0.7834
13474TIP3    H261914   6.753   3.742  15.386  1.0508 -0.1747 -0.2241
13475TIP3   OH261915   4.839   3.816  15.125  0.1947 -1.0786  0.4604
13475TIP3    H161916   4.825   3.907  15.101  0.8771 -1.1333 -0.1746
13475TIP3    H261917   4.830   3.814  15.220 -1.0794 -0.5818  0.3507
13476TIP3   OH261918   4.553   2.345  17.001  0.2956 -0.1785  0.9498
13476TIP3    H161919   4.619   2.324  17.067  0.1315  0.4606  1.3204
13476TIP3    H261920   4.578   2.292  16.925  1.4287  0.3047  0.9799
13477TIP3   OH261921   6.202   4.661   1.635  0.2110 -0.2552 -0.5118
13477TIP3    H161922   6.140   4.703   1.575 -0.8533 -1.5653 -0.3610
13477TIP3    H261923   6.288   4.694   1.608 -0.6149  2.3767 -0.0733
13478TIP3   OH261924   2.711   2.766   5.622  0.1148  0.0246 -0.2513
13478TIP3    H161925   2.664   2.696   5.667 -0.2522  0.3741 -0.0884
13478TIP3    H261926   2.788   2.781   5.676 -0.6846  0.9268  0.6499
13479TIP3   OH261927   2.674   3.953  16.148  0.0327  0.1498  0.1716
13479TIP3    H161928   2.733   4.001  16.089 -0.3089 -0.1872 -0.4402
13479TIP3    H261929   2.649   4.018  16.214 -1.4094  1.1808 -1.3484
13480TIP3   OH261930   5.677   2.081   5.067  0.2107 -0.3258 -0.2813
13480TIP3    H161931   5.708   2.161   5.111  3.4666 -1.8485  0.3676
13480TIP3    H261932   5.618   2.112   4.999  0.0928  2.5293  1.0581
13481TIP3   OH261933   1.514   0.902  16.738 -0.1948  0.2893  0.2275
13481TIP3    H161934   1.577   0.831  16.755 -0.7610  0.0476  1.3202
13481TIP3    H261935   1.486   0.887  16.647 -1.0761 -1.5069  0.7665
13482TIP3   OH261936   3.425   0.935  12.804 -0.0050  0.4107  0.0715
13482TIP3    H161937   3.385   1.001  12.861  0.2854 -0.1215  0.9034
13482TIP3    H261938   3.410   0.852  12.849  1.4484  0.1354  0.0724
13483TIP3   OH261939   4.174   4.707   0.107 -0.1438 -0.1870 -0.2338
13483TIP3    H161940   4.145   4.616   0.107 -1.6145  0.2495 -1.5334
13483TIP3    H261941   4.180   4.731   0.200 -1.5481 -1.0562  0.0932
13484TIP3   OH261942   6.643   3.710  14.594  0.3541  0.5485  0.0357
13484TIP3    H161943   6.593   3.629  14.604 -0.3452  0.9649 -0.0304
13484TIP3    H261944   6.719   3.699  14.650  0.0881 -0.0237  0.2808
13485TIP3   OH261945   3.204   3.619  16.262  0.0590  0.4494 -0.0707
13485TIP3    H161946   3.296   3.602  16.281 -0.3917 -0.3046  1.4985
13485TIP3    H261947   3.186   3.566  16.184  0.9413  0.5892 -0.3750
13486TIP3   OH261948   3.506   4.999   1.711 -0.0772  0.5956 -0.4438
13486TIP3    H161949   3.414   5.019   1.690  0.4609  2.4579 -1.0821
13486TIP3    H261950   3.502   4.956   1.796 -1.6576 -0.5060 -1.0357
13487TIP3   OH261951   3.416   3.464  12.855  0.0743 -0.2269 -0.8557
13487TIP3    H161952   3.377   3.409  12.923 -0.0881 -0.1655 -0.9009
13487TIP3    H261953   3.458   3.535  12.903  1.6125 -1.2167 -0.6891
13488TIP3   OH261954   1.407   0.960  12.006 -0.2393 -0.5241 -0.7208
13488TIP3    H161955   1.365   0.992  11.926  0.4935 -1.3568 -1.4658
13488TIP3    H261956   1.343   0.975  12.075 -1.4831 -1.1232 -1.7080
13489TIP3   OH261957   6.732   4.013  11.039  0.6890  0.4334  0.0473
13489TIP3    H161958   6.791   3.986  10.969  0.6793  1.4281 -0.3522
13489TIP3    H261959   6.660   4.059  10.995  0.5452  0.8307  0.6792
13490TIP3   OH261960   0.064   5.569  15.405 -0.3482  0.3547  0.1733
13490TIP3    H161961   0.001   5.633  15.436  0.3455  2.3432 -2.3742
13490TIP3    H261962   0.099   5.529  15.485  0.3887  4.3127  1.9450
13491TIP3   OH261963   0.161   4.990  12.491  0.5341 -0.3342 -0.0612
13491TIP3    H161964   0.170   5.026  12.403  1.5615 -1.3331 -0.3759
13491TIP3    H261965   0.165   4.895  12.479  2.7541 -0.4549  1.2671
13492TIP3   OH261966   3.645   5.967  12.555  0.5536 -0.4698 -0.0153
13492TIP3    H161967   3.683   5.898  12.501  1.1324  0.4843 -0.8491
13492TIP3    H261968   3.712   5.986  12.621 -0.1002 -1.5437  0.9777
13493TIP3   OH261969   2.044   2.916  11.529 -0.3397 -0.1166 -0.2723
13493TIP3    H161970   2.090   2.958  11.456  1.7859 -0.6194  0.7352
13493TIP3    H261971   2.067   2.824  11.522 -1.4493 -0.4230  0.0867
13494TIP3   OH261972   3.964   2.975   0.375  0.2683 -0.4073 -0.1263
13494TIP3    H161973   4.031   2.970   0.307  0.2237 -1.2349 -0.1082
13494TIP3    H261974   3.930   2.886   0.383 -0.0288 -0.2297  0.6796
13495TIP3   OH261975   4.832   5.827  13.639  0.4981 -0.7127 -0.6868
13495TIP3    H161976   4.758   5.775  13.607  0.5535 -0.3021 -1.5144
13495TIP3    H261977   4.891   5.763  13.678  0.3045 -1.1998 -1.1862
13496TIP3   OH261978   3.123   3.985  17.234  0.1271 -0.4316 -0.0794
13496TIP3    H161979   3.112   3.998  17.139 -0.6820 -1.1811 -0.0908
13496TIP3    H261980   3.160   4.068  17.265 -0.4035  0.1262 -0.9220
13497TIP3   OH261981   1.704   5.020  11.131  0.5402 -0.0365 -0.0603
13497TIP3    H161982   1.612   5.030  11.110  0.5915 -0.3326 -0.4401
13497TIP3    H261983   1.729   4.936  11.091  1.3232  0.7226 -1.1953
13498TIP3   OH261984   3.838   4.378   2.013  0.3258 -0.6618 -0.0184
13498TIP3    H161985   3.752   4.381   2.056 -1.3394 -2.1741 -3.0832
13498TIP3    H261986   3.860   4.285   2.010 -1.0756 -0.9922 -4.9749
13499TIP3   OH261987   0.098   3.431   2.847  0.3192  0.0800  0.1041
13499TIP3    H161988   0.128   3.521   2.840  0.4610 -0.0540 -1.1989
13499TIP3    H261989   0.031   3.423   2.778  1.2770 -1.1808 -0.6984
13500TIP3   OH261990   1.329   2.113  15.153 -0.3249  1.0081 -0.3185
13500TIP3    H161991   1.349   2.117  15.059 -0.0178  1.1380 -0.2452
13500TIP3    H261992   1.414   2.103  15.196 -0.5508 -0.2965 -0.1340
13501TIP3   OH261993   0.881   3.791   3.633 -0.2188 -0.3446  0.1779
13501TIP3    H161994   0.899   3.753   3.546  1.5574 -1.3078  0.9483
13501TIP3    H261995   0.860   3.715   3.688 -0.3707  0.1717  0.8387
13502TIP3   OH261996   2.495   1.834   5.446  0.2491 -0.3954  0.7630
13502TIP3    H161997   2.449   1.809   5.366 -0.7965  0.1215  1.1943
13502TIP3    H261998   2.466   1.923   5.464  1.7350  0.0796  0.8295
13503TIP3   OH261999   2.696   3.154   2.236  0.1265 -0.0396  0.2353
13503TIP3    H162000   2.695   3.222   2.304  1.1745 -0.4784  0.6941
13503TIP3    H262001   2.604   3.144   2.211 -0.1447  0.8670  0.8463
13504TIP3   OH262002   4.786   1.168  14.572  0.1701 -0.1673  0.3967
13504TIP3    H162003   4.692   1.186  14.564  0.3743  0.4024 -0.8946
13504TIP3    H262004   4.807   1.118  14.493  1.2157  0.8808 -0.0012
13505TIP3   OH262005   0.499   0.804   1.513 -0.5258  0.3347  0.0345
13505TIP3    H162006   0.487   0.712   1.490 -0.8112  0.9324 -2.3482
13505TIP3    H262007   0.587   0.825   1.483 -0.2651  0.7120  1.0490
13506TIP3   OH262008   1.950   3.248  14.349 -0.2062  0.4181 -0.2310
13506TIP3    H162009   1.915   3.335  14.363 -0.0169  0.1614  2.1688
13506TIP3    H262010   2.042   3.262  14.327  0.0521  0.8236  1.0408
13507TIP3   OH262011   4.640   2.669  13.092 -0.1090  0.0032 -0.1065
13507TIP3    H162012   4.654   2.762  13.109 -1.0065  0.8280 -3.4216
13507TIP3    H262013   4.712   2.644  13.035 -0.2924 -1.1668  0.1677
13508TIP3   OH262014   6.664   0.583  13.479  0.3727 -0.0497 -0.0481
13508TIP3    H162015   6.744   0.559  13.525  0.5765 -0.0960 -0.4242
13508TIP3    H262016   6.693   0.643  13.410 -0.0446  0.7681  0.4738
13509TIP3   OH262017   2.266   0.139  15.486  0.2884  0.1727 -0.4912
13509TIP3    H162018   2.302   0.050  15.492  0.4878  0.3125  0.5336
13509TIP3    H262019   2.321   0.183  15.423 -0.5150 -0.7664 -1.8791
13510TIP3   OH262020   1.077   0.945   3.557  0.0718  0.2388  0.1947
13510TIP3    H162021   0.994   0.989   3.578  0.2481  0.6689 -0.0058
13510TIP3    H262022   1.118   0.930   3.642 -0.5358 -0.6241  0.3508
13511TIP3   OH262023   2.075   2.394   1.845  0.1801  0.7393 -0.4145
13511TIP3    H162024   2.117   2.310   1.859  0.1717  0.8320  0.2225
13511TIP3    H262025   2.123   2.434   1.773 -0.2713 -0.1042 -1.1926
13512TIP3   OH262026   1.824   3.736   0.237  0.5218  0.2856 -0.4378
13512TIP3    H162027   1.769   3.657   0.240 -0.4262  1.0036  1.4177
13512TIP3    H262028   1.762   3.807   0.218  1.1819  0.7758 -0.7555
13513TIP3   OH262029   3.449   1.941   1.993  0.0903 -0.3622 -0.2034
13513TIP3    H162030   3.473   1.978   2.078 -1.2290  0.2069 -0.0735
13513TIP3    H262031   3.420   1.852   2.013  1.0396 -0.6810 -0.2267
13514TIP3   OH262032   3.136   5.194   5.326  1.1012 -0.2169  0.7889
13514TIP3    H162033   3.124   5.170   5.234  1.1212  1.2488  0.3909
13514TIP3    H262034   3.229   5.219   5.332  0.9711  0.2020  1.0776
13515TIP3   OH262035   4.086   1.869  12.059 -0.9518  0.9562 -0.5161
13515TIP3    H162036   4.179   1.860  12.038  0.0359  1.1526  3.4255
13515TIP3    H262037   4.049   1.781  12.045  0.4427  0.1779  0.5707
13516TIP3   OH262038   3.736   0.761   0.343 -0.2943 -0.4649 -0.2380
13516TIP3    H162039   3.690   0.839   0.374 -0.0886  0.1106 -1.3306
13516TIP3    H262040   3.824   0.768   0.380 -0.5956 -0.7348  0.5379
13517TIP3   OH262041   0.387   0.960  14.144 -0.2416 -0.2754  0.0383
13517TIP3    H162042   0.354   0.881  14.102 -0.1541 -0.0876 -0.3824
13517TIP3    H262043   0.481   0.958  14.129 -0.3921  0.5834 -1.1359
13518TIP3   OH262044   3.639   0.634   1.641  0.4327  0.0557  0.2939
13518TIP3    H162045   3.719   0.595   1.677 -0.5149 -1.4890  0.8006
13518TIP3    H262046   3.583   0.559   1.620 -1.0329  1.1136  0.2910
13519TIP3   OH262047   1.507   0.319  12.067 -0.3500 -0.6817 -0.2334
13519TIP3    H162048   1.538   0.293  11.980  2.3837  2.1712 -0.2375
13519TIP3    H262049   1.418   0.352  12.052 -0.1560 -0.8441 -1.8432
13520TIP3   OH262050   1.786   4.938  16.625 -0.0788  0.5034 -0.4705
13520TIP3    H162051   1.793   4.844  16.608 -0.5370 -0.2562  3.0877
13520TIP3    H262052   1.692   4.956  16.623 -0.0787  0.5894  0.2453
13521TIP3   OH262053   3.094   3.794  10.930 -0.0304 -0.1363 -0.3372
13521TIP3    H162054   3.009   3.751  10.939 -0.9472  1.3329 -1.7374
13521TIP3    H262055   3.155   3.723  10.910 -0.9430 -1.1887  0.5875
13522TIP3   OH262056   2.916   1.076  12.446  0.0826 -0.1024 -0.3310
13522TIP3    H162057   2.933   0.988  12.481  0.0024 -0.2724 -0.7146
13522TIP3    H262058   2.824   1.075  12.422  0.0133  0.1807 -0.0732
13523TIP3   OH262059   4.896   5.012   0.584  0.1177  0.0010  0.5351
13523TIP3    H162060   4.829   5.048   0.643 -1.3956 -1.4630 -0.2629
13523TIP3    H262061   4.911   5.082   0.520 -1.2558  0.0229  0.2306
13524TIP3   OH262062   1.814   6.199  10.570 -0.2794 -0.1227  0.2192
13524TIP3    H162063   1.858   6.187  10.485  0.7234  2.2804  0.3793
13524TIP3    H262064   1.804   6.110  10.604  2.5705 -0.8915 -0.8006
13525TIP3   OH262065   5.645   6.423   5.349  0.2481 -0.6897 -0.0200
13525TIP3    H162066   5.630   6.432   5.443  0.6703  1.0500 -0.1042
13525TIP3    H262067   5.734   6.390   5.342  1.8951  3.4852  0.1171
13526TIP3   OH262068   5.311   5.078  13.242  0.0128 -0.0526  0.4707
13526TIP3    H162069   5.311   5.090  13.337  0.7299  1.7577  0.2729
13526TIP3    H262070   5.387   5.023  13.225  0.7292  0.8009  0.8435
13527TIP3   OH262071   0.832   5.487   3.376 -0.2891  0.1829  0.2070
13527TIP3    H162072   0.779   5.565   3.389  1.4096  1.4542 -0.3343
13527TIP3    H262073   0.916   5.508   3.418 -0.0711 -1.6518  0.7424
13528TIP3   OH262074   0.952   3.485   5.850 -0.2541  0.0457 -0.1012
13528TIP3    H162075   0.967   3.579   5.859  1.9169 -0.2638 -0.1367
13528TIP3    H262076   0.984   3.464   5.762 -0.0198 -0.8420  0.1927
13529TIP3   OH262077   5.951   2.744  11.731  0.0984 -0.2146  0.2637
13529TIP3    H162078   6.042   2.735  11.703 -0.2327 -0.3217 -0.8037
13529TIP3    H262079   5.914   2.656  11.720 -0.6543  0.2715 -1.2068
13530TIP3   OH262080   1.495   5.838   5.010 -0.0454 -0.5472 -0.1161
13530TIP3    H162081   1.575   5.801   5.048  0.3506 -0.3907 -0.7912
13530TIP3    H262082   1.514   5.931   5.000 -1.2855 -0.0205  2.2087
13531TIP3   OH262083   6.372   3.129  14.573 -0.4976  0.2508  0.0325
13531TIP3    H162084   6.354   3.221  14.557  0.2003  0.4895  0.6345
13531TIP3    H262085   6.461   3.115  14.542 -0.9320 -0.4473 -0.9461
13532TIP3   OH262086   3.824   2.141  16.770  0.1655 -0.1915 -0.0762
13532TIP3    H162087   3.897   2.200  16.749 -0.0452  0.2431  0.4169
13532TIP3    H262088   3.845   2.060  16.724  0.6827  0.1204 -0.3946
13533TIP3   OH262089   1.809   1.460   4.046 -0.5232  0.4601  0.3864
13533TIP3    H162090   1.766   1.455   4.131 -1.2859 -1.0265 -0.0748
13533TIP3    H262091   1.899   1.485   4.067 -0.5439 -0.4756  1.6885
13534TIP3   OH262092   4.694   2.517   1.711  0.2175 -0.3044 -0.0176
13534TIP3    H162093   4.618   2.500   1.655  1.4523  1.6939 -2.4217
13534TIP3    H262094   4.768   2.483   1.661  1.1506 -0.0344  1.1791
13535TIP3   OH262095   1.564   5.629  16.151  0.1506 -0.9350 -0.4578
13535TIP3    H162096   1.641   5.622  16.208  0.3191 -0.7700 -0.6651
13535TIP3    H262097   1.489   5.616  16.210  0.2912  0.0169 -0.0518
13536TIP3   OH262098   0.848   5.198   0.147 -0.5150 -0.1562 -0.2105
13536TIP3    H162099   0.865   5.290   0.168 -0.5115  0.3476 -2.2610
13536TIP3    H262100   0.907   5.178   0.074  0.6773 -2.2940  1.3028
13537TIP3   OH262101   3.656   2.776   0.877  0.2687 -0.0903  0.1444
13537TIP3    H162102   3.664   2.831   0.954  0.2986  0.7614 -0.4651
13537TIP3    H262103   3.736   2.723   0.877  0.4057  0.1157  0.5276
13538TIP3   OH262104   1.441   2.560  16.983  0.6626 -0.5780 -0.0163
13538TIP3    H162105   1.414   2.536  16.894 -3.1861 -1.6316  1.3639
13538TIP3    H262106   1.469   2.477  17.022 -2.1733 -0.9795  1.2354
13539TIP3   OH262107   3.572   4.132   5.510 -0.1308  0.0551 -0.1600
13539TIP3    H162108   3.649   4.076   5.497  0.4144  0.7848 -0.1583
13539TIP3    H262109   3.594   4.183   5.588  0.0603  1.3804 -1.0694
13540TIP3   OH262110   3.734   6.066  11.072 -0.1098  0.3645 -0.4004
13540TIP3    H162111   3.777   6.054  10.987  2.2424  0.4902  0.7042
13540TIP3    H262112   3.805   6.056  11.135 -1.9372 -0.3582  1.5954
13541TIP3   OH262113   2.536   0.817  16.660  0.7512 -0.2411 -0.2533
13541TIP3    H162114   2.538   0.839  16.567 -2.4530  0.1231 -0.2815
13541TIP3    H262115   2.557   0.724  16.664 -1.6640 -0.8700 -1.6011
13542TIP3   OH262116   4.272   4.515   1.441 -0.2818  0.6004 -0.2163
13542TIP3    H162117   4.214   4.535   1.514 -0.2294  1.7154 -0.4664
13542TIP3    H262118   4.330   4.446   1.474  0.4938  1.8987  1.2001
13543TIP3   OH262119   5.226   6.185   1.278 -0.6266 -0.4969  0.1993
13543TIP3    H162120   5.150   6.131   1.301 -0.3874 -1.5626 -1.3995
13543TIP3    H262121   5.202   6.226   1.194  0.0089  0.2809  0.3880
13544TIP3   OH262122   1.283   2.202   4.055  0.6732  0.7140  0.3571
13544TIP3    H162123   1.196   2.193   4.094 -0.1789  0.7768 -1.4504
13544TIP3    H262124   1.316   2.286   4.086  0.3199  0.4358  1.4926
13545TIP3   OH262125   4.896   3.190   1.635  0.1731 -0.6347  0.1590
13545TIP3    H162126   4.811   3.179   1.594  0.7705 -0.2191 -1.2323
13545TIP3    H262127   4.925   3.102   1.657 -0.9811 -0.7162  1.4449
13546TIP3   OH262128   3.572   2.647  15.581  0.1460  0.5246  0.3434
13546TIP3    H162129   3.514   2.719  15.556  0.6596  0.4410 -1.1516
13546TIP3    H262130   3.514   2.582  15.622 -0.3739  1.6153  1.3600
13547TIP3   OH262131   0.747   1.018   1.523 -0.4417 -0.0210  0.1425
13547TIP3    H162132   0.741   0.951   1.456  1.1210  0.7863 -0.8417
13547TIP3    H262133   0.781   0.973   1.600  0.4695 -0.4104 -0.4755
13548TIP3   OH262134   5.552   4.030   1.435  0.2877  0.0833  0.5502
13548TIP3    H162135   5.625   4.006   1.492  2.9896  1.1510 -2.2999
13548TIP3    H262136   5.542   3.955   1.376 -0.7659  0.0609  0.7444
13549TIP3   OH262137   3.023   2.181  13.507  0.6400  0.5085 -0.2601
13549TIP3    H162138   3.056   2.107  13.457  1.8206  0.5087  0.4788
13549TIP3    H262139   2.949   2.146  13.557  1.1320 -0.1537  0.0135
13550TIP3   OH262140   5.190   3.855  12.964 -0.1424  0.3983 -0.0353
13550TIP3    H162141   5.115   3.897  13.005 -0.3321 -0.6558  0.7178
13550TIP3    H262142   5.265   3.912  12.986 -0.5831  1.0066 -0.0944
13551TIP3   OH262143   5.066   0.240  16.035  0.4502 -0.7824  0.1460
13551TIP3    H162144   5.060   0.154  15.993  1.2063  0.1373 -1.9176
13551TIP3    H262145   5.159   0.249  16.057  0.0859 -1.1786  1.8559
13552TIP3   OH262146   4.574   4.053   4.769  0.2579  0.1440  0.0883
13552TIP3    H162147   4.656   4.054   4.818  1.2373 -0.4974 -1.5187
13552TIP3    H262148   4.506   4.050   4.837  1.5353  0.8064  1.4351
13553TIP3   OH262149   1.140   1.639  16.212 -0.0724  0.1549  0.7399
13553TIP3    H162150   1.147   1.730  16.183  0.8431 -0.2892 -0.4657
13553TIP3    H262151   1.139   1.645  16.308 -0.5476  1.4635  0.6714
13554TIP3   OH262152   4.039   1.361   5.914  0.1054  0.3590 -0.5514
13554TIP3    H162153   3.948   1.330   5.920  0.4348 -0.8267 -1.6017
13554TIP3    H262154   4.090   1.295   5.962  0.5498  0.3749 -0.9965
13555TIP3   OH262155   1.632   2.328  12.940 -0.2942 -0.5489 -0.3390
13555TIP3    H162156   1.553   2.288  12.903  0.6084 -1.4854 -1.3246
13555TIP3    H262157   1.704   2.290  12.888  0.8826 -0.5597  1.2591
13556TIP3   OH262158   4.445   3.294   1.573  0.2093 -0.5409  0.5430
13556TIP3    H162159   4.414   3.373   1.528 -0.3858  0.5376  2.7609
13556TIP3    H262160   4.365   3.248   1.598  0.5548 -1.7172 -0.4732
13557TIP3   OH262161   6.395   5.291  15.344 -0.0167  0.5234 -0.4430
13557TIP3    H162162   6.425   5.377  15.373 -0.7306  0.5836  0.1324
13557TIP3    H262163   6.300   5.295  15.350  0.0159 -1.0468  1.7976
13558TIP3   OH262164   4.597   4.031   1.185  0.6914 -0.0101  0.1201
13558TIP3    H162165   4.522   4.078   1.150 -0.0973 -2.5784 -1.7895
13558TIP3    H262166   4.566   3.994   1.268  0.7490  1.2307  0.7091
13559TIP3   OH262167   3.315   1.192   3.524  0.0564 -0.0400 -0.3289
13559TIP3    H162168   3.288   1.203   3.433  0.7925  0.5828 -0.4713
13559TIP3    H262169   3.278   1.107   3.549  1.2152 -0.9782 -1.7107
13560TIP3   OH262170   1.246   4.228  14.654 -0.6074  0.3508  0.0224
13560TIP3    H162171   1.244   4.297  14.720 -1.2317  0.6867 -0.3471
13560TIP3    H262172   1.192   4.158  14.690 -0.4384  0.2791  0.1396
13561TIP3   OH262173   4.263   3.807  11.933 -0.1860  0.2458 -0.1930
13561TIP3    H162174   4.223   3.893  11.937  1.0724  0.8315 -0.1180
13561TIP3    H262175   4.267   3.778  12.024  1.2506  0.9728 -0.0211
13562TIP3   OH262176   2.288   5.913   5.678 -0.2022  0.4703  0.2585
13562TIP3    H162177   2.236   5.899   5.757 -2.2186 -0.5847 -1.2108
13562TIP3    H262178   2.316   5.825   5.652  1.6549  0.9574  0.5867
13563TIP3   OH262179   3.307   2.355  16.635  0.2310 -0.2252  0.2248
13563TIP3    H162180   3.283   2.281  16.579 -0.7995  1.7946 -2.1100
13563TIP3    H262181   3.238   2.358  16.701 -0.9733 -0.0555 -0.9998
13564TIP3   OH262182   0.460   6.639  11.920  0.6813 -0.4432 -0.0248
13564TIP3    H162183   0.420   6.558  11.951  2.1457 -1.3901 -0.6004
13564TIP3    H262184   0.501   6.677  11.998 -0.5295  0.0820  0.3751
13565TIP3   OH262185   5.736   1.804  15.886  0.1494  0.1824  0.2098
13565TIP3    H162186   5.709   1.887  15.925  0.5088 -1.3420  3.8832
13565TIP3    H262187   5.826   1.792  15.915 -0.2968 -2.0745  0.7163
13566TIP3   OH262188   0.812   1.302   4.153  0.2416 -0.6486 -0.0328
13566TIP3    H162189   0.770   1.218   4.174  1.3410 -1.4152 -0.8260
13566TIP3    H262190   0.747   1.349   4.101 -1.0146 -0.3131  1.8221
13567TIP3   OH262191   1.300   0.712  11.758 -0.1911  0.2418 -0.5608
13567TIP3    H162192   1.276   0.783  11.699 -2.0318  1.9198  2.1018
13567TIP3    H262193   1.217   0.675  11.786  0.6789 -1.0182  0.4101
13568TIP3   OH262194   2.199   6.576   4.164  0.2184  0.0735  0.2796
13568TIP3    H162195   2.110   6.600   4.139  1.0543  2.1681 -0.8394
13568TIP3    H262196   2.252   6.601   4.088  1.7421 -1.3659  0.8402
13569TIP3   OH262197   2.287   4.324   1.067 -0.3382  0.3229  0.1262
13569TIP3    H162198   2.291   4.276   0.984  1.2268 -0.4503  0.6405
13569TIP3    H262199   2.274   4.415   1.041  0.1006  0.0762 -0.9663
13570TIP3   OH262200   0.651   4.889   0.735  0.4283  0.0840 -0.1640
13570TIP3    H162201   0.634   4.817   0.795  2.1977 -0.0185  0.2313
13570TIP3    H262202   0.718   4.941   0.778 -2.1566  3.0590  0.4194
13571TIP3   OH262203   5.127   2.935   4.365 -0.1164 -0.2675  0.4550
13571TIP3    H162204   5.097   2.929   4.274  2.7320 -0.3392 -0.5443
13571TIP3    H262205   5.100   2.852   4.404 -2.1261  0.1221 -0.0640
13572TIP3   OH262206   1.632   6.108  15.979  0.1103 -0.2471 -0.1398
13572TIP3    H162207   1.580   6.110  15.899  0.9785 -1.7982 -0.7626
13572TIP3    H262208   1.568   6.119  16.050 -0.9182 -0.9910 -0.9389
13573TIP3   OH262209   6.563   6.196  11.821  0.8771 -0.3189 -0.2762
13573TIP3    H162210   6.559   6.175  11.728 -2.7007  0.8526 -0.4840
13573TIP3    H262211   6.526   6.119  11.865 -0.2514  0.3145 -0.0872
13574TIP3   OH262212   4.703   4.071  13.534 -0.5227  0.8062  0.3346
13574TIP3    H162213   4.701   4.108  13.446  0.3586  1.0264  0.4015
13574TIP3    H262214   4.611   4.068  13.561 -0.8504  0.1835 -0.8194
13575TIP3   OH262215   5.755   1.039  16.285 -0.1273 -0.2385 -1.3107
13575TIP3    H162216   5.766   1.065  16.194  0.2719  0.7088 -1.0080
13575TIP3    H262217   5.764   1.121  16.334  2.9991 -1.1746 -0.1687
13576TIP3   OH262218   5.289   0.764  11.434 -0.1395  0.0175  0.8394
13576TIP3    H162219   5.288   0.776  11.339  1.3929 -2.1286  0.5001
13576TIP3    H262220   5.291   0.852  11.469 -5.0606  0.9943 -0.9760
13577TIP3   OH262221   1.455   1.977   0.839 -0.1078 -0.3405  0.4395
13577TIP3    H162222   1.378   2.027   0.810 -0.1955 -0.6210  0.1807
13577TIP3    H262223   1.469   2.005   0.930 -1.5841 -1.5544  1.0783
13578TIP3   OH262224   5.042   6.190   0.845  0.0987 -0.1981  0.4715
13578TIP3    H162225   5.029   6.123   0.778 -0.1644  0.9981 -0.7006
13578TIP3    H262226   5.007   6.151   0.925 -0.9436 -1.0994 -0.3964
13579TIP3   OH262227   3.210   5.714  13.317 -0.4005 -0.1001  0.4719
13579TIP3    H162228   3.218   5.809  13.327  0.1730 -0.2781  1.7856
13579TIP3    H262229   3.126   5.692  13.356 -0.4409 -0.1675  0.3483
13580TIP3   OH262230   2.762   2.536   0.194  0.0643 -1.2656  0.1455
13580TIP3    H162231   2.850   2.574   0.202  0.1492 -1.1396 -1.1670
13580TIP3    H262232   2.732   2.565   0.107 -1.8829 -0.0465  1.2032
13581TIP3   OH262233   5.245   4.105  15.750 -0.3504  0.3214 -0.2503
13581TIP3    H162234   5.323   4.058  15.779 -0.3185  0.6585  0.2240
13581TIP3    H262235   5.174   4.069  15.803 -0.6553 -0.5338 -1.2268
13582TIP3   OH262236   0.523   3.705   2.029 -0.0288 -0.2457 -0.2794
13582TIP3    H162237   0.564   3.733   2.111  0.3786 -0.6572 -0.3349
13582TIP3    H262238   0.579   3.742   1.960  0.6925 -1.4225 -0.3507
13583TIP3   OH262239   4.327   4.098   3.806  0.2058  0.0591 -0.0323
13583TIP3    H162240   4.416   4.071   3.829 -0.5762 -1.7157  0.9789
13583TIP3    H262241   4.336   4.192   3.785  1.9984  0.3289  1.7529
13584TIP3   OH262242   4.742   4.186  14.475  0.2643 -0.0203 -0.3437
13584TIP3    H162243   4.678   4.252  14.501  0.1275 -0.6714  1.0193
13584TIP3    H262244   4.723   4.111  14.531  1.6222 -0.5524 -0.5759
13585TIP3   OH262245   6.570   2.407   3.403  0.4360 -0.4746  0.4458
13585TIP3    H162246   6.483   2.446   3.400 -0.0566 -1.2840  2.8443
13585TIP3    H262247   6.630   2.481   3.411 -0.1763 -0.0208  0.8087
13586TIP3   OH262248   5.978   3.489   2.721 -0.3030  0.6509 -0.3224
13586TIP3    H162249   5.935   3.404   2.716  0.8083  0.1498 -1.7548
13586TIP3    H262250   6.071   3.470   2.711  0.0007  1.9885 -0.2271
13587TIP3   OH262251   0.515   6.616   2.896  0.2527 -0.0312  0.2414
13587TIP3    H162252   0.454   6.667   2.843  0.1826 -1.4360 -1.0638
13587TIP3    H262253   0.531   6.537   2.845  1.0663 -0.9094  1.8098
13588TIP3   OH262254   3.940   0.499  16.864  0.6828 -0.3920 -0.1147
13588TIP3    H162255   3.849   0.487  16.891  0.5578 -2.2618 -1.2539
13588TIP3    H262256   3.986   0.422  16.898  1.5893 -0.0812 -0.5996
13589TIP3   OH262257   2.203   1.794   1.385 -0.3987  0.2287  0.1976
13589TIP3    H162258   2.263   1.860   1.350  1.3589 -2.0892 -1.2700
13589TIP3    H262259   2.197   1.815   1.478  1.5841  1.3588  0.1006
13590TIP3   OH262260   2.062   4.333   2.584 -0.2957 -0.3036  0.1725
13590TIP3    H162261   1.998   4.299   2.523  1.0672 -0.1333 -1.3748
13590TIP3    H262262   2.063   4.270   2.656 -1.3197 -0.9201 -0.3523
13591TIP3   OH262263   6.423   1.270   4.579 -0.1968  0.6478  0.0320
13591TIP3    H162264   6.475   1.350   4.574  2.2215 -0.8461  0.4812
13591TIP3    H262265   6.413   1.253   4.673  0.7147 -0.4373 -0.0543
13592TIP3   OH262266   0.726   5.631  12.540 -0.2256  0.2244  0.1854
13592TIP3    H162267   0.804   5.653  12.592  0.2103 -0.4562 -0.1736
13592TIP3    H262268   0.756   5.563  12.480 -1.3055 -0.6145  0.5921
13593TIP3   OH262269   6.700   2.751  11.289 -0.2607 -0.3956 -0.0709
13593TIP3    H162270   6.668   2.837  11.263  0.4181 -0.3771 -0.8850
13593TIP3    H262271   6.700   2.700  11.209 -3.2773 -2.0234  0.9218
13594TIP3   OH262272   0.667   2.974  13.365 -0.1314 -0.2198 -0.3307
13594TIP3    H162273   0.658   2.928  13.281 -2.6139 -0.6008  0.1257
13594TIP3    H262274   0.688   2.905  13.428 -1.8848 -0.4768 -0.0040
13595TIP3   OH262275   1.720   1.031  14.102 -0.3233 -0.0548 -0.3393
13595TIP3    H162276   1.718   1.050  14.009  1.0599  0.8040 -0.2129
13595TIP3    H262277   1.751   0.941  14.108 -0.0147  0.0290 -0.6948
13596TIP3   OH262278   5.417   4.226   4.051 -0.1526  0.0331  0.0300
13596TIP3    H162279   5.410   4.296   4.116 -0.7729 -0.1861  0.2017
13596TIP3    H262280   5.481   4.165   4.087 -0.6678 -0.2061  0.5520
13597TIP3   OH262281   4.566   5.691  16.327  0.2299 -0.1075  0.1086
13597TIP3    H162282   4.504   5.761  16.310  0.0252 -0.4896 -0.7415
13597TIP3    H262283   4.525   5.638  16.395 -0.1908 -0.1235 -0.1587
13598TIP3   OH262284   6.121   0.846   2.699  0.1811  0.3219  0.3729
13598TIP3    H162285   6.169   0.867   2.780 -0.8952 -0.9501  1.3765
13598TIP3    H262286   6.132   0.923   2.644  0.5346  1.4297  1.9365
13599TIP3   OH262287   1.537   1.641  10.812 -0.1054  0.3161  0.3423
13599TIP3    H162288   1.564   1.618  10.724  3.1445  2.1257  0.7882
13599TIP3    H262289   1.508   1.558  10.851 -1.1964 -0.5605 -2.2180
13600TIP3   OH262290   0.858   3.510   2.116 -0.2030  0.5482 -0.0148
13600TIP3    H162291   0.801   3.441   2.149  0.8146  0.4219  1.5096
13600TIP3    H262292   0.928   3.463   2.071 -1.5006  0.7152 -2.2621
13601TIP3   OH262293   0.680   6.118  16.037  0.1767  0.1906  0.1940
13601TIP3    H162294   0.681   6.122  15.942  3.2296  0.9995  0.1936
13601TIP3    H262295   0.704   6.028  16.058 -0.5228  0.0052  0.2170
13602TIP3   OH262296   4.987   4.203   5.295  0.0819  0.0777 -0.5594
13602TIP3    H162297   5.055   4.241   5.239  0.7430 -0.7828 -0.3571
13602TIP3    H262298   5.035   4.167   5.370 -0.4524 -1.6266 -1.0010
13603TIP3   OH262299   1.943   1.873  16.045  0.2629  0.5142  0.0553
13603TIP3    H162300   1.933   1.798  15.986  1.6411  0.0600  0.3880
13603TIP3    H262301   1.915   1.840  16.130 -1.5109  1.1076 -0.2609
13604TIP3   OH262302   6.733   2.986  11.123 -0.5190  0.4338  0.8226
13604TIP3    H162303   6.783   3.054  11.168  1.1384 -0.0188 -0.3031
13604TIP3    H262304   6.718   3.020  11.035 -0.0354 -0.4647  0.3822
13605TIP3   OH262305   6.399   3.056   0.021  0.1547  0.8263  0.0768
13605TIP3    H162306   6.429   2.982   0.073 -0.4085 -1.5764 -2.8621
13605TIP3    H262307   6.477   3.109   0.005  1.1171 -0.6572 -0.1397
13606TIP3   OH262308   3.581   3.442  11.087 -0.3144  0.4977 -0.4442
13606TIP3    H162309   3.564   3.349  11.097  2.2734  0.1844  1.6084
13606TIP3    H262310   3.514   3.485  11.140 -0.5896 -0.2485 -0.1834
13607TIP3   OH262311   6.085   5.404   0.402  0.1157  0.0641  0.1283
13607TIP3    H162312   6.000   5.365   0.379 -0.5968  0.9476  1.1893
13607TIP3    H262313   6.143   5.380   0.330 -0.7503 -1.4755 -0.0881
13608TIP3   OH262314   5.936   5.166   0.026  0.2511 -0.4126 -0.2836
13608TIP3    H162315   6.026   5.144   0.001  0.8333  0.9277  0.5992
13608TIP3    H262316   5.918   5.247  -0.021 -0.5981 -0.7951 -0.6366
13609TIP3   OH262317   5.380   2.315  13.030 -0.4188  0.1687  0.1738
13609TIP3    H162318   5.408   2.302  12.939 -0.8536 -0.4592  0.1255
13609TIP3    H262319   5.345   2.404  13.032  1.4590  0.9131  0.2083
13610TIP3   OH262320   5.159   3.496  15.738 -0.2918  0.1460 -0.2584
13610TIP3    H162321   5.231   3.459  15.687 -0.6324  0.3503 -0.8923
13610TIP3    H262322   5.200   3.562  15.794 -0.0764  0.6994 -1.0660
13611TIP3   OH262323   1.403   2.478   4.404 -0.1093 -0.3025  0.0691
13611TIP3    H162324   1.473   2.543   4.415 -1.0799  1.0286 -1.4243
13611TIP3    H262325   1.401   2.461   4.310 -0.1400 -2.2252  0.3974
13612TIP3   OH262326   1.504   2.637  15.620 -0.0975  0.2445 -0.8850
13612TIP3    H162327   1.552   2.614  15.541 -0.1148 -0.2674 -0.7519
13612TIP3    H262328   1.419   2.593  15.610 -0.0842  0.1429 -0.5632
13613TIP3   OH262329   5.503   3.096  11.959  0.3837  0.1476 -0.0290
13613TIP3    H162330   5.583   3.141  11.930  0.4644  0.2987  0.4346
13613TIP3    H262331   5.535   3.026  12.016  0.2064 -0.0194 -0.1346
13614TIP3   OH262332   3.766   4.334  11.099 -0.7010 -0.8679 -0.5753
13614TIP3    H162333   3.772   4.383  11.018  0.6963 -0.1802 -0.0721
13614TIP3    H262334   3.795   4.395  11.167  3.3960 -3.0323 -0.2142
13615TIP3   OH262335   3.554   1.284  16.080  0.0517  0.3092  0.2370
13615TIP3    H162336   3.591   1.348  16.020 -0.5826  0.5705  0.1243
13615TIP3    H262337   3.630   1.235  16.112  0.5470  1.1765  0.4035
13616TIP3   OH262338   4.524   5.138   5.262 -0.1747  0.1503 -0.3782
13616TIP3    H162339   4.532   5.220   5.212  1.3471  0.2995  0.0878
13616TIP3    H262340   4.469   5.162   5.337 -0.9653  0.3729 -1.0222
13617TIP3   OH262341   3.968   3.528  15.918 -0.3636  0.0795 -0.1727
13617TIP3    H162342   3.896   3.586  15.940 -1.4137 -1.1028 -0.4585
13617TIP3    H262343   3.962   3.517  15.823 -0.5161 -0.9428 -0.0506
13618TIP3   OH262344   1.509   0.816  11.376  0.0404  0.4603 -0.0088
13618TIP3    H162345   1.538   0.900  11.341  3.1418 -0.6178 -0.1797
13618TIP3    H262346   1.475   0.769  11.300  0.2728  0.7706 -0.3078
13619TIP3   OH262347   3.700   3.590   2.928 -0.0885  0.3343 -0.3518
13619TIP3    H162348   3.678   3.571   2.836 -0.1541  0.5591 -0.3837
13619TIP3    H262349   3.755   3.516   2.955 -0.9307 -0.2612 -0.2548
13620TIP3   OH262350   1.539   1.437  15.352  0.5368  0.5204  0.2074
13620TIP3    H162351   1.621   1.481  15.332 -0.1625  2.0462  0.6694
13620TIP3    H262352   1.472   1.489  15.309 -0.2250 -0.5900  0.0248
13621TIP3   OH262353   6.071   1.775   3.263  0.1279 -0.2332  0.0775
13621TIP3    H162354   6.062   1.836   3.190  1.0308 -0.1163  0.0507
13621TIP3    H262355   6.036   1.693   3.231 -0.5383  0.1185 -0.0948
13622TIP3   OH262356   1.590   4.946  14.941 -0.0077 -0.5080  0.6065
13622TIP3    H162357   1.672   4.909  14.972 -0.0786 -2.4701 -1.4309
13622TIP3    H262358   1.566   5.010  15.008  2.3306 -1.0725  2.0452
13623TIP3   OH262359   6.281   2.935   4.457  0.3031 -0.0667 -0.2854
13623TIP3    H162360   6.292   2.849   4.416  0.1485  0.1423 -0.7697
13623TIP3    H262361   6.250   2.915   4.546 -1.9717 -0.4509 -1.1464
13624TIP3   OH262362   4.244   5.575   3.622 -0.4700  0.6267 -0.0171
13624TIP3    H162363   4.272   5.526   3.545  0.0336 -1.0593  1.2172
13624TIP3    H262364   4.292   5.658   3.617  1.4949 -0.4958 -0.1804
13625TIP3   OH262365   4.153   5.013  15.448  0.8557 -0.4640 -0.1941
13625TIP3    H162366   4.167   4.966  15.531  0.8767  0.4433  0.3164
13625TIP3    H262367   4.064   5.047  15.455  1.2277  0.4859 -0.1178
13626TIP3   OH262368   0.240   6.411   4.286 -0.0205  0.1193  0.1130
13626TIP3    H162369   0.145   6.420   4.290  0.0721  2.0952 -1.0350
13626TIP3    H262370   0.265   6.371   4.369 -2.0121 -2.1173 -0.3327
13627TIP3   OH262371   5.670   6.721   4.480  0.0291  1.2193  0.2146
13627TIP3    H162372   5.672   6.685   4.569 -1.5684  0.4273 -0.0515
13627TIP3    H262373   5.578   6.746   4.467 -0.0830 -0.1275 -1.7802
13628TIP3   OH262374   6.175   3.935   5.009  0.4313  0.0615 -0.0521
13628TIP3    H162375   6.166   3.996   5.083  1.4693  0.7453 -0.4733
13628TIP3    H262376   6.165   3.990   4.931  0.9342 -0.3873 -0.4359
13629TIP3   OH262377   6.259   6.017  11.843  0.4167  0.7261  0.0075
13629TIP3    H162378   6.247   5.950  11.910 -0.0546  0.2876 -0.5058
13629TIP3    H262379   6.324   5.980  11.783 -0.8103  0.1503 -0.9989
13630TIP3   OH262380   1.845   4.796  11.622  0.5604  0.2926  0.6603
13630TIP3    H162381   1.787   4.786  11.547 -0.5884 -0.3413  1.6263
13630TIP3    H262382   1.923   4.839  11.586 -0.2077  0.5130 -0.7727
13631TIP3   OH262383   1.022   6.385  13.428  0.5379  0.1940 -0.1308
13631TIP3    H162384   1.068   6.307  13.398 -0.4875 -1.5173  2.5894
13631TIP3    H262385   1.091   6.452  13.433  1.5853 -0.7304 -1.6876
13632TIP3   OH262386   4.969   6.816  16.304  0.1381 -0.7518  0.5912
13632TIP3    H162387   5.011   6.730  16.298  0.1224 -0.9453  2.9669
13632TIP3    H262388   4.884   6.799  16.344  0.3943  0.4466  1.6590
13633TIP3   OH262389   3.988   5.693  15.956 -0.0758  0.0805  0.0141
13633TIP3    H162390   3.929   5.625  15.989 -1.0363  0.5900 -0.6198
13633TIP3    H262391   3.932   5.771  15.948  1.0150  0.9575  0.7567
13634TIP3   OH262392   2.893   6.629  10.442 -0.1642 -0.8127 -0.4205
13634TIP3    H162393   2.944   6.549  10.431  1.2073 -0.0699  0.3483
13634TIP3    H262394   2.957   6.700  10.434 -1.0416  0.1365  0.6798
13635TIP3   OH262395   4.124   0.456   4.051 -0.5672 -0.0528 -0.1136
13635TIP3    H162396   4.111   0.361   4.059  1.0390 -0.3619 -0.8942
13635TIP3    H262397   4.197   0.475   4.110  0.0342  0.4613 -1.0158
13636TIP3   OH262398   6.114   0.625   0.423  0.8289  0.2372  0.0984
13636TIP3    H162399   6.159   0.554   0.376 -0.1841 -0.2518 -0.1457
13636TIP3    H262400   6.128   0.702   0.367 -0.1509 -0.2880 -0.8944
13637TIP3   OH262401   4.542   6.184  13.672 -0.2092 -0.0003 -0.1796
13637TIP3    H162402   4.507   6.110  13.623  1.8439 -0.5025 -0.9332
13637TIP3    H262403   4.573   6.146  13.754  0.1138  0.1553 -0.2284
13638TIP3   OH262404   0.287   6.680   5.334  0.4391  0.2076 -0.2027
13638TIP3    H162405   0.365   6.629   5.356  1.4349  1.2804 -1.1747
13638TIP3    H262406   0.217   6.616   5.327  1.6050 -0.9891 -1.0749
13639TIP3   OH262407   4.100   5.129  13.385 -0.0600  0.3657  0.8916
13639TIP3    H162408   4.152   5.049  13.386  0.0575  0.3930 -1.0304
13639TIP3    H262409   4.028   5.112  13.447  0.5364 -0.8142  1.2731
13640TIP3   OH262410   2.313   5.378  16.260  0.4295  0.2461 -0.0061
13640TIP3    H162411   2.223   5.397  16.232  0.7761  0.2571 -1.1199
13640TIP3    H262412   2.318   5.414  16.349 -0.7599 -0.0365  0.1871
13641TIP3   OH262413   6.462   3.747   0.932 -0.2695 -0.3958 -0.7845
13641TIP3    H162414   6.515   3.822   0.906  1.6662 -1.5532 -0.2795
13641TIP3    H262415   6.400   3.782   0.996  1.8585  0.4341  0.8843
13642TIP3   OH262416   0.194   6.192   5.365 -0.1390 -0.5852  0.2914
13642TIP3    H162417   0.100   6.174   5.363 -0.2114 -0.2161  0.3045
13642TIP3    H262418   0.207   6.254   5.294  0.1195 -0.7473  0.1988
13643TIP3   OH262419   5.788   1.403   4.338 -0.1027 -0.6273  0.5235
13643TIP3    H162420   5.707   1.394   4.287 -0.5952  1.5581  0.8716
13643TIP3    H262421   5.764   1.459   4.412  1.7222  0.0316  0.6409
13644TIP3   OH262422   2.705   5.582  14.307  0.2228 -0.2009 -0.2103
13644TIP3    H162423   2.701   5.490  14.333 -1.4068 -0.1951 -0.3749
13644TIP3    H262424   2.766   5.584  14.233  0.2619 -1.1581 -0.2058
13645TIP3   OH262425   6.096   1.800  13.440 -0.4062 -0.6231 -0.2119
13645TIP3    H162426   6.119   1.820  13.350 -1.2397 -0.3911 -0.3768
13645TIP3    H262427   6.162   1.845  13.493  0.0097 -0.6592 -0.6965
13646TIP3   OH262428   4.934   0.567  16.702 -0.3292  0.3683  0.3896
13646TIP3    H162429   5.022   0.581  16.666 -1.1704  1.0413 -1.5009
13646TIP3    H262430   4.877   0.619  16.645 -2.4368 -3.0621 -0.7839
13647TIP3   OH262431   3.492   3.222   4.019 -0.4937  0.1559 -0.1450
13647TIP3    H162432   3.517   3.314   4.012  0.0066 -0.0647 -1.3444
13647TIP3    H262433   3.575   3.174   4.015 -0.7410 -0.3447  0.6083
13648TIP3   OH262434   6.380   1.329  15.147 -0.0256 -0.0276 -0.2194
13648TIP3    H162435   6.456   1.382  15.123 -0.7382  0.8159 -0.6387
13648TIP3    H262436   6.410   1.238  15.136  1.5130  0.2496  1.4913
13649TIP3   OH262437   0.697   4.867  11.370  0.2331  0.1365 -0.0462
13649TIP3    H162438   0.638   4.838  11.301  0.1602 -0.4488  0.2567
13649TIP3    H262439   0.641   4.877  11.447  0.3111  0.8025 -0.0770
13650TIP3   OH262440   6.452   6.584  14.879  0.3254 -0.2255  0.0360
13650TIP3    H162441   6.422   6.558  14.792 -1.9778  3.4422 -0.3801
13650TIP3    H262442   6.537   6.626  14.864 -0.9382  2.1521 -0.8122
13651TIP3   OH262443   1.778   2.911   2.509  0.0680  0.7283  0.4549
13651TIP3    H162444   1.827   2.988   2.479 -1.6255  0.5982 -2.8413
13651TIP3    H262445   1.704   2.947   2.557 -1.7382  1.2992 -2.6493
13652TIP3   OH262446   1.688   3.182  11.592  0.1917  0.8745  0.2749
13652TIP3    H162447   1.700   3.253  11.528 -1.3986  0.5231 -0.4216
13652TIP3    H262448   1.739   3.109  11.556 -1.2092  0.4685 -0.9587
13653TIP3   OH262449   5.428   4.103   2.502  0.1677  0.6341 -0.2326
13653TIP3    H162450   5.395   4.084   2.590  0.0094 -0.7012 -0.5772
13653TIP3    H262451   5.506   4.156   2.516 -1.2955  2.6502  0.6424
13654TIP3   OH262452   5.096   3.952  17.044 -0.0653 -0.3016 -0.1623
13654TIP3    H162453   5.145   3.999  16.977 -0.8133  0.6215 -0.0635
13654TIP3    H262454   5.016   3.923  17.001 -1.0479  1.2177  0.5952
13655TIP3   OH262455   2.892   1.344  14.886  0.2952 -0.1977 -0.4303
13655TIP3    H162456   2.849   1.343  14.801  0.7052  0.4532 -0.6456
13655TIP3    H262457   2.855   1.419  14.931 -0.8531 -1.2773  0.4533
13656TIP3   OH262458   0.069   2.154  16.936  0.4714 -0.1557 -0.2896
13656TIP3    H162459   0.156   2.122  16.914  0.3470 -1.4389  1.0708
13656TIP3    H262460   0.010   2.083  16.913 -0.0497  0.0428  0.4022
13657TIP3   OH262461   6.764   3.664  10.941 -0.0993  0.2304  0.4057
13657TIP3    H162462   6.847   3.698  10.907 -0.3282 -0.7713 -1.2372
13657TIP3    H262463   6.788   3.622  11.024  0.7154  1.5216  0.8418
13658TIP3   OH262464   3.129   3.728   0.533 -0.0019  0.4891  0.3328
13658TIP3    H162465   3.223   3.736   0.543 -0.0915  0.6160  1.1107
13658TIP3    H262466   3.092   3.794   0.592 -0.5971 -0.5390  1.1347
13659TIP3   OH262467   3.805   2.315  10.963 -0.3507  0.0594 -0.1178
13659TIP3    H162468   3.870   2.369  10.918 -0.1833  0.8590  1.0676
13659TIP3    H262469   3.743   2.290  10.894  0.2532  0.7405 -0.9199
13660TIP3   OH262470   0.865   4.074   1.664 -0.9397 -0.4612  0.4696
13660TIP3    H162471   0.843   4.141   1.729  0.2260  0.7020 -0.3274
13660TIP3    H262472   0.933   4.021   1.707  0.0187  0.4658  0.1105
13661TIP3   OH262473   6.572   2.941   1.530  0.0005  0.3736 -0.1164
13661TIP3    H162474   6.573   2.986   1.446 -0.1802 -1.6284 -1.2218
13661TIP3    H262475   6.484   2.905   1.538  0.6963 -1.4187 -0.1833
13662TIP3   OH262476   1.861   3.641  12.457  0.2932  0.0530  0.0445
13662TIP3    H162477   1.846   3.588  12.535 -0.0884  2.2184  1.4961
13662TIP3    H262478   1.907   3.583  12.397  0.4317 -1.7212  1.8038
13663TIP3   OH262479   3.270   2.388   4.762 -0.2378  0.5387  0.2869
13663TIP3    H162480   3.259   2.483   4.762 -3.5900  0.2134  2.6143
13663TIP3    H262481   3.187   2.353   4.794 -0.1553 -3.3672 -3.2446
13664TIP3   OH262482   0.560   0.080  13.356 -0.2401 -0.2898 -0.0069
13664TIP3    H162483   0.535   0.130  13.279  0.4863  1.8861  1.1181
13664TIP3    H262484   0.641   0.035  13.331 -1.1816 -1.3269 -1.1996
13665TIP3   OH262485   2.084   1.336   3.194 -0.0112  0.0235  0.2767
13665TIP3    H162486   2.077   1.241   3.195 -0.2185  0.0499  1.0098
13665TIP3    H262487   2.037   1.366   3.272  1.2396  0.6412  0.8193
13666TIP3   OH262488   0.898   2.788   0.817 -0.6307 -0.4474  0.1899
13666TIP3    H162489   0.971   2.797   0.878 -2.9898 -0.2222  3.0984
13666TIP3    H262490   0.880   2.694   0.815 -0.9354 -0.3932  0.3290
13667TIP3   OH262491   0.613   5.139   3.111  0.2053 -0.3609  0.7368
13667TIP3    H162492   0.549   5.166   3.045  1.7402 -2.6711 -1.8241
13667TIP3    H262493   0.678   5.209   3.111  0.4044 -0.5331 -0.5391
13668TIP3   OH262494   0.783   5.267  12.621 -0.0223  0.1442 -0.2216
13668TIP3    H162495   0.832   5.189  12.594 -1.2866 -0.6354 -0.2910
13668TIP3    H262496   0.728   5.289  12.545 -1.0013  0.0302  0.4453
13669TIP3   OH262497   1.105   1.129  12.970 -0.1125 -0.1520 -0.0884
13669TIP3    H162498   1.175   1.161  12.912  0.4997  0.3103  0.9086
13669TIP3    H262499   1.057   1.207  12.996  0.5273 -0.2029  1.2303
13670TIP3   OH262500   3.690   2.457  10.530  0.6674 -0.2742 -0.1501
13670TIP3    H162501   3.607   2.415  10.555  1.3293 -1.0568  0.7264
13670TIP3    H262502   3.703   2.431  10.439  1.2365 -2.2364  0.4831
13671TIP3   OH262503   0.206   6.480   1.228 -0.0523 -0.1518 -0.4538
13671TIP3    H162504   0.156   6.438   1.158 -0.5755  0.1924 -0.2902
13671TIP3    H262505   0.239   6.408   1.281 -1.5818 -0.3388  0.2605
13672TIP3   OH262506   4.831   1.494  15.791 -0.1546  0.7231 -0.2345
13672TIP3    H162507   4.801   1.582  15.814  0.1975  0.5324  0.9718
13672TIP3    H262508   4.813   1.441  15.868  1.3386  0.1334 -0.2743
13673TIP3   OH262509   5.885   4.782  11.309  0.4038 -0.3102  0.3125
13673TIP3    H162510   5.904   4.694  11.277  1.2079 -0.4674  1.1836
13673TIP3    H262511   5.838   4.824  11.238  0.3814 -1.3101 -0.2738
13674TIP3   OH262512   2.679   2.508   1.931 -0.8233  0.1754 -0.3860
13674TIP3    H162513   2.694   2.466   1.847 -1.6405 -0.0444 -0.4255
13674TIP3    H262514   2.753   2.481   1.986 -0.9409 -0.6702 -0.6482
13675TIP3   OH262515   5.694   6.661   5.746 -0.1499 -0.0490 -0.3536
13675TIP3    H162516   5.781   6.685   5.713 -0.1832  0.1686 -0.2822
13675TIP3    H262517   5.665   6.591   5.686 -0.2320  0.3841 -0.8238
13676TIP3   OH262518   1.934   2.032   4.382 -0.1320 -0.3944  0.1842
13676TIP3    H162519   1.937   1.954   4.438 -0.3623  1.6124  3.0538
13676TIP3    H262520   1.893   2.001   4.301 -0.9902 -3.0553  1.5758
13677TIP3   OH262521   3.689   4.763  11.444 -0.2688 -0.2327  0.1357
13677TIP3    H162522   3.734   4.691  11.400  2.6577  0.6172  1.6616
13677TIP3    H262523   3.672   4.731  11.532  1.8689  1.2457  1.1090
13678TIP3   OH262524   4.656   0.892  15.887 -0.0598  0.4912 -0.2502
13678TIP3    H162525   4.711   0.836  15.942 -0.7448  0.7500  0.7240
13678TIP3    H262526   4.718   0.942  15.834  0.5408 -2.0826 -2.0614
13679TIP3   OH262527   3.126   5.086   5.062 -0.9593 -0.5513  0.3802
13679TIP3    H162528   3.164   5.140   4.992  0.8483 -0.0789  1.7075
13679TIP3    H262529   3.068   5.026   5.016 -0.9379  0.7372 -1.3947
13680TIP3   OH262530   2.034   3.189   3.367 -0.3988  0.1881  0.0234
13680TIP3    H162531   1.971   3.123   3.396 -1.5210  1.4924  0.5956
13680TIP3    H262532   2.105   3.139   3.327 -1.0341 -1.3877  0.8439
13681TIP3   OH262533   3.795   0.340  15.983 -0.2046 -0.2802  0.4515
13681TIP3    H162534   3.740   0.296  15.918 -0.9400  0.1953  0.7529
13681TIP3    H262535   3.874   0.365  15.934 -1.3725  1.3713 -0.6303
13682TIP3   OH262536   6.661   3.648   3.861  0.0071  0.5000 -0.4010
13682TIP3    H162537   6.702   3.729   3.831 -0.8844  1.4606  0.9565
13682TIP3    H262538   6.585   3.637   3.804  0.4792  0.2668 -0.9977
13683TIP3   OH262539   5.411   1.266   1.123 -0.4938  0.4886  0.1329
13683TIP3    H162540   5.493   1.286   1.079 -1.5712  2.1504 -1.1792
13683TIP3    H262541   5.359   1.346   1.116 -2.1043 -0.4176  1.2470
13684TIP3   OH262542   0.230   1.983  12.058  0.5960  0.1287 -0.0527
13684TIP3    H162543   0.217   2.016  12.146 -0.6980  3.5268 -1.4446
13684TIP3    H262544   0.152   1.930  12.040  0.1991  0.5910  0.3228
13685TIP3   OH262545   5.256   6.593   0.611  0.1433 -0.0138  0.3232
13685TIP3    H162546   5.300   6.670   0.576 -1.0885  0.9165  0.7772
13685TIP3    H262547   5.180   6.580   0.555  0.0246 -0.5577  0.5980
13686TIP3   OH262548   6.454   4.501   1.363  0.0078 -0.0210  0.1685
13686TIP3    H162549   6.371   4.543   1.385  0.3040  0.3099  0.6454
13686TIP3    H262550   6.513   4.573   1.344 -0.0988 -0.2805 -1.2185
13687TIP3   OH262551   2.021   5.098   5.961  0.4057  0.0333 -0.0199
13687TIP3    H162552   1.986   5.181   5.992  1.8075  0.3675  0.7227
13687TIP3    H262553   1.968   5.031   6.005 -0.2495  0.5244 -0.0617
13688TIP3   OH262554   6.066   5.503  10.845 -0.1037  0.0592  0.0230
13688TIP3    H162555   5.986   5.481  10.799  0.0184 -0.3692  0.0148
13688TIP3    H262556   6.135   5.454  10.799  0.1865  0.5635 -0.0851
13689TIP3   OH262557   3.478   5.899   5.461 -0.5067 -0.4530 -0.0711
13689TIP3    H162558   3.398   5.878   5.509 -1.8039 -0.0294 -1.9635
13689TIP3    H262559   3.490   5.824   5.402  0.3528 -0.4003  0.0390
13690TIP3   OH262560   1.744   6.504   3.384  0.4473 -0.3934  0.3176
13690TIP3    H162561   1.782   6.524   3.469  0.9145  2.0515 -0.4309
13690TIP3    H262562   1.819   6.501   3.324 -0.1427  0.4896 -0.4688
13691TIP3   OH262563   4.995   5.755  15.113  0.5599 -0.0420  0.2239
13691TIP3    H162564   4.900   5.755  15.107  0.6106  1.3672 -0.8557
13691TIP3    H262565   5.014   5.817  15.185  0.7120  1.3136 -0.9607
13692TIP3   OH262566   4.017   1.609  15.879 -0.5489 -0.0866  0.7119
13692TIP3    H162567   4.030   1.655  15.796 -0.1369 -1.6932 -0.1364
13692TIP3    H262568   3.973   1.673  15.935 -0.0681  1.3035 -0.4626
13693TIP3   OH262569   4.112   5.087  14.654 -0.0422 -0.1989 -0.3816
13693TIP3    H162570   4.197   5.058  14.622 -0.5304 -1.6858 -0.3891
13693TIP3    H262571   4.109   5.057  14.745  0.2667  1.6749  0.2771
13694TIP3   OH262572   1.177   6.121  15.733 -0.2388  0.5221  0.1673
13694TIP3    H162573   1.200   6.036  15.697 -3.7325 -0.9401  1.2191
13694TIP3    H262574   1.106   6.103  15.794 -0.3824  4.0743  1.1503
13695TIP3   OH262575   1.450   0.333  17.113  0.0062  0.8581  0.3631
13695TIP3    H162576   1.510   0.363  17.044  0.9190 -1.1771  0.2393
13695TIP3    H262577   1.472   0.241  17.126 -2.0584  0.4792  1.4294
13696TIP3   OH262578   6.119   0.077   1.311 -0.1336 -0.4321  0.5927
13696TIP3    H162579   6.199   0.128   1.324 -0.3410 -0.0654  0.4482
13696TIP3    H262580   6.141   0.014   1.243  0.3091 -0.9367  1.1968
13697TIP3   OH262581   4.622   4.086  16.334 -0.2811 -0.3088 -0.7013
13697TIP3    H162582   4.610   4.009  16.278  3.6825 -1.2861 -0.3045
13697TIP3    H262583   4.711   4.116  16.316  0.4374  0.5274  3.5765
13698TIP3   OH262584   0.512   3.877   4.766  0.3713 -0.1628 -0.5669
13698TIP3    H162585   0.523   3.921   4.850  1.0503 -1.0274 -0.1906
13698TIP3    H262586   0.434   3.917   4.727  0.7367  1.0740 -0.0564
13699TIP3   OH262587   2.416   6.150   5.878  0.5047 -0.4395 -1.0640
13699TIP3    H162588   2.455   6.185   5.798  1.7902 -0.2540 -0.3596
13699TIP3    H262589   2.374   6.069   5.851  1.5289 -0.7256 -1.7848
13700TIP3   OH262590   4.862   2.979   2.746  0.3338  0.1546 -0.4173
13700TIP3    H162591   4.887   3.008   2.658  1.3535  0.4461 -0.0422
13700TIP3    H262592   4.791   2.916   2.732  1.3402 -0.7558 -1.5330
13701TIP3   OH262593   4.843   2.156  12.400  0.4417 -0.1483  0.1138
13701TIP3    H162594   4.860   2.239  12.355 -1.3619  1.3514  2.1374
13701TIP3    H262595   4.753   2.134  12.377 -0.1123  0.0395  2.0057
13702TIP3   OH262596   2.243   1.784   1.952  0.3685 -0.5053 -0.4810
13702TIP3    H162597   2.160   1.827   1.971 -0.4144 -1.7694 -1.0089
13702TIP3    H262598   2.282   1.766   2.038  0.4644  0.7709 -0.2491
13703TIP3   OH262599   6.409   4.414  13.318 -0.3249 -0.6274 -0.0411
13703TIP3    H162600   6.490   4.463  13.334 -0.1923 -1.4572  1.8935
13703TIP3    H262601   6.344   4.482  13.302  0.4640  0.0836 -0.3100
13704TIP3   OH262602   6.486   5.282  17.120 -0.0463  0.1046  1.2571
13704TIP3    H162603   6.527   5.308  17.037  0.6950  0.7364  1.8178
13704TIP3    H262604   6.409   5.339  17.126  0.0664  0.2703  1.1523
13705TIP3   OH262605   2.296   4.802  13.675  0.4274  0.3824  0.4031
13705TIP3    H162606   2.376   4.854  13.664  0.0998  0.3658 -2.5067
13705TIP3    H262607   2.327   4.718  13.709  1.3028  1.3408  2.0751
13706TIP3   OH262608   2.281   0.621   5.430 -0.0713 -0.4064  0.0935
13706TIP3    H162609   2.299   0.661   5.514  0.5435  0.5510 -0.4896
13706TIP3    H262610   2.272   0.694   5.369  1.7394 -1.1436 -1.1138
13707TIP3   OH262611   5.196   6.727  14.002  0.4431  0.5119 -0.2808
13707TIP3    H162612   5.200   6.682  14.086  0.2846 -0.7126 -0.9266
13707TIP3    H262613   5.110   6.705  13.966  0.1670  1.7175 -0.3887
13708TIP3   OH262614   3.532   0.028   2.091  0.1425  0.6025 -0.3352
13708TIP3    H162615   3.579   0.083   2.154  1.4181 -0.4874 -0.3128
13708TIP3    H262616   3.598  -0.031   2.057 -1.8076 -3.2491  2.1544
13709TIP3   OH262617   5.519   1.251  11.656  0.0127  0.6083 -0.4383
13709TIP3    H162618   5.509   1.219  11.746 -0.2414  0.6442 -0.4525
13709TIP3    H262619   5.614   1.252  11.641  0.2507  3.4848  0.8823
13710TIP3   OH262620   1.134   3.393   0.294 -0.0948 -0.1284 -0.5073
13710TIP3    H162621   1.160   3.306   0.263 -0.9310 -1.6028  2.7577
13710TIP3    H262622   1.208   3.423   0.346 -0.5324  0.3501 -0.1576
13711TIP3   OH262623   1.117   5.007   5.458 -0.0387 -0.2001  0.1000
13711TIP3    H162624   1.133   5.066   5.384  0.2671 -1.3086 -0.7370
13711TIP3    H262625   1.183   5.032   5.523 -1.2379  1.7484  0.6132
13712TIP3   OH262626   2.242   6.751   2.234 -0.0934 -0.3279 -0.0745
13712TIP3    H162627   2.296   6.823   2.264 -1.3298  0.9343 -0.8170
13712TIP3    H262628   2.171   6.746   2.299 -0.8915  0.1827 -0.8998
13713TIP3   OH262629   3.055   6.103  10.836  0.3724  0.1461 -0.5208
13713TIP3    H162630   3.151   6.093  10.834  0.5527  1.4521  1.1052
13713TIP3    H262631   3.022   6.017  10.809  2.0039 -1.0584  1.1795
13714TIP3   OH262632   6.256   6.685  12.611 -0.1767  0.3504 -0.2837
13714TIP3    H162633   6.315   6.718  12.678 -0.8193 -0.1263  0.5359
13714TIP3    H262634   6.275   6.737  12.533  1.4269  0.0892 -0.0792
13715TIP3   OH262635   2.767   1.018  11.180 -0.4361 -0.3072 -0.1477
13715TIP3    H162636   2.700   1.075  11.143  0.7300  0.1772 -1.5797
13715TIP3    H262637   2.727   0.931  11.182 -0.7748 -0.2085 -1.9280
13716TIP3   OH262638   0.516   0.068   4.038  0.5027 -0.2782 -0.7251
13716TIP3    H162639   0.542   0.085   4.128 -0.6658 -1.9963 -0.0414
13716TIP3    H262640   0.526  -0.026   4.027 -2.2056 -0.5349 -1.4502
13717TIP3   OH262641   3.024   0.840   4.199 -0.3661  0.1821 -0.4354
13717TIP3    H162642   3.055   0.902   4.133  1.5810 -1.0145 -0.7018
13717TIP3    H262643   2.929   0.841   4.191 -0.1518 -1.0430 -4.3136
13718TIP3   OH262644   4.177   0.494  15.462  0.4324  0.0138 -0.7603
13718TIP3    H162645   4.157   0.537  15.545  0.7065  0.2756 -0.8315
13718TIP3    H262646   4.272   0.501  15.453  0.5973 -1.4572 -0.2984
13719TIP3   OH262647   6.472   5.566   5.867 -0.1912 -0.1837  0.5845
13719TIP3    H162648   6.438   5.629   5.803 -0.4402 -1.4410 -0.5563
13719TIP3    H262649   6.560   5.598   5.887 -1.0648  1.6675  1.6005
13720TIP3   OH262650   5.751   4.107   3.605  0.1805  0.2449 -0.1656
13720TIP3    H162651   5.747   4.035   3.543  1.1149 -0.0273  0.0836
13720TIP3    H262652   5.797   4.071   3.681 -1.5175  0.3751  0.9588
13721TIP3   OH262653   4.385   0.537  12.718  0.4361 -0.6551  0.0404
13721TIP3    H162654   4.361   0.452  12.755 -0.9679 -0.2489  0.0778
13721TIP3    H262655   4.377   0.598  12.791  2.2119 -0.5937  0.2125
13722TIP3   OH262656   1.825   1.771  14.748  0.2935 -1.0401 -0.1601
13722TIP3    H162657   1.857   1.778  14.838  0.7281 -0.9679 -0.3221
13722TIP3    H262658   1.888   1.714  14.704  2.3582  2.1037 -1.4676
13723TIP3   OH262659   5.827   3.650   4.188 -0.4371  0.5991  0.1029
13723TIP3    H162660   5.880   3.582   4.231  0.3604  0.3839 -1.2071
13723TIP3    H262661   5.801   3.610   4.105 -2.3410  0.8510  0.5590
13724TIP3   OH262662   6.650   4.641  11.402 -0.5619 -0.6180 -0.7087
13724TIP3    H162663   6.708   4.718  11.407 -0.3181 -0.8314 -0.2849
13724TIP3    H262664   6.631   4.619  11.493  0.8887 -2.2024 -0.7698
13725TIP3   OH262665   0.427   3.290  16.623 -0.8031 -0.2731 -0.4370
13725TIP3    H162666   0.344   3.323  16.588 -0.7897 -1.2248 -1.3905
13725TIP3    H262667   0.423   3.195  16.611 -0.2331 -0.4773  0.9604
13726TIP3   OH262668   2.230   3.129   4.523  0.0437 -0.6913 -0.1732
13726TIP3    H162669   2.261   3.115   4.433 -0.6941  1.5563 -0.8215
13726TIP3    H262670   2.155   3.189   4.513  0.4833  0.2544  2.0070
13727TIP3   OH262671   6.077   3.832  14.107 -0.6016 -0.2849 -0.0294
13727TIP3    H162672   6.072   3.845  14.202  0.1027 -0.8678  0.0912
13727TIP3    H262673   6.118   3.912  14.074 -0.2322 -0.3626  0.2376
13728TIP3   OH262674   4.553   4.414   4.962 -0.1265 -0.4552  0.0940
13728TIP3    H162675   4.634   4.394   5.009 -0.3225  0.3791  0.8120
13728TIP3    H262676   4.550   4.351   4.891  1.9128  0.4161 -0.8275
13729TIP3   OH262677   4.171   1.374  15.022 -0.0160 -0.2208  0.1075
13729TIP3    H162678   4.096   1.323  15.052 -1.0014  0.2203 -1.5350
13729TIP3    H262679   4.194   1.430  15.096 -0.7977 -0.9264  0.8897
13730TIP3   OH262680   4.298   2.380   0.087 -0.3196  0.0855 -0.5393
13730TIP3    H162681   4.373   2.327   0.114  0.7388  1.0950 -1.4097
13730TIP3    H262682   4.229   2.358   0.149  1.0294 -0.0982  0.9446
13731TIP3   OH262683   6.321   3.259   3.828 -0.7581  0.0316 -0.0620
13731TIP3    H162684   6.398   3.203   3.820  0.3612  1.2552  1.8233
13731TIP3    H262685   6.251   3.199   3.856 -0.6649 -1.1922 -2.3788
13732TIP3   OH262686   2.832   4.021  13.836  0.0860  0.0367 -0.6136
13732TIP3    H162687   2.817   3.980  13.922  1.8746  0.3899 -0.1128
13732TIP3    H262688   2.815   3.951  13.773 -2.5636  0.1176 -0.0818
13733TIP3   OH262689   5.949   0.790   2.485 -0.0516  0.6440  0.0085
13733TIP3    H162690   5.875   0.736   2.511 -0.1226  1.0555  0.6814
13733TIP3    H262691   6.005   0.795   2.563  0.5228  0.6000 -0.3923
13734TIP3   OH262692   2.151   5.970  16.783 -0.0618 -0.0093 -0.0711
13734TIP3    H162693   2.229   5.920  16.761  0.2971  1.1586 -1.5397
13734TIP3    H262694   2.101   5.913  16.841  1.5968 -0.9970  0.4165
13735TIP3   OH262695   6.245   2.798   5.360  0.0096 -0.0531 -0.0539
13735TIP3    H162696   6.250   2.872   5.299  1.1604 -0.0267  0.0493
13735TIP3    H262697   6.154   2.796   5.388 -0.3887  0.3110 -1.3110
13736TIP3   OH262698   3.752   5.566  14.321  0.5197  0.1936  0.0472
13736TIP3    H162699   3.743   5.492  14.261  1.6895  1.1235 -1.2938
13736TIP3    H262700   3.672   5.563  14.374 -0.6729 -0.4741 -1.7332
13737TIP3   OH262701   0.249   4.803  16.885  0.0372  0.1385 -0.5937
13737TIP3    H162702   0.163   4.844  16.882 -0.7250 -1.3909 -0.1195
13737TIP3    H262703   0.283   4.825  16.972 -0.4816 -0.4595 -0.2378
13738TIP3   OH262704   4.019   5.634   4.987 -0.4475 -0.4675  0.7193
13738TIP3    H162705   4.059   5.718   4.967  0.7052 -1.5125 -1.4753
13738TIP3    H262706   4.044   5.616   5.078  3.0352 -0.5035 -0.2019
13739TIP3   OH262707   1.810   6.015  15.527  0.4166  0.5819 -0.1793
13739TIP3    H162708   1.846   5.934  15.562 -2.0344 -1.3919 -2.0612
13739TIP3    H262709   1.848   6.021  15.439  0.3528  1.3453 -0.1573
13740TIP3   OH262710   0.218   1.340  12.923 -0.2167 -0.1000 -0.5073
13740TIP3    H162711   0.227   1.375  12.834  0.2324  1.8484  0.2855
13740TIP3    H262712   0.219   1.245  12.911  0.1469  0.1376 -2.5583
13741TIP3   OH262713   4.337   3.115   0.983  0.3003 -0.1424 -0.3554
13741TIP3    H162714   4.272   3.117   0.913 -0.9030  3.4199  0.7788
13741TIP3    H262715   4.420   3.136   0.940  0.0370 -0.6507 -1.1234
13742TIP3   OH262716   4.775   0.355   3.506 -0.1193  0.7691  0.5515
13742TIP3    H162717   4.765   0.301   3.585 -2.1039  2.1766  1.2899
13742TIP3    H262718   4.868   0.379   3.506  0.1707 -0.2396  1.7913
13743TIP3   OH262719   2.130   2.466   0.090  0.4214 -0.7616  0.1954
13743TIP3    H162720   2.049   2.493   0.047 -0.6991 -2.3781  1.2674
13743TIP3    H262721   2.177   2.549   0.105 -0.2264  0.0331 -1.9659
13744TIP3   OH262722   1.959   0.725  15.556  0.0893  0.1646 -0.5998
13744TIP3    H162723   1.959   0.808  15.508  0.0137  0.2324 -0.4833
13744TIP3    H262724   1.990   0.661  15.492  0.2411  0.2989 -0.6630
13745TIP3   OH262725   2.531   0.989  12.566  0.5514 -0.1524  0.0238
13745TIP3    H162726   2.456   0.930  12.556 -0.5953  1.1113  0.9469
13745TIP3    H262727   2.493   1.072  12.595  2.0706  1.2234 -1.7949
13746TIP3   OH262728   4.191   4.339  12.019 -0.0959  0.4359  0.8030
13746TIP3    H162729   4.096   4.339  12.028 -0.3215  0.2147 -1.2012
13746TIP3    H262730   4.214   4.248  12.001  0.2766  0.7705 -0.4824
13747TIP3   OH262731   2.191   3.114   3.055 -0.1681  0.7431 -0.8589
13747TIP3    H162732   2.101   3.084   3.062  0.1532  0.1191  0.9609
13747TIP3    H262733   2.243   3.034   3.054  0.3482  1.0892 -2.2433
13748TIP3   OH262734   6.299   6.002  14.438 -0.0553  0.2435  0.0767
13748TIP3    H162735   6.249   6.081  14.418  1.5047  0.5389 -3.1106
13748TIP3    H262736   6.385   6.018  14.399  0.5340 -2.7015  0.0598
13749TIP3   OH262737   6.110   1.506  13.436 -0.0856 -0.8469  0.0239
13749TIP3    H162738   6.095   1.484  13.344  1.8081  0.4156 -0.6412
13749TIP3    H262739   6.093   1.600  13.441 -3.9940 -1.5741  1.8732
13750TIP3   OH262740   4.785   4.850   1.439  0.2546 -0.2389  0.0055
13750TIP3    H162741   4.785   4.756   1.458  0.4259 -0.0800  0.7828
13750TIP3    H262742   4.697   4.867   1.403  0.7395 -0.9780 -1.5783
13751TIP3   OH262743   2.536   1.145   4.599 -0.3626  0.0568 -0.0900
13751TIP3    H162744   2.550   1.075   4.535  2.0635  0.9285 -0.5699
13751TIP3    H262745   2.468   1.200   4.560  0.8415  0.3752 -1.7622
13752TIP3   OH262746   2.263   6.696  15.910 -0.0336  0.0657  0.3809
13752TIP3    H162747   2.196   6.725  15.971 -0.0084  0.4343  0.2340
13752TIP3    H262748   2.270   6.766  15.846  0.2441 -0.1257  0.1953
13753TIP3   OH262749   1.538   2.027   1.090 -0.6494 -0.4386 -0.0430
13753TIP3    H162750   1.591   2.106   1.083 -0.4294 -0.6236 -0.4814
13753TIP3    H262751   1.480   2.043   1.165 -1.1511  0.4522 -0.6153
13754TIP3   OH262752   2.188   3.008   0.231  0.2656 -0.3296  0.2751
13754TIP3    H162753   2.213   3.099   0.247  0.2945  0.1162 -2.1459
13754TIP3    H262754   2.092   3.009   0.233  0.2819 -0.5960  1.9649
13755TIP3   OH262755   1.299   5.651   5.027 -0.7222  0.1893  0.6518
13755TIP3    H162756   1.348   5.575   4.996 -2.0945 -1.2606  1.9373
13755TIP3    H262757   1.353   5.726   5.003  1.4132 -1.2738  0.7756
13756TIP3   OH262758   5.780   0.447   2.881 -0.0376 -0.2893  0.1523
13756TIP3    H162759   5.857   0.436   2.825  0.9878  0.8709  1.2730
13756TIP3    H262760   5.751   0.358   2.901  0.8163 -0.7324 -0.5717
13757TIP3   OH262761   5.710   3.084  14.594  0.6087  0.2825 -0.1410
13757TIP3    H162762   5.711   3.011  14.657  0.7802  1.0960  0.8089
13757TIP3    H262763   5.683   3.160  14.646  1.2892  1.0769 -0.9408
13758TIP3   OH262764   3.754   2.012  16.038  0.2125 -0.2807 -0.8407
13758TIP3    H162765   3.670   1.996  16.078  0.6119 -0.3049 -0.0112
13758TIP3    H262766   3.779   2.099  16.069  0.4274 -0.2091 -1.2038
13759TIP3   OH262767   2.029   1.485  11.302  0.1753 -0.4249 -0.5093
13759TIP3    H162768   2.022   1.522  11.214 -3.3685  0.6202  0.1384
13759TIP3    H262769   1.993   1.396  11.293  0.1109 -0.4324 -0.1794
13760TIP3   OH262770   0.497   6.331  11.661  0.0117  0.0359 -0.4580
13760TIP3    H162771   0.464   6.285  11.583 -3.0825  0.4360  0.5971
13760TIP3    H262772   0.558   6.268  11.700  0.9714 -0.5063 -2.7185
13761TIP3   OH262773   0.078   6.642  15.602 -0.5102  0.2883  1.1791
13761TIP3    H162774   0.075   6.553  15.566 -1.2125  0.6259  0.3762
13761TIP3    H262775   0.046   6.633  15.691 -0.1444 -0.3314  1.2555
13762TIP3   OH262776   6.555   3.108   3.813 -0.3958  0.4155 -0.8269
13762TIP3    H162777   6.540   3.055   3.735  0.2246 -1.5833  0.3810
13762TIP3    H262778   6.650   3.105   3.826 -0.6591 -0.8322  1.0460
13763TIP3   OH262779   4.397   0.817   1.430 -0.0594 -0.1322  0.5222
13763TIP3    H162780   4.444   0.743   1.469  0.8065 -0.5796 -1.3401
13763TIP3    H262781   4.444   0.894   1.461  0.8047 -0.4956  0.1164
13764TIP3   OH262782   5.112   6.047  12.095  0.3872 -0.5194  0.3263
13764TIP3    H162783   5.117   6.007  12.008 -0.4691  0.0945 -0.0083
13764TIP3    H262784   5.018   6.054  12.113  0.5109 -2.9042  2.3426
13765TIP3   OH262785   4.306   5.721  11.479 -0.2833 -0.0439  0.5890
13765TIP3    H162786   4.275   5.793  11.424  1.0438 -0.1805 -0.3480
13765TIP3    H262787   4.401   5.727  11.475 -0.1715 -0.6136  2.1556
13766TIP3   OH262788   3.769   2.719   0.228  0.5082  0.4283 -0.2143
13766TIP3    H162789   3.861   2.735   0.206  1.1020 -1.4951  0.7375
13766TIP3    H262790   3.742   2.651   0.168 -0.3720  1.1343 -0.6232
13767TIP3   OH262791   3.295   1.671   0.963  0.0031 -0.0956  0.0139
13767TIP3    H162792   3.309   1.577   0.970 -0.6782 -0.1204  1.0600
13767TIP3    H262793   3.200   1.682   0.961  0.0414  0.3743 -2.9761
13768TIP3   OH262794   4.840   0.937  12.776  0.1434 -0.3091  0.2284
13768TIP3    H162795   4.770   0.873  12.785 -0.5276  0.3847  0.0247
13768TIP3    H262796   4.856   0.969  12.865 -0.6943  0.4722  0.0973
13769TIP3   OH262797   4.889   1.681  15.395 -0.8379 -0.3346 -0.2987
13769TIP3    H162798   4.936   1.678  15.478 -1.8711 -0.5088  0.2917
13769TIP3    H262799   4.833   1.604  15.395 -0.6652 -0.4767 -1.2791
13770TIP3   OH262800   4.404   2.088  12.048  0.7143  0.1561 -0.6389
13770TIP3    H162801   4.314   2.119  12.059  0.2262 -1.8340  1.3054
13770TIP3    H262802   4.415   2.081  11.953 -1.7485 -1.0741 -0.8879
13771TIP3   OH262803   4.821   2.055   0.714 -0.3943 -0.6028  0.3179
13771TIP3    H162804   4.735   2.081   0.748  0.4247  0.1758  1.9194
13771TIP3    H262805   4.849   2.130   0.661 -1.0951 -1.2446 -0.9585
13772TIP3   OH262806   4.530   0.611  10.882 -0.1828  0.3537 -0.4877
13772TIP3    H162807   4.437   0.593  10.897 -0.5483  0.3919 -2.5684
13772TIP3    H262808   4.566   0.526  10.856  0.0830  0.6279 -1.0049
13773TIP3   OH262809   5.777   3.987  13.882  0.0208 -0.2084 -0.1651
13773TIP3    H162810   5.854   4.002  13.828  0.7574 -2.8722  0.0717
13773TIP3    H262811   5.803   3.918  13.942 -1.1563  1.8647  2.8675
13774TIP3   OH262812   3.619   5.154   4.471 -0.2603 -0.2343  0.2147
13774TIP3    H162813   3.591   5.064   4.488 -0.1635  0.0102  1.6883
13774TIP3    H262814   3.689   5.170   4.534 -2.4726  1.9449  2.2512
13775TIP3   OH262815   6.602   1.436   3.692  0.3883 -0.0540 -0.8166
13775TIP3    H162816   6.660   1.511   3.703 -0.5368  0.6820 -0.8524
13775TIP3    H262817   6.520   1.464   3.732 -0.4425 -0.4632 -2.1851
13776TIP3   OH262818   6.472   1.933  13.166  0.1588  0.6147 -0.0237
13776TIP3    H162819   6.522   1.974  13.096  0.9635 -0.9698 -0.4132
13776TIP3    H262820   6.524   1.856  13.190 -0.6323  0.5793  1.5946
13777TIP3   OH262821   5.003   1.031   6.603 -0.9201 -0.0712 -0.6665
13777TIP3    H162822   5.040   0.996   6.523 -0.2127 -0.3268 -0.2276
13777TIP3    H262823   5.030   1.123   6.604  0.8701 -0.5862  0.3258
13778TIP3   OH262824   0.219   4.496  13.516 -0.2509 -0.0772 -0.1520
13778TIP3    H162825   0.145   4.539  13.559  1.2743  1.2912  1.1529
13778TIP3    H262826   0.246   4.428  13.578  0.5939  0.4910  0.1130
13779TIP3   OH262827   4.528   4.601   4.448  0.8659 -0.2591 -0.5153
13779TIP3    H162828   4.589   4.528   4.458  0.5143 -0.5140 -0.1967
13779TIP3    H262829   4.461   4.585   4.515  1.5502  1.1223  0.5245
13780TIP3   OH262830   3.925   5.359   0.541  0.0826 -0.3744 -0.4011
13780TIP3    H162831   3.984   5.434   0.552  0.2300 -0.6992  1.1677
13780TIP3    H262832   3.896   5.364   0.450  0.4492  1.3327 -0.4392
13781TIP3   OH262833   1.572   0.745  13.942 -0.3278 -0.3877 -0.3637
13781TIP3    H162834   1.485   0.704  13.942 -1.6752  2.2331  2.2228
13781TIP3    H262835   1.606   0.730  14.030  1.3919 -0.4675 -1.0263
13782TIP3   OH262836   2.443   5.890   3.309 -0.2726 -0.3898  0.1458
13782TIP3    H162837   2.351   5.866   3.325  0.4793 -2.9135  0.8637
13782TIP3    H262838   2.471   5.830   3.239  0.5913  0.9395 -0.6550
13783TIP3   OH262839   2.214   6.803  11.304  0.2618 -0.4846  0.6999
13783TIP3    H162840   2.146   6.749  11.344 -2.7940  0.6587 -2.6033
13783TIP3    H262841   2.250   6.748  11.235  0.2325  0.1226  0.1961
13784TIP3   OH262842   0.676   4.045  14.010 -0.1642 -0.8230 -0.0164
13784TIP3    H162843   0.740   4.094  13.957 -0.2056  1.4889  1.9588
13784TIP3    H262844   0.621   4.001  13.946  0.9432  0.3772 -1.8591
13785TIP3   OH262845   2.742   0.294  12.401 -0.5877 -0.1310  0.1275
13785TIP3    H162846   2.667   0.353  12.400 -1.1303 -0.7947 -2.2930
13785TIP3    H262847   2.800   0.329  12.468 -2.0482  1.6871  0.4616
13786TIP3   OH262848   4.754   2.349  15.339 -0.1323 -0.2928  0.4807
13786TIP3    H162849   4.708   2.401  15.405 -0.2966  0.7633 -0.4494
13786TIP3    H262850   4.735   2.393  15.256  1.9167 -0.2841 -0.0108
13787TIP3   OH262851   0.136   6.693   4.127 -0.2009 -0.6133 -0.0795
13787TIP3    H162852   0.097   6.620   4.175  0.2173 -2.6224 -2.7086
13787TIP3    H262853   0.194   6.652   4.063  1.7389  2.1302 -0.1561
13788TIP3   OH262854   1.403   4.028   5.995 -0.4246 -0.2006  0.1725
13788TIP3    H162855   1.414   3.975   5.916 -0.8998  0.4204 -0.3223
13788TIP3    H262856   1.421   3.968   6.067 -1.3215 -1.1312 -0.3614
13789TIP3   OH262857   5.722   2.357   5.519  0.0359  0.2728 -0.1947
13789TIP3    H162858   5.681   2.359   5.432 -1.8524 -0.1637  0.6612
13789TIP3    H262859   5.695   2.440   5.559  1.5133  0.8030 -0.2921
13790TIP3   OH262860   0.739   6.610   3.390 -0.6234 -0.0757  0.6001
13790TIP3    H162861   0.735   6.702   3.415 -1.0355  0.0118  0.2251
13790TIP3    H262862   0.832   6.590   3.385 -0.5293 -0.0223  1.9242
13791TIP3   OH262863   0.929   5.401   0.858 -0.6449  0.0214  0.1008
13791TIP3    H162864   0.963   5.373   0.773 -0.9754 -0.0858  0.0008
13791TIP3    H262865   0.881   5.482   0.839  0.8047  0.9921  0.4822
13792TIP3   OH262866   1.384   5.602  11.639 -0.0094 -0.0686  0.2781
13792TIP3    H162867   1.382   5.687  11.595 -0.8877  0.2575  0.9408
13792TIP3    H262868   1.394   5.539  11.568  0.8282  0.5923 -0.2024
13793TIP3   OH262869   0.376   5.422  13.606 -0.1897  0.3494 -0.0561
13793TIP3    H162870   0.363   5.340  13.560 -0.0700  0.4833 -0.3279
13793TIP3    H262871   0.414   5.396  13.690  0.4668  0.1679 -0.4001
13794TIP3   OH262872   0.468   3.748   5.637 -0.0230  0.1332 -0.3289
13794TIP3    H162873   0.428   3.816   5.691  0.9877  0.9345 -0.5667
13794TIP3    H262874   0.414   3.671   5.651 -0.3632  0.6057  1.0387
13795TIP3   OH262875   1.340   3.917  12.057  0.2828  0.7198  0.4365
13795TIP3    H162876   1.280   3.968  12.112  0.9302 -0.3125  2.1443
13795TIP3    H262877   1.283   3.863  12.003 -0.4268  3.3368 -1.5410
13796TIP3   OH262878   2.118   4.115   6.468  0.4016 -0.1594  0.7174
13796TIP3    H162879   2.102   4.186   6.406 -0.7710 -0.6269  0.4745
13796TIP3    H262880   2.087   4.149   6.552  2.5282  0.6956  1.2013
13797TIP3   OH262881   1.911   1.403  16.564 -0.0389 -0.2256  0.5487
13797TIP3    H162882   1.918   1.323  16.616 -1.3126 -2.1104 -2.0616
13797TIP3    H262883   1.829   1.393  16.515  0.1404  2.3661 -0.3643
13798TIP3   OH262884   0.873   2.292  15.430 -0.1760  0.0578  0.4098
13798TIP3    H162885   0.780   2.306  15.413  0.1028 -0.2915 -1.5029
13798TIP3    H262886   0.916   2.321  15.350  1.3763  0.2538  1.2984
13799TIP3   OH262887   4.993   6.730   5.399 -0.5148  0.2951  0.1249
13799TIP3    H162888   4.936   6.670   5.446 -0.6575 -0.2137 -0.6784
13799TIP3    H262889   5.044   6.674   5.341 -0.1740  0.8824 -0.1482
13800TIP3   OH262890   0.048   3.671   0.470 -0.1046  0.4362 -0.2313
13800TIP3    H162891   0.051   3.575   0.470  0.1420  0.4421 -0.1618
13800TIP3    H262892   0.041   3.694   0.563 -1.7533  0.4493 -0.3429
13801TIP3   OH262893   4.263   2.498   1.743 -0.3533 -0.4860  0.5797
13801TIP3    H162894   4.320   2.549   1.800  0.0674  0.7087 -0.8739
13801TIP3    H262895   4.322   2.468   1.673 -1.7777  2.1043 -1.8195
13802TIP3   OH262896   5.147   5.906   4.629 -0.3445  0.0014  0.3742
13802TIP3    H162897   5.146   5.957   4.548 -0.3253 -0.8840 -0.1863
13802TIP3    H262898   5.107   5.964   4.694 -1.5042  0.2623 -0.5563
13803TIP3   OH262899   1.621   4.973   3.521  0.7067  0.8211 -0.5939
13803TIP3    H162900   1.625   4.981   3.616 -2.1658 -0.0993 -0.3420
13803TIP3    H262901   1.601   5.061   3.490 -0.1819  0.7691 -0.1873
13804TIP3   OH262902   1.872   4.599   1.921  0.6202  0.1650 -0.1737
13804TIP3    H162903   1.852   4.506   1.931 -1.2304  0.8104  2.6385
13804TIP3    H262904   1.840   4.639   2.001  3.7185  2.9000 -0.2102
13805TIP3   OH262905   1.115   3.106  15.644 -0.0225  0.3815 -0.1135
13805TIP3    H162906   1.060   3.184  15.638 -0.7314  0.0911  2.1774
13805TIP3    H262907   1.054   3.033  15.639  0.1159  0.0623  2.4539
13806TIP3   OH262908   3.679   3.400   1.256 -0.1861  0.1950  0.2116
13806TIP3    H162909   3.759   3.394   1.202 -0.8517 -0.1416 -0.7531
13806TIP3    H262910   3.692   3.334   1.324  1.7227  2.2562  1.9215
13807TIP3   OH262911   4.602   1.291   2.511 -0.1678  0.6782  1.2177
13807TIP3    H162912   4.589   1.230   2.584 -0.3295 -0.6637  0.0735
13807TIP3    H262913   4.521   1.287   2.461  0.5409  0.4299  0.0896
13808TIP3   OH262914   6.623   5.622  15.873 -0.0500  0.0549  0.2257
13808TIP3    H162915   6.546   5.571  15.847  0.2411 -0.0199 -0.5085
13808TIP3    H262916   6.619   5.624  15.969 -0.0338 -1.4049  0.2770
13809TIP3   OH262917   4.486   2.841   4.881  0.3393  0.2568  0.0852
13809TIP3    H162918   4.474   2.746   4.882  1.5008  0.0969  1.6080
13809TIP3    H262919   4.453   2.869   4.967 -1.3431  1.4142 -0.9306
13810TIP3   OH262920   2.016   0.933  16.413 -0.3644  0.5201  0.4726
13810TIP3    H162921   1.933   0.909  16.453  0.4636 -2.2163  0.6831
13810TIP3    H262922   2.072   0.958  16.487 -0.5142  0.7730  0.4966
13811TIP3   OH262923   5.651   4.376   4.397 -0.2876  0.3412  0.7472
13811TIP3    H162924   5.616   4.292   4.365  0.4828  0.1796  0.3277
13811TIP3    H262925   5.592   4.442   4.361  0.2844  0.1253 -0.6040
13812TIP3   OH262926   2.159   5.405  13.461 -0.2360 -0.6687  0.3434
13812TIP3    H162927   2.145   5.492  13.499  0.4510 -0.8971  1.1385
13812TIP3    H262928   2.076   5.383  13.418 -1.0539 -0.4414  1.7900
13813TIP3   OH262929   3.898   0.555  13.233 -0.0980  0.2786  0.2525
13813TIP3    H162930   3.950   0.633  13.213 -0.3393  0.2380 -0.5499
13813TIP3    H262931   3.851   0.537  13.152 -2.7069  1.3345  1.4707
13814TIP3   OH262932   4.894   5.334   0.097 -0.0578 -0.2277  0.0859
13814TIP3    H162933   4.970   5.277   0.100  0.7192  0.7813 -0.2388
13814TIP3    H262934   4.822   5.277   0.069  0.3652 -1.3990  1.3178
13815TIP3   OH262935   5.163   0.459   2.588 -0.4251  0.2585 -0.6077
13815TIP3    H162936   5.232   0.404   2.625 -1.6802  0.9647  2.9978
13815TIP3    H262937   5.113   0.401   2.532  1.5273 -0.9035 -1.1825
13816TIP3   OH262938   2.258   2.535   3.144  0.6168 -0.5315  0.1898
13816TIP3    H162939   2.186   2.590   3.112  1.0062 -0.1163  0.0256
13816TIP3    H262940   2.305   2.590   3.206  0.0425 -1.2347  1.2736
13817TIP3   OH262941   6.504   6.246   2.815  0.3500 -0.0750 -0.3239
13817TIP3    H162942   6.476   6.337   2.809 -3.0064 -1.1393 -2.9102
13817TIP3    H262943   6.467   6.215   2.898 -0.3062  0.3569 -0.4553
13818TIP3   OH262944   0.605   0.122   1.479 -0.4707  0.1332  0.4918
13818TIP3    H162945   0.603   0.039   1.431  0.5436  1.5937 -2.1735
13818TIP3    H262946   0.698   0.138   1.495 -0.6809  0.6305  1.2476
13819TIP3   OH262947   3.062   0.265  13.270  0.4105  0.0455 -0.6507
13819TIP3    H162948   3.038   0.346  13.225  2.0774 -0.0925 -1.8534
13819TIP3    H262949   3.156   0.274  13.287  0.0879 -0.5245  1.5687
13820TIP3   OH262950   4.338   4.889  11.796  0.4469  0.0501  0.3206
13820TIP3    H162951   4.416   4.888  11.740  0.5493  1.2575  0.4287
13820TIP3    H262952   4.352   4.817  11.857  1.7869  0.6209  0.7202
13821TIP3   OH262953   4.765   3.920  14.621 -0.2807  0.1505  0.2631
13821TIP3    H162954   4.815   3.952  14.696 -0.8532  1.5024  0.0757
13821TIP3    H262955   4.828   3.922  14.548  0.4753 -1.8240  0.8269
13822TIP3   OH262956   6.767   6.679   2.622  0.7481  0.0425 -0.5312
13822TIP3    H162957   6.675   6.654   2.614  1.2573 -2.1477  0.2097
13822TIP3    H262958   6.773   6.717   2.709  0.9001 -1.4519  0.1198
13823TIP3   OH262959   3.286   2.036  15.784 -0.4116  0.2877  0.7542
13823TIP3    H162960   3.377   2.034  15.753 -0.5804  0.9789  0.1959
13823TIP3    H262961   3.235   2.066  15.709 -1.1263 -0.2319  1.0239
13824TIP3   OH262962   3.790   1.666  16.637 -0.6975 -0.3447  0.0750
13824TIP3    H162963   3.694   1.677  16.639 -0.4912  1.9170 -0.7254
13824TIP3    H262964   3.814   1.647  16.727 -1.6348  1.9204  0.8426
13825TIP3   OH262965   1.599   0.200   4.852  0.1264 -0.4462 -0.2755
13825TIP3    H162966   1.656   0.223   4.779  1.0646 -0.4008  0.4659
13825TIP3    H262967   1.637   0.244   4.928 -0.4355 -1.0614  0.3733
13826TIP3   OH262968   3.436   2.628   1.143 -0.1175  0.2143 -0.5376
13826TIP3    H162969   3.445   2.690   1.216  0.0695  0.7284 -0.9994
13826TIP3    H262970   3.368   2.666   1.088 -0.2934 -0.2026 -0.6076
13827TIP3   OH262971   3.546   4.204  15.290  0.1151  0.3535  0.0408
13827TIP3    H162972   3.556   4.131  15.229  0.0007 -0.0319  0.4802
13827TIP3    H262973   3.461   4.242  15.269 -0.1135 -0.0460  0.2487
13828TIP3   OH262974   3.322   0.544  11.235 -0.2683  0.3276  0.2672
13828TIP3    H162975   3.404   0.509  11.200  0.6653  0.8427  1.9148
13828TIP3    H262976   3.258   0.475  11.219  0.3716  0.0941 -1.4338
13829TIP3   OH262977   4.192   6.804  14.203 -0.3061  0.5675  0.2880
13829TIP3    H162978   4.180   6.715  14.172 -1.7353  0.3341  1.4691
13829TIP3    H262979   4.149   6.859  14.137 -1.2902  0.2284  0.6384
13830TIP3   OH262980   4.210   2.867   5.671  0.2150  0.3943 -0.1661
13830TIP3    H162981   4.240   2.776   5.682  0.1761  0.4273  0.2300
13830TIP3    H262982   4.264   2.917   5.733  1.7079  0.9472 -1.8805
13831TIP3   OH262983   2.600   6.515   5.346 -0.3048 -0.4729  0.1522
13831TIP3    H162984   2.576   6.537   5.256 -0.9402 -2.1021 -0.0915
13831TIP3    H262985   2.516   6.506   5.392  0.0099  0.1189  0.8497
13832TIP3   OH262986   1.444   5.311  14.951 -0.6255 -0.0529  0.2027
13832TIP3    H162987   1.427   5.356  15.033 -0.5260  1.6374 -0.6808
13832TIP3    H262988   1.380   5.240  14.948  0.8031 -1.5010  2.7510
13833TIP3   OH262989   0.808   2.684  16.929 -0.1347  1.2547 -0.1778
13833TIP3    H162990   0.763   2.743  16.989 -0.4503 -0.1372  0.9812
13833TIP3    H262991   0.863   2.630  16.986  0.9256  1.0998 -1.3214
13834TIP3   OH262992   3.852   2.293   5.642 -0.0994  0.1810 -0.2813
13834TIP3    H162993   3.806   2.226   5.692  1.0346 -2.0635 -2.1593
13834TIP3    H262994   3.783   2.337   5.592 -0.9387  0.9548  1.4933
13835TIP3   OH262995   3.729   4.414  12.971  0.7662 -0.0991 -0.0780
13835TIP3    H162996   3.780   4.448  12.897  1.0064 -2.9852 -1.2903
13835TIP3    H262997   3.657   4.477  12.981  1.8292  1.3878 -1.4676
13836TIP3   OH262998   1.874   3.693   5.861 -0.4202 -0.3207  0.7195
13836TIP3    H162999   1.955   3.714   5.813  0.4575  0.6823  2.5849
13836TIP3    H263000   1.847   3.609   5.824  0.7307 -0.0392 -0.8759
13837TIP3   OH263001   3.350   5.759  16.313 -1.1849  0.2127 -0.0427
13837TIP3    H163002   3.337   5.827  16.248  0.0899 -1.6034 -2.2678
13837TIP3    H263003   3.436   5.779  16.351 -0.7344 -0.2335 -0.8123
13838TIP3   OH263004   6.458   0.743  14.260  0.1078  0.2048  0.1313
13838TIP3    H163005   6.477   0.695  14.341 -0.5385  0.4532  0.4408
13838TIP3    H263006   6.418   0.679  14.202  1.3601 -0.1813 -0.3139
13839TIP3   OH263007   1.605   6.548   5.721 -0.0733 -0.0775  0.3626
13839TIP3    H163008   1.688   6.575   5.759 -0.1989  0.7359  0.0792
13839TIP3    H263009   1.591   6.610   5.649  1.6884 -3.4143 -3.0154
13840TIP3   OH263010   4.022   6.519   1.330 -0.2013 -0.2543  0.1058
13840TIP3    H163011   4.081   6.574   1.381 -1.4738 -1.3906  2.9465
13840TIP3    H263012   4.045   6.429   1.356 -1.5657 -0.8117 -0.5271
13841TIP3   OH263013   2.059   5.001   1.249 -0.0254  0.1698 -0.1946
13841TIP3    H163014   2.105   4.940   1.192  1.3542  0.5707  0.4374
13841TIP3    H263015   2.002   4.946   1.303  0.2478 -0.4272 -0.5133
13842TIP3   OH263016   5.127   0.718   2.041 -0.3363 -0.5840 -0.7973
13842TIP3    H163017   5.159   0.733   2.130  0.9019 -1.9702 -0.9821
13842TIP3    H263018   5.178   0.643   2.010 -0.9217 -0.2611 -2.5918
13843TIP3   OH263019   5.277   6.338  17.049 -0.7280  0.5221 -0.1506
13843TIP3    H163020   5.233   6.349  17.134 -0.3185  0.5741  0.0520
13843TIP3    H263021   5.228   6.395  16.990 -1.8411 -0.5167 -0.2509
13844TIP3   OH263022   2.971   5.197   3.831  0.6265  0.0368 -0.3713
13844TIP3    H163023   2.892   5.249   3.818  0.4155 -0.3368 -0.5666
13844TIP3    H263024   2.980   5.191   3.926  0.4505  0.1194 -0.3482
13845TIP3   OH263025   5.159   3.164   0.757 -0.4236  0.2495 -0.5138
13845TIP3    H163026   5.166   3.073   0.786  1.0197 -0.2841 -2.4367
13845TIP3    H263027   5.098   3.204   0.819  0.8012 -1.3920  1.8481
13846TIP3   OH263028   6.318   2.254   4.195 -0.3417  0.1620  0.2817
13846TIP3    H163029   6.227   2.229   4.179 -0.6349  0.4071  1.5264
13846TIP3    H263030   6.322   2.346   4.170 -0.1727 -0.1299 -0.7799
13847TIP3   OH263031   0.182   4.928   0.518 -0.4013  0.1947  0.2570
13847TIP3    H163032   0.218   4.840   0.511 -1.3516 -0.1659 -0.1362
13847TIP3    H263033   0.217   4.975   0.442 -0.7812 -0.1675 -0.1446
13848TIP3   OH263034   2.270   5.770  15.624 -0.1525  0.1071  0.5222
13848TIP3    H163035   2.294   5.798  15.712  1.9031 -1.7775  0.6153
13848TIP3    H263036   2.281   5.675  15.625  0.2405  0.0906 -1.8520
13849TIP3   OH263037   6.654   0.665   3.225  0.2077  0.2550  0.2154
13849TIP3    H163038   6.702   0.651   3.143  0.3623  0.6469  0.2417
13849TIP3    H263039   6.637   0.576   3.257  0.0750  0.0983 -0.2830
13850TIP3   OH263040   3.898   2.753   3.078 -0.5108  0.2722 -0.0404
13850TIP3    H163041   3.900   2.764   3.173 -2.3602 -1.9519  0.3093
13850TIP3    H263042   3.982   2.711   3.057 -1.3324 -2.0353  1.0625
13851TIP3   OH263043   4.527   0.008   2.386 -0.0053 -0.4419 -0.4381
13851TIP3    H163044   4.539   0.047   2.299 -0.2778  1.4717  0.3700
13851TIP3    H263045   4.436   0.025   2.408  0.1355 -0.6830  0.3435
13852TIP3   OH263046   3.426   6.015  12.786  0.2051  0.3145 -0.3231
13852TIP3    H163047   3.475   6.096  12.804 -2.1083  1.2848  1.8278
13852TIP3    H263048   3.371   6.003  12.862 -2.1430 -1.3532 -2.2158
13853TIP3   OH263049   2.547   0.082  13.452 -0.1200 -0.0396  0.3817
13853TIP3    H163050   2.622   0.023  13.446 -0.9523 -1.1396  0.6740
13853TIP3    H263051   2.572   0.158  13.399  1.8888  0.3723  1.8540
13854TIP3   OH263052   5.928   6.810  17.284 -0.3606 -1.0300 -0.2143
13854TIP3    H163053   6.002   6.870  17.280 -0.2675 -1.2297 -2.7687
13854TIP3    H263054   5.862   6.856  17.335  0.2949  0.5734 -0.7730
13855TIP3   OH263055   0.824   4.857  14.651  0.0822 -0.1168 -0.2871
13855TIP3    H163056   0.737   4.845  14.612 -0.4025  3.0933 -0.2844
13855TIP3    H263057   0.841   4.951  14.644  2.4516 -0.3216  2.0878
13856TIP3   OH263058   0.081   4.745  11.206  0.4476 -0.1122  0.8559
13856TIP3    H163059   0.091   4.676  11.271  2.2337  0.7212  1.4987
13856TIP3    H263060   0.006   4.796  11.236  0.5838 -0.3833  1.6556
13857TIP3   OH263061   4.515   3.743  15.171  0.3559  0.2064  0.6337
13857TIP3    H163062   4.473   3.658  15.179 -0.4533  0.5650  0.2410
13857TIP3    H263063   4.608   3.722  15.154  0.2142 -0.5865  0.8169
13858TIP3   OH263064   2.029   6.796   6.012 -0.0801 -0.0665 -0.3591
13858TIP3    H163065   1.948   6.840   5.985 -0.4551 -1.0007 -0.7748
13858TIP3    H263066   2.028   6.802   6.108  1.2072  3.1721 -0.4720
13859TIP3   OH263067   0.440   3.530   1.471  0.1256  0.8593 -0.1496
13859TIP3    H163068   0.411   3.441   1.493 -1.2358  0.9921 -1.3257
13859TIP3    H263069   0.472   3.566   1.554 -0.9407 -0.1276  0.7093
13860TIP3   OH263070   1.659   2.380  16.676 -1.1207  0.1652  0.2301
13860TIP3    H163071   1.629   2.359  16.588 -0.0750 -0.8852  0.1204
13860TIP3    H263072   1.750   2.407  16.665 -1.5320  1.8394  0.7587
13861TIP3   OH263073   3.053   4.951  12.651  0.4268  0.2183  0.1380
13861TIP3    H163074   2.977   4.921  12.601 -0.1662  1.1174  0.4904
13861TIP3    H263075   3.098   4.870  12.677 -0.6211 -0.3331  0.2569
13862TIP3   OH263076   4.420   4.138   0.516  0.1143  0.3500 -0.3386
13862TIP3    H163077   4.347   4.089   0.553 -1.0691  0.3551 -2.6369
13862TIP3    H263078   4.484   4.071   0.491 -0.6257  0.1062 -1.5925
13863TIP3   OH263079   6.093   4.460  11.993 -0.3246 -0.2316 -0.4225
13863TIP3    H163080   6.148   4.526  11.952 -2.0155  0.3920 -1.7402
13863TIP3    H263081   6.005   4.477  11.959 -1.1294 -1.9522  0.7074
13864TIP3   OH263082   4.552   1.904   3.876 -0.1198 -0.6463  0.4162
13864TIP3    H163083   4.537   1.822   3.924  0.2447 -0.8679  0.1567
13864TIP3    H263084   4.473   1.915   3.823  0.0693 -1.1335  0.0237
13865TIP3   OH263085   5.086   2.769  13.846  0.3037  1.0217  0.2765
13865TIP3    H163086   5.071   2.686  13.890  1.2172  1.0173  0.5896
13865TIP3    H263087   5.042   2.759  13.761  0.5314  0.1754  0.2548
13866TIP3   OH263088   6.524   3.077   1.308  0.1023  0.3747 -0.5545
13866TIP3    H163089   6.525   3.170   1.331  0.6434  1.0250 -3.1045
13866TIP3    H263090   6.436   3.061   1.273 -0.4956 -0.4548  1.2486
13867TIP3   OH263091   4.744   1.856  13.062  0.3449  0.2987 -0.4170
13867TIP3    H163092   4.705   1.777  13.100  0.0606  0.5785 -0.1178
13867TIP3    H263093   4.834   1.831  13.041  0.9262  0.5194  1.7001
13868TIP3   OH263094   3.277   5.235  16.673 -0.6239 -0.1860 -0.0018
13868TIP3    H163095   3.248   5.287  16.748  0.6108 -0.1535  0.4782
13868TIP3    H263096   3.207   5.172  16.658 -1.1656  0.2236  0.7742
13869TIP3   OH263097   4.216   0.486   1.160 -0.3632 -0.0535  0.6828
13869TIP3    H163098   4.172   0.562   1.200 -1.6611 -1.0474  1.1765
13869TIP3    H263099   4.268   0.524   1.089 -3.7267  0.9988 -1.3942
13870TIP3   OH263100   4.741   3.332  10.612  0.2135  0.4148 -0.0073
13870TIP3    H163101   4.739   3.335  10.707 -1.8135  2.0625 -0.0476
13870TIP3    H263102   4.828   3.365  10.589 -0.1027  2.1921  1.2466
13871TIP3   OH263103   5.433   3.015   1.286  0.1241 -0.4461  0.2441
13871TIP3    H163104   5.383   2.984   1.211 -0.4354 -0.2701  0.5361
13871TIP3    H263105   5.524   2.993   1.266  0.1086  0.5774 -0.9627
13872TIP3   OH263106   2.923   0.367   1.518  0.1892  0.2862 -0.0056
13872TIP3    H163107   2.851   0.413   1.475 -1.7598 -0.7794  2.0127
13872TIP3    H263108   2.954   0.306   1.452 -1.2728  0.2316 -0.6728
13873TIP3   OH263109   6.193   1.637   6.458  0.4660  0.3362  0.1564
13873TIP3    H163110   6.247   1.715   6.446 -0.3716  0.9126  0.1467
13873TIP3    H263111   6.236   1.570   6.404  0.2717  1.2172 -1.1092
13874TIP3   OH263112   5.532   1.538   0.530 -0.3034 -0.1427 -0.4151
13874TIP3    H163113   5.610   1.566   0.579 -1.1919  1.9725 -0.1594
13874TIP3    H263114   5.498   1.463   0.579  0.4896  0.1154  0.5518
13875TIP3   OH263115   5.640   2.437   0.444 -0.2270  0.0212  0.4321
13875TIP3    H163116   5.583   2.367   0.413 -2.4405  1.3930  1.3344
13875TIP3    H263117   5.727   2.398   0.445 -1.1357 -2.1215 -0.9342
13876TIP3   OH263118   0.240   4.638  16.655 -0.5009  0.3860 -0.2386
13876TIP3    H163119   0.283   4.696  16.718  1.1099 -0.4651 -0.5102
13876TIP3    H263120   0.266   4.673  16.570  0.1799 -0.4925 -0.4033
13877TIP3   OH263121   4.684   3.162  14.058  0.0719  0.1957 -0.4289
13877TIP3    H163122   4.767   3.177  14.104 -1.1688  0.5846  1.7071
13877TIP3    H263123   4.680   3.067  14.047  0.3423  0.0936  0.3207
13878TIP3   OH263124   3.328   6.792   4.750 -0.2299 -0.6083 -0.3044
13878TIP3    H163125   3.338   6.849   4.674  0.6486  0.0682  0.3086
13878TIP3    H263126   3.270   6.841   4.809  0.8572 -0.1589  0.3997
13879TIP3   OH263127   4.050   3.720  13.044  0.6479 -0.0932 -0.0290
13879TIP3    H163128   4.045   3.740  13.138  0.5274 -0.2606  0.0009
13879TIP3    H263129   4.120   3.656  13.037  1.4441  0.7762 -0.1955
13880TIP3   OH263130   2.613   6.758   1.222 -0.6101  0.5237 -0.1565
13880TIP3    H163131   2.629   6.787   1.311  0.7695 -1.1976  0.1586
13880TIP3    H263132   2.560   6.679   1.231 -0.1315  0.1187 -0.8369
13881TIP3   OH263133   5.558   1.190   1.782  0.0556  0.2439  0.6460
13881TIP3    H163134   5.650   1.212   1.763  0.1998 -0.3292  0.6463
13881TIP3    H263135   5.514   1.197   1.697  0.6790 -2.2186  0.0768
13882TIP3   OH263136   4.613   3.890   2.476 -0.0518 -0.1632  0.0766
13882TIP3    H163137   4.688   3.850   2.432  2.3628  2.9195  1.2067
13882TIP3    H263138   4.579   3.953   2.413  1.6598  2.2387  1.4978
13883TIP3   OH263139   3.720   3.106  14.313 -0.1271  0.0408 -0.1768
13883TIP3    H163140   3.729   3.124  14.219  0.5423 -0.8073 -0.2750
13883TIP3    H263141   3.700   3.013  14.318  1.2847 -0.2304  0.5986
13884TIP3   OH263142   5.952   5.837   3.737  0.1381 -0.0439 -0.2406
13884TIP3    H163143   5.956   5.749   3.776  1.6716  0.6814  1.3373
13884TIP3    H263144   6.013   5.832   3.663  1.4324  0.1043  0.7866
13885TIP3   OH263145   1.452   6.315   5.638  0.5619 -0.7201  0.0431
13885TIP3    H163146   1.515   6.306   5.710  0.6544 -1.7571 -0.1715
13885TIP3    H263147   1.377   6.359   5.677  0.6856 -1.1218  0.7344
13886TIP3   OH263148   2.055   6.402  16.235 -0.1525 -0.0619 -0.0138
13886TIP3    H163149   2.001   6.448  16.171 -1.1669  0.6878  1.3573
13886TIP3    H263150   2.144   6.436  16.221 -0.5165  0.7013 -0.4636
13887TIP3   OH263151   5.586   5.637  16.454 -0.3641  0.2837 -0.4718
13887TIP3    H163152   5.629   5.551  16.455  0.6557  0.7935  0.2360
13887TIP3    H263153   5.632   5.687  16.388 -0.9792  0.2840 -0.9049
13888TIP3   OH263154   3.907   5.758  14.434  0.0611  0.5785 -0.4426
13888TIP3    H163155   3.876   5.681  14.386 -1.6911 -0.0480  1.6179
13888TIP3    H263156   3.947   5.722  14.513 -1.5893  1.7917  0.9854
13889TIP3   OH263157   4.059   0.095   2.187 -0.3713 -0.5507 -0.0356
13889TIP3    H163158   4.004   0.114   2.263  1.0435 -0.4750  0.9780
13889TIP3    H263159   4.147   0.087   2.222  0.2149 -1.1047 -1.5918
13890TIP3   OH263160   1.391   4.487   1.090 -0.1329 -0.1135  0.7680
13890TIP3    H163161   1.458   4.530   1.035 -0.6591  0.1310  0.3118
13890TIP3    H263162   1.385   4.542   1.168  0.8760 -0.6586  1.2376
13891TIP3   OH263163   5.486   0.303   2.700  0.7665 -0.1136  0.1514
13891TIP3    H163164   5.450   0.215   2.709 -1.1472  0.6892  0.4426
13891TIP3    H263165   5.556   0.293   2.634 -0.1896 -1.6210 -0.6662
13892TIP3   OH263166   3.728   4.256  14.898 -0.3024 -0.5172 -0.5198
13892TIP3    H163167   3.735   4.207  14.816  3.3651  1.2066 -1.3332
13892TIP3    H263168   3.716   4.347  14.871  3.0723  0.3755  0.7203
13893TIP3   OH263169   4.052   4.507   0.392 -0.1570  0.5843  0.2089
13893TIP3    H163170   4.101   4.483   0.471 -2.8484 -0.9162  1.4886
13893TIP3    H263171   4.026   4.598   0.407  0.6060  0.7754  0.3838
13894TIP3   OH263172   5.912   5.443  16.669 -0.2605  0.6353  0.0066
13894TIP3    H163173   5.954   5.399  16.743  0.3328 -0.1645 -0.8075
13894TIP3    H263174   5.843   5.496  16.710  1.4005  1.8433  1.3464
13895TIP3   OH263175   0.139   5.306  12.309 -0.5698  0.3357 -0.7457
13895TIP3    H163176   0.059   5.343  12.272 -0.7524 -0.2426 -0.9269
13895TIP3    H263177   0.185   5.268  12.235  1.1515  2.9321 -1.1028
13896TIP3   OH263178   1.102   1.576   2.305 -0.2720 -0.4759  0.1834
13896TIP3    H163179   1.151   1.548   2.227 -2.0002 -0.7170 -0.8378
13896TIP3    H263180   1.012   1.583   2.275 -0.7589  0.6867  1.8682
13897TIP3   OH263181   0.512   6.165  15.655  0.6976 -0.7505 -0.2732
13897TIP3    H163182   0.573   6.160  15.581  1.1922 -2.3964  0.2211
13897TIP3    H263183   0.443   6.102  15.633 -0.4581  0.5789 -0.4885
13898TIP3   OH263184   3.889   1.917  16.621 -0.0088  0.5559  0.0204
13898TIP3    H163185   3.975   1.940  16.586 -0.8017  0.7988 -1.7821
13898TIP3    H263186   3.880   1.823  16.605 -1.4360  1.1403 -2.8034
13899TIP3   OH263187   4.449   4.676   1.810 -0.1250  0.1428  0.5346
13899TIP3    H163188   4.364   4.698   1.848  0.5650 -0.2295  2.3577
13899TIP3    H263189   4.445   4.582   1.794 -0.5656  0.3705 -0.7312
13900TIP3   OH263190   0.116   2.640  17.059  0.0139 -0.4309  0.1332
13900TIP3    H163191   0.119   2.626  16.964 -1.6320 -0.7906  0.1227
13900TIP3    H263192   0.129   2.735  17.069  2.2969 -0.6695 -0.3023
13901TIP3   OH263193   6.619   3.179   2.896  0.5825 -0.5595 -0.0121
13901TIP3    H163194   6.571   3.238   2.955 -0.3208 -0.0052 -1.2915
13901TIP3    H263195   6.625   3.227   2.814  1.7069 -1.3998 -0.4239
13902TIP3   OH263196   2.441   1.434  11.812  0.5005  0.6756  0.1215
13902TIP3    H163197   2.395   1.402  11.735  1.1105  0.5692 -0.2080
13902TIP3    H263198   2.429   1.529  11.810  1.8374  0.8427 -0.9975
13903TIP3   OH263199   4.602   6.588   0.966 -0.3179  0.3292  0.5839
13903TIP3    H163200   4.652   6.612   1.044  0.0552  1.0350  0.1304
13903TIP3    H263201   4.530   6.651   0.962 -0.4306  0.1933  0.4443
13904TIP3   OH263202   2.207   0.023  14.128  0.3861  0.5920 -0.1700
13904TIP3    H163203   2.196   0.096  14.066 -2.4381  0.1505 -0.2468
13904TIP3    H263204   2.127   0.024  14.181  0.0457 -2.7626 -0.5144
13905TIP3   OH263205   4.191   5.018   4.186 -0.2543  0.3092 -0.1674
13905TIP3    H163206   4.235   4.951   4.239 -0.8672  0.2749  0.3085
13905TIP3    H263207   4.259   5.081   4.164  0.1466 -0.0296  0.1028
13906TIP3   OH263208   0.041   3.404  15.355  0.3323 -0.2961  0.3637
13906TIP3    H163209  -0.009   3.403  15.436  0.7062  2.0195  0.6692
13906TIP3    H263210   0.133   3.403  15.382  0.4775 -1.6081 -0.1140
13907TIP3   OH263211   1.520   0.371  10.992 -0.2838 -0.1339 -0.3624
13907TIP3    H163212   1.537   0.465  11.003 -0.6098 -0.4000  3.1094
13907TIP3    H263213   1.606   0.333  10.973 -0.0584  0.7881 -1.2272
13908TIP3   OH263214   3.995   0.247   0.757  0.0283  0.8115  0.2882
13908TIP3    H163215   4.070   0.206   0.799 -0.2949 -0.1040 -0.0146
13908TIP3    H263216   4.028   0.331   0.726  0.7139  0.7569  0.8559
13909TIP3   OH263217   3.759   6.583  12.535  0.2280 -0.2444  0.1940
13909TIP3    H163218   3.849   6.552  12.549  0.5054  0.5323  0.1318
13909TIP3    H263219   3.713   6.560  12.616  1.4686  2.9327  1.9053
13910TIP3   OH263220   6.572   4.757  14.785  0.0699  0.7123  0.2565
13910TIP3    H163221   6.579   4.740  14.879 -0.4195  0.5409  0.2657
13910TIP3    H263222   6.615   4.682  14.744  0.4949  0.9056  0.3487
13911TIP3   OH263223   4.028   4.036   5.115  0.1305 -0.5376  0.7526
13911TIP3    H163224   3.933   4.026   5.117  0.0141  0.2595 -0.1140
13911TIP3    H263225   4.061   3.962   5.165 -0.9722 -0.4289  1.6660
13912TIP3   OH263226   1.074   6.179   5.211  0.2340  0.2114 -0.3056
13912TIP3    H163227   1.100   6.087   5.213  1.2323  0.4844 -0.4249
13912TIP3    H263228   1.155   6.228   5.227 -0.2551  1.0733 -0.3986
13913TIP3   OH263229   6.716   3.971   4.703  0.5627  0.5529 -0.0220
13913TIP3    H163230   6.795   3.931   4.668  1.1739  0.8654  0.9905
13913TIP3    H263231   6.674   3.901   4.754 -0.2561  0.1383 -1.2484
13914TIP3   OH263232   5.828   3.358   5.492 -0.0067 -0.2161 -0.4770
13914TIP3    H163233   5.813   3.263   5.491 -0.0016 -0.2168 -1.3828
13914TIP3    H263234   5.846   3.379   5.583  0.3475 -1.1510 -0.3266
13915TIP3   OH263235   0.012   2.389  15.863  0.3794  0.4842 -0.1841
13915TIP3    H163236   0.002   2.297  15.840 -0.1965  0.7999 -1.2352
13915TIP3    H263237   0.070   2.425  15.796  1.0434  0.7676  0.5330
13916TIP3   OH263238   2.740   2.857  10.816 -0.2451  0.2741  0.4733
13916TIP3    H163239   2.668   2.888  10.763  2.5055  2.2383 -2.2917
13916TIP3    H263240   2.758   2.929  10.877  0.8625  0.7869 -0.4371
13917TIP3   OH263241   0.620   6.591  11.700 -0.0923  0.3200  0.5347
13917TIP3    H163242   0.625   6.497  11.683  0.6568  0.4606 -0.0310
13917TIP3    H263243   0.566   6.598  11.779 -0.9563 -0.5218  0.0244
13918TIP3   OH263244   2.191   5.140   2.055 -0.1101  0.4716  0.2294
13918TIP3    H163245   2.231   5.138   1.968  1.7465 -0.5676  1.0727
13918TIP3    H263246   2.156   5.051   2.066  2.3743 -0.3432  1.7498
13919TIP3   OH263247   0.364   0.965  15.920  0.1320  0.1443  0.2946
13919TIP3    H163248   0.377   0.977  15.825 -1.2722  0.3088  0.1175
13919TIP3    H263249   0.447   0.992  15.958  1.1645 -1.1309 -0.9848
13920TIP3   OH263250   2.169   6.242  16.794 -0.4281  0.1871  0.1079
13920TIP3    H163251   2.159   6.151  16.768 -0.6092 -0.4707  2.3947
13920TIP3    H263252   2.156   6.242  16.889  1.8793  2.2346  0.4960
13921TIP3   OH263253   2.017   0.564  16.833  0.1198  0.1799  0.0096
13921TIP3    H163254   2.004   0.613  16.914  1.2358  0.7532 -0.1533
13921TIP3    H263255   2.111   0.567  16.817 -0.2699  1.8013 -2.3519
13922TIP3   OH263256   6.407   0.886   4.520 -0.1955 -0.1925  0.4242
13922TIP3    H163257   6.325   0.848   4.487  0.2889 -0.0584 -0.9268
13922TIP3    H263258   6.476   0.842   4.471  0.5575 -0.2287  1.4909
13923TIP3   OH263259   0.273   4.837   1.489  0.3018  0.7966 -0.0115
13923TIP3    H163260   0.325   4.765   1.526  1.8645  1.8588 -0.0646
13923TIP3    H263261   0.264   4.815   1.397 -0.2495  0.0703  0.2151
13924TIP3   OH263262   1.833   4.891   1.374 -0.1852  0.6572  0.8560
13924TIP3    H163263   1.829   4.804   1.414 -0.3241  1.6369  3.0269
13924TIP3    H263264   1.817   4.951   1.446  3.4690  2.6584  0.1033
13925TIP3   OH263265   5.099   6.122  16.349  0.1332 -0.0485 -0.0866
13925TIP3    H163266   5.116   6.193  16.412 -1.7096  1.6063 -1.3955
13925TIP3    H263267   5.132   6.044  16.393  1.0113  1.4049  1.9700
13926TIP3   OH263268   1.699   0.247  14.999  0.3233 -0.7300 -0.3188
13926TIP3    H163269   1.706   0.167  15.052  0.1835 -1.2583 -1.0919
13926TIP3    H263270   1.789   0.273  14.982  0.3730 -0.1834  0.7317
13927TIP3   OH263271   0.103   1.980  14.653 -0.6752  0.8214  0.3827
13927TIP3    H163272   0.181   1.993  14.598 -1.5548 -0.2391 -1.1603
13927TIP3    H263273   0.134   1.995  14.742  1.1345  1.1094 -0.2701
13928TIP3   OH263274   2.580   5.494  13.681  0.2480  0.0630 -0.0532
13928TIP3    H163275   2.667   5.491  13.721  0.7606  1.0335 -1.0783
13928TIP3    H263276   2.524   5.446  13.742  1.6999 -1.4697  0.0980
13929TIP3   OH263277   5.164   5.954   2.174  0.1209 -0.4725 -0.0026
13929TIP3    H163278   5.076   5.950   2.135  0.3725  0.3708 -0.6579
13929TIP3    H263279   5.212   6.016   2.120  0.6273  0.3165  1.3420
13930TIP3   OH263280   5.407   2.574   4.784  0.5346  0.0482  0.7397
13930TIP3    H163281   5.325   2.526   4.784  0.4902  0.0583 -1.2517
13930TIP3    H263282   5.470   2.514   4.825 -0.1672 -0.5033  1.0260
13931TIP3   OH263283   2.500   4.939  16.379  0.0650  0.6654 -0.5074
13931TIP3    H163284   2.506   5.034  16.368  0.2235  0.6858 -0.2527
13931TIP3    H263285   2.418   4.915  16.335 -0.6384  1.0953  0.5506
13932TIP3   OH263286   0.590   2.185  15.447 -0.1919  0.1547 -0.3805
13932TIP3    H163287   0.634   2.116  15.397  0.1747  0.5132 -0.5570
13932TIP3    H263288   0.563   2.143  15.528 -0.4228 -0.3274 -0.7077
13933TIP3   OH263289   2.365   3.816   4.796  0.1333 -0.0629  0.1416
13933TIP3    H163290   2.411   3.736   4.770 -0.5874  0.4737 -2.9288
13933TIP3    H263291   2.320   3.793   4.877  2.4137 -1.8337  0.9645
13934TIP3   OH263292   2.721   4.857   6.076 -0.1895 -0.3708  0.6509
13934TIP3    H163293   2.658   4.912   6.123 -1.7472 -0.8338 -0.8107
13934TIP3    H263294   2.759   4.801   6.144 -1.5841 -0.2803  1.5399
13935TIP3   OH263295   6.719   4.925   4.822 -0.1297  0.4879  0.0696
13935TIP3    H163296   6.761   4.855   4.771 -2.5582 -2.2385  1.6329
13935TIP3    H263297   6.792   4.970   4.865  1.5665 -0.6454 -1.5287
13936TIP3   OH263298   4.138   4.570   4.464 -0.6429 -0.4095  0.2086
13936TIP3    H163299   4.110   4.544   4.376  2.4882 -0.7137 -0.7490
13936TIP3    H263300   4.159   4.488   4.508 -1.9600 -0.2397  1.2017
13937TIP3   OH263301   4.603   0.562  14.414 -0.1849  0.0016  0.2430
13937TIP3    H163302   4.616   0.577  14.320 -2.1539  0.5041  0.0214
13937TIP3    H263303   4.542   0.489  14.418 -1.9280  1.4407  1.0537
13938TIP3   OH263304   6.460   4.264  12.667 -0.3142 -0.0791 -0.6654
13938TIP3    H163305   6.392   4.328  12.690  0.5482 -0.0753  2.1192
13938TIP3    H263306   6.528   4.315  12.625 -0.4782  0.5100 -0.2176
13939TIP3   OH263307   3.296   2.239  11.704  0.1996 -0.0666 -0.2522
13939TIP3    H163308   3.365   2.209  11.644  0.8463 -1.6955  1.2810
13939TIP3    H263309   3.225   2.176  11.692 -0.6239  1.0058 -1.0613
13940TIP3   OH263310   5.953   3.858   4.033  0.2975  0.3730  1.4971
13940TIP3    H163311   6.006   3.806   3.973  0.1990  2.1398 -0.1770
13940TIP3    H263312   5.916   3.794   4.094  0.7454 -1.4170 -0.0533
13941TIP3   OH263313   4.475   1.479  16.298  0.3628 -0.3974 -0.5859
13941TIP3    H163314   4.408   1.528  16.347  0.5480 -2.0271  1.4112
13941TIP3    H263315   4.545   1.542  16.283 -0.6767  0.7458 -0.7497
13942TIP3   OH263316   1.018   0.640   4.085 -0.4121  0.3331  0.1615
13942TIP3    H163317   0.970   0.570   4.041  1.9677 -0.1921 -1.6964
13942TIP3    H263318   0.977   0.721   4.054 -0.9213 -0.1305 -0.3777
13943TIP3   OH263319   4.904   0.913  15.774 -0.5696  0.7902  0.8882
13943TIP3    H163320   4.965   0.900  15.701 -1.3971 -0.2956  0.3896
13943TIP3    H263321   4.948   0.872  15.849 -0.7675 -0.1716  0.4873
13944TIP3   OH263322   4.374   0.172  14.281  0.0109 -0.8253  0.5033
13944TIP3    H163323   4.450   0.117  14.263  0.2110  0.4549 -2.8246
13944TIP3    H263324   4.300   0.121  14.249 -0.2523 -0.8262  1.0995
13945TIP3   OH263325   1.883   5.958   1.160 -0.2625 -0.3201 -0.6395
13945TIP3    H163326   1.796   5.937   1.195 -0.5537  1.8326 -0.0091
13945TIP3    H263327   1.940   5.890   1.195 -1.1554 -0.0505  1.3913
13946TIP3   OH263328   5.102   0.394  12.191  0.0976  0.4599  0.2398
13946TIP3    H163329   5.138   0.436  12.113  0.8132  1.4945  1.1196
13946TIP3    H263330   5.072   0.308  12.160 -0.2631  1.1282 -1.3090
13947TIP3   OH263331   0.336   1.163   3.197 -0.0262  0.0425 -0.0594
13947TIP3    H163332   0.366   1.184   3.286  1.1653 -0.8714 -0.2240
13947TIP3    H263333   0.272   1.093   3.209 -0.3199  0.3369  0.1140
13948TIP3   OH263334   1.389   3.318  12.636  0.4057  0.6298  0.5830
13948TIP3    H163335   1.459   3.350  12.579  0.8279  0.6794  1.1286
13948TIP3    H263336   1.396   3.223  12.631 -1.7967  0.5669 -2.2170
13949TIP3   OH263337   4.741   6.178  11.502  0.2241 -0.1592 -0.3494
13949TIP3    H163338   4.717   6.085  11.501 -0.7327  0.0907 -0.8275
13949TIP3    H263339   4.661   6.223  11.529  0.7226  0.5214  0.0078
13950TIP3   OH263340   1.136   5.600  14.469 -0.2229  0.4836 -0.5107
13950TIP3    H163341   1.196   5.638  14.533 -0.9093  0.6101  0.0597
13950TIP3    H263342   1.084   5.537  14.519 -0.0007 -0.2306 -1.1713
13951TIP3   OH263343   2.775   2.082  12.412 -0.7978  0.0600 -0.6852
13951TIP3    H163344   2.836   2.152  12.435  0.9054 -1.5112 -0.2545
13951TIP3    H263345   2.721   2.069  12.490 -0.4583  0.2334 -0.4234
13952TIP3   OH263346   6.471   0.707   5.491 -1.1337 -0.1551 -0.5745
13952TIP3    H163347   6.503   0.650   5.420 -1.4253 -0.0733 -0.7711
13952TIP3    H263348   6.531   0.690   5.564 -0.4317  0.2462 -1.0534
13953TIP3   OH263349   3.149   0.777   5.711 -0.1288  0.2801 -0.3022
13953TIP3    H163350   3.153   0.795   5.805  1.3714 -0.0427 -0.2978
13953TIP3    H263351   3.068   0.727   5.701 -0.5531  0.7254  0.7421
13954TIP3   OH263352   3.399   1.053  14.985 -0.0258 -0.3976  0.4121
13954TIP3    H163353   3.331   1.116  14.960  1.3438  1.0602  0.2431
13954TIP3    H263354   3.405   1.061  15.080  0.9880  0.6520  0.2768
13955TIP3   OH263355   6.713   4.713   2.941  0.1110 -0.0575  0.2221
13955TIP3    H163356   6.680   4.694   3.029  2.4842 -0.8655  0.9836
13955TIP3    H263357   6.713   4.809   2.935  1.4972  0.0593  1.7548
13956TIP3   OH263358   2.433   5.667   5.577 -0.1207 -0.8656  0.2619
13956TIP3    H163359   2.406   5.577   5.595 -0.3159 -1.1572 -1.3711
13956TIP3    H263360   2.474   5.662   5.491  0.9339  0.4109  0.6819
13957TIP3   OH263361   0.997   1.580  14.568  0.1085 -0.0595  0.0780
13957TIP3    H163362   1.025   1.661  14.610 -0.8277  0.3082  0.0253
13957TIP3    H263363   0.902   1.590  14.558  0.1988 -0.4580 -1.4304
13958TIP3   OH263364   3.909   3.562   1.886  0.0345 -0.3478 -0.1331
13958TIP3    H163365   3.911   3.473   1.851  0.7715 -0.3216 -0.1787
13958TIP3    H263366   3.961   3.557   1.966 -4.2893 -1.1273  2.7474
13959TIP3   OH263367   6.267   2.328  12.432 -0.0334  0.0358 -0.3454
13959TIP3    H163368   6.314   2.244  12.436 -0.3645 -0.2589 -2.0827
13959TIP3    H263369   6.335   2.394  12.437  0.6355 -0.3882 -3.0204
13960TIP3   OH263370   3.366   1.699  17.083  0.5190  0.2976  0.1813
13960TIP3    H163371   3.388   1.786  17.050 -2.0934  0.8307 -0.2993
13960TIP3    H263372   3.395   1.699  17.174  1.5611  1.2597 -0.1449
13961TIP3   OH263373   2.824   0.934   5.690 -0.0638  0.9052 -0.1026
13961TIP3    H163374   2.860   0.845   5.685 -1.6743  0.1117  1.7422
13961TIP3    H263375   2.858   0.978   5.612  1.4327 -1.0729 -0.6156
13962TIP3   OH263376   4.753   4.754   2.120  0.7575  0.1542 -0.1867
13962TIP3    H163377   4.837   4.765   2.076  0.6340  1.8253 -0.0395
13962TIP3    H263378   4.740   4.836   2.168 -0.7709 -0.2283  0.0858
13963TIP3   OH263379   2.677   3.635  11.734  0.0608  0.3771 -0.4165
13963TIP3    H163380   2.602   3.678  11.692  0.4872  2.0273  0.4610
13963TIP3    H263381   2.650   3.626  11.826 -0.1440 -1.5435 -0.6474
13964TIP3   OH263382   2.150   3.633   3.195 -0.4680  1.3115 -0.2279
13964TIP3    H163383   2.226   3.591   3.237 -0.0744  1.9116 -0.3372
13964TIP3    H263384   2.187   3.701   3.140 -1.0608  1.2654 -0.6893
13965TIP3   OH263385   5.704   4.760  14.306 -0.0864  0.1866  0.1225
13965TIP3    H163386   5.618   4.749  14.265 -0.8465  1.5459  1.3437
13965TIP3    H263387   5.766   4.737  14.236 -1.4237 -1.5561 -0.5484
13966TIP3   OH263388   4.052   1.079  16.288  0.4494 -0.6191  0.4730
13966TIP3    H163389   4.145   1.095  16.270  0.1742 -0.0693 -0.4911
13966TIP3    H263390   4.038   1.113  16.376  0.2576  2.9665 -0.8820
13967TIP3   OH263391   2.247   3.032   5.672  0.3622  0.6034 -0.1330
13967TIP3    H163392   2.317   3.054   5.611 -0.0987  0.5914 -0.6740
13967TIP3    H263393   2.172   3.083   5.643  0.7443  2.3195  1.7754
13968TIP3   OH263394   4.730   6.562   6.522 -0.1088 -0.3398  0.8021
13968TIP3    H163395   4.655   6.599   6.568 -0.0283 -0.5434  1.1018
13968TIP3    H263396   4.709   6.571   6.429 -0.7588 -0.9082  0.8841
13969TIP3   OH263397   0.439   3.587   4.675  0.3334  0.2006  0.3653
13969TIP3    H163398   0.465   3.675   4.702 -1.1077  0.7866 -0.1279
13969TIP3    H263399   0.447   3.588   4.580 -0.4753  0.0579  0.2973
13970TIP3   OH263400   3.208   3.916   4.622  0.4258  0.6169 -0.4924
13970TIP3    H163401   3.268   3.991   4.619 -0.2460  1.2930  1.7421
13970TIP3    H263402   3.243   3.861   4.693 -0.6737  0.2065 -0.2701
13971TIP3   OH263403   2.576   2.586   5.785 -0.1121  0.3418 -0.1459
13971TIP3    H163404   2.481   2.591   5.773 -0.2539 -1.6092 -0.0320
13971TIP3    H263405   2.593   2.494   5.801  1.9856  0.4403 -1.5764
13972TIP3   OH263406   0.654   1.650   4.785 -0.1561 -1.2422 -0.1004
13972TIP3    H163407   0.576   1.598   4.805  0.5614 -1.1877  3.1137
13972TIP3    H263408   0.726   1.587   4.788  0.4146 -0.5572  1.3808
13973TIP3   OH263409   3.210   1.873  12.345  0.1544  0.7911  0.3457
13973TIP3    H163410   3.142   1.920  12.297  0.0308  1.2621  0.9680
13973TIP3    H263411   3.204   1.783  12.314  0.0068  1.0712 -0.4356
13974TIP3   OH263412   3.402   5.224   2.791  0.1301 -0.5945 -0.3984
13974TIP3    H163413   3.395   5.241   2.697  1.0559 -0.5109 -0.4619
13974TIP3    H263414   3.493   5.198   2.804  0.2926  0.4206  0.6298
13975TIP3   OH263415   2.814   6.786   3.449 -0.0405  0.5716 -0.0609
13975TIP3    H163416   2.840   6.877   3.464 -1.0068  0.7667  0.4692
13975TIP3    H263417   2.893   6.744   3.416  0.4513  1.5725 -0.1928
13976TIP3   OH263418   5.097   4.647   1.056  0.2540 -0.6333 -0.1204
13976TIP3    H163419   5.184   4.639   1.095  0.6250  1.4688 -0.4997
13976TIP3    H263420   5.043   4.685   1.125  0.2134  0.3080 -0.6597
13977TIP3   OH263421   4.766   2.227  11.256  0.6699  0.0166  0.1288
13977TIP3    H163422   4.849   2.268  11.282  0.0530  0.6596  1.0663
13977TIP3    H263423   4.722   2.207  11.338  0.1265 -0.8151 -0.3633
13978TIP3   OH263424   1.569   4.500  13.198  0.0854  0.5044 -0.0956
13978TIP3    H163425   1.572   4.584  13.244  1.2493  0.2420  0.3224
13978TIP3    H263426   1.541   4.522  13.109  0.0315  1.2939  0.1145
13979TIP3   OH263427   5.944   4.434  13.371 -0.3495  0.1143  0.4640
13979TIP3    H163428   5.979   4.481  13.447 -0.5681  0.1228  0.5598
13979TIP3    H263429   5.897   4.360  13.408 -1.1255  0.5565  0.3785
13980TIP3   OH263430   4.162   1.012  12.648 -0.3770 -0.5023 -0.7318
13980TIP3    H163431   4.224   1.060  12.594  0.9847 -0.5404  0.7669
13980TIP3    H263432   4.198   0.923  12.653 -1.8922 -1.2056 -1.9394
13981TIP3   OH263433   5.039   4.332  15.175  0.2607 -0.5220 -0.4425
13981TIP3    H163434   5.107   4.391  15.141  0.0016 -0.3565 -0.6682
13981TIP3    H263435   4.996   4.382  15.244 -1.3598  0.3602 -2.0347
13982TIP3   OH263436   3.681   6.637  14.596  0.4244  0.3623 -0.2363
13982TIP3    H163437   3.709   6.691  14.670  0.1358  0.9780 -0.5769
13982TIP3    H263438   3.734   6.668  14.522  0.2335  0.2065 -0.4407
13983TIP3   OH263439   6.312   3.334  16.187  0.6663  0.1938  0.2263
13983TIP3    H163440   6.257   3.281  16.245  1.1668 -0.5041  0.0825
13983TIP3    H263441   6.398   3.334  16.231  2.2591 -3.9388 -2.5527
13984TIP3   OH263442   3.152   5.531  16.562 -0.5751  0.3530 -0.1536
13984TIP3    H163443   3.200   5.484  16.493  2.0793  1.1421  1.0797
13984TIP3    H263444   3.182   5.490  16.643 -0.9974  1.7606  0.7176
13985TIP3   OH263445   6.752   5.988  15.592  0.0975  0.1496  0.0536
13985TIP3    H163446   6.791   5.965  15.676  1.7491 -0.3625 -0.8334
13985TIP3    H263447   6.813   5.954  15.527 -1.7072 -0.4576 -1.3809
13986TIP3   OH263448   3.438   4.128  12.794 -0.1486  0.3359 -0.1433
13986TIP3    H163449   3.401   4.170  12.716 -0.0500 -1.2176 -1.0429
13986TIP3    H263450   3.385   4.050  12.806  1.0836 -0.4487  0.1949
13987TIP3   OH263451   0.325   4.089   5.281  0.4603 -0.2005 -0.1787
13987TIP3    H163452   0.299   4.051   5.197 -0.3623  0.3984 -0.2067
13987TIP3    H263453   0.331   4.014   5.341 -1.4544 -0.3698 -0.1554
13988TIP3   OH263454   4.058   4.515   2.284  0.4486 -0.1802 -0.4818
13988TIP3    H163455   4.004   4.593   2.293  0.0086 -0.1316 -3.0280
13988TIP3    H263456   4.136   4.533   2.337 -1.5945  0.0988  2.5274
13989TIP3   OH263457   1.648   3.925   4.204 -0.2548  0.1617 -0.2829
13989TIP3    H163458   1.640   3.868   4.281 -1.7137  0.5072 -0.1645
13989TIP3    H263459   1.598   3.881   4.136 -0.8436  0.9618 -0.3800
13990TIP3   OH263460   6.557   5.179  14.858 -0.0866 -0.2745  0.3323
13990TIP3    H163461   6.538   5.247  14.922  0.4199  0.6873 -0.5205
13990TIP3    H263462   6.618   5.220  14.797 -2.4813 -0.3168 -2.1938
13991TIP3   OH263463   5.827   3.864   6.695 -0.2702 -0.3484 -0.5252
13991TIP3    H163464   5.753   3.806   6.676 -0.3514 -1.0392  1.7193
13991TIP3    H263465   5.870   3.877   6.611 -1.3436 -2.1695 -1.3841
13992TIP3   OH263466   3.101   3.040   4.130  0.5097  0.3920  0.7111
13992TIP3    H163467   3.147   2.979   4.187 -0.8652 -0.3473  1.0436
13992TIP3    H263468   3.141   3.125   4.149  2.7149 -0.4484 -0.0559
13993TIP3   OH263469   4.250   3.580  11.765  0.0436  0.1291 -0.2066
13993TIP3    H163470   4.240   3.626  11.682  1.1479  0.6750 -0.0493
13993TIP3    H263471   4.228   3.646  11.831  2.4709  0.7175  0.0558
13994TIP3   OH263472   2.499   5.650   1.690  0.8251 -0.0601 -0.1590
13994TIP3    H163473   2.563   5.580   1.681 -0.2108 -1.1192  0.5993
13994TIP3    H263474   2.475   5.673   1.600 -1.1933 -2.8855 -0.3830
13995TIP3   OH263475   2.536   3.740  14.060  0.1781  0.1888 -0.2929
13995TIP3    H163476   2.559   3.831  14.046  1.4449 -0.2735 -1.3739
13995TIP3    H263477   2.507   3.708  13.975 -0.7980 -0.2830  0.1980
13996TIP3   OH263478   5.629   2.712   0.790 -0.0467 -0.7852 -0.3186
13996TIP3    H163479   5.542   2.683   0.762 -0.2286 -1.4910  0.9419
13996TIP3    H263480   5.688   2.640   0.766  0.1776 -0.3358 -1.1133
13997TIP3   OH263481   4.869   3.672  16.132  0.6431 -0.0732 -0.7056
13997TIP3    H163482   4.937   3.626  16.082  1.7700  0.4453  0.3491
13997TIP3    H263483   4.847   3.748  16.078  0.0821 -0.8352 -1.5794
13998TIP3   OH263484   4.074   2.910   3.582 -0.0838 -0.1276 -0.5979
13998TIP3    H163485   4.158   2.921   3.626 -0.1597 -0.6468 -0.3085
13998TIP3    H263486   4.015   2.879   3.650 -0.4372 -0.0376 -0.8600
13999TIP3   OH263487   6.572   4.608  11.668  0.3568  0.3121 -0.4590
13999TIP3    H163488   6.611   4.687  11.705 -0.9388  0.9580 -0.4492
13999TIP3    H263489   6.554   4.552  11.743  1.8495 -0.2701 -0.5203
14000TIP3   OH263490   4.838   5.001   2.260  0.2944 -0.3468  0.0442
14000TIP3    H163491   4.925   4.980   2.294 -0.5192 -2.4987  0.8605
14000TIP3    H263492   4.782   5.004   2.338 -0.9360 -1.9941 -0.7591
14001TIP3   OH263493   5.602   1.892  13.044 -0.1854 -0.1246  0.2240
14001TIP3    H163494   5.660   1.967  13.032 -1.8595  1.1553 -0.1320
14001TIP3    H263495   5.651   1.831  13.099  0.2644  2.3295  2.6405
14002TIP3   OH263496   6.228   4.036  11.311  0.4421  0.2404 -0.0998
14002TIP3    H163497   6.261   4.119  11.276 -0.8567  1.1024  0.6907
14002TIP3    H263498   6.283   3.969  11.270  2.2267  1.5592  0.0803
14003TIP3   OH263499   2.853   0.046  16.827  0.2511 -0.4521  0.1265
14003TIP3    H163500   2.841   0.072  16.918  1.5174  0.9517 -0.0965
14003TIP3    H263501   2.923   0.103  16.794 -0.7970 -0.3253 -1.9707
14004TIP3   OH263502   1.109   0.728  13.451 -0.1923  0.3946 -0.0339
14004TIP3    H163503   1.035   0.754  13.395  0.3697 -1.4367 -1.6916
14004TIP3    H263504   1.187   0.748  13.398  0.3014 -2.8772 -0.6334
14005TIP3   OH263505   1.881   2.305   4.266  0.4935 -0.0737  0.1143
14005TIP3    H163506   1.862   2.212   4.254  1.0974 -0.5436  2.6050
14005TIP3    H263507   1.914   2.333   4.181 -0.7025 -1.8704 -0.9947
14006TIP3   OH263508   5.397   2.222  11.335  0.0395  0.2271  0.2623
14006TIP3    H163509   5.386   2.128  11.326  0.8075  0.1018  0.6206
14006TIP3    H263510   5.331   2.248  11.399  1.2597 -0.4035  1.8187
14007TIP3   OH263511   1.842   6.047  14.585  0.6096  0.1584 -0.1068
14007TIP3    H163512   1.913   6.105  14.613  0.7104 -0.5675  1.2010
14007TIP3    H263513   1.778   6.051  14.656  0.2494 -0.7116 -0.3728
14008TIP3   OH263514   4.554   0.840   2.987 -1.6096  0.3890 -0.1918
14008TIP3    H163515   4.613   0.766   2.973 -0.1635  1.1900  1.4554
14008TIP3    H263516   4.490   0.808   3.050 -0.9468  0.5356  0.5713
14009TIP3   OH263517   4.459   5.147  16.445  0.5326  0.1041  0.2071
14009TIP3    H163518   4.401   5.100  16.386  0.6762 -0.7298  0.7200
14009TIP3    H263519   4.459   5.095  16.525  2.6555 -0.3885 -0.0750
14010TIP3   OH263520   1.976   3.518  12.240  0.3882 -0.3746 -0.0811
14010TIP3    H163521   1.956   3.447  12.178  1.5965 -0.5738 -0.2471
14010TIP3    H263522   2.017   3.586  12.186  0.9561 -0.3265  0.4146
14011TIP3   OH263523   6.418   4.806   0.186 -0.6334  0.2526 -0.6982
14011TIP3    H163524   6.366   4.752   0.126  1.3791 -0.5969 -1.7139
14011TIP3    H263525   6.421   4.755   0.267 -3.0789  1.2547  0.0973
14012TIP3   OH263526   0.394   2.987  14.208 -0.3054  0.6470  0.3246
14012TIP3    H163527   0.421   3.041  14.282  1.8203 -1.0995  0.8810
14012TIP3    H263528   0.339   2.919  14.247  0.5856 -0.1089  0.2955
14013TIP3   OH263529   2.664   2.930   1.352 -0.2563 -0.5863  0.4592
14013TIP3    H163530   2.627   2.896   1.433  1.0091  1.1991  1.8214
14013TIP3    H263531   2.754   2.899   1.352  0.1539  0.5948  0.4284
14014TIP3   OH263532   0.210   5.978  12.361  0.3051 -0.1645  0.4016
14014TIP3    H163533   0.270   5.991  12.288 -1.0553 -1.2084 -0.9356
14014TIP3    H263534   0.126   5.958  12.320 -0.4012 -1.1052  2.2491
14015TIP3   OH263535   4.190   5.870   5.954 -0.4289 -0.5161 -0.2015
14015TIP3    H163536   4.207   5.872   6.048 -0.5418  1.9178 -0.2220
14015TIP3    H263537   4.122   5.803   5.944  0.4295 -1.6551  1.2698
14016TIP3   OH263538   0.989   0.490  14.477 -0.0643 -0.3081  0.0588
14016TIP3    H163539   1.056   0.454  14.419  0.3460 -1.3642  1.1760
14016TIP3    H263540   0.939   0.414  14.506 -1.0238  0.3548  0.1353
14017TIP3   OH263541   0.283   1.963  13.125 -0.4912  0.3977  0.0380
14017TIP3    H163542   0.346   1.892  13.137 -0.7376  0.4627  1.7091
14017TIP3    H263543   0.329   2.025  13.067  0.4406 -0.2164  0.1050
14018TIP3   OH263544   0.551   0.465  11.864 -0.1302 -0.5781 -0.3051
14018TIP3    H163545   0.592   0.444  11.781 -0.2448 -0.0419 -0.5024
14018TIP3    H263546   0.469   0.509  11.840  0.3155  0.4846  0.0897
14019TIP3   OH263547   2.595   0.196  14.394  0.0314 -0.0552  0.4762
14019TIP3    H163548   2.561   0.122  14.344  0.9518  0.3561 -0.7945
14019TIP3    H263549   2.531   0.266  14.383  0.5697  0.2606 -0.7363
14020TIP3   OH263550   0.247   2.874   1.100 -0.1023 -0.1469 -0.7916
14020TIP3    H163551   0.239   2.811   1.171  0.5308 -1.3477 -1.7648
14020TIP3    H263552   0.243   2.959   1.143 -0.0190 -0.8529  0.6440
14021TIP3   OH263553   3.542   6.778  16.572 -0.0006  0.1440 -0.0938
14021TIP3    H163554   3.604   6.741  16.509  0.8622 -0.7058  1.2266
14021TIP3    H263555   3.485   6.835  16.520  1.6724  0.6680 -1.3685
14022TIP3   OH263556   4.149   2.485  15.123  0.1193  0.5429 -0.1640
14022TIP3    H163557   4.212   2.472  15.053  1.3375 -0.0235  1.0053
14022TIP3    H263558   4.151   2.579  15.140 -0.3655  0.7167 -1.0472
14023TIP3   OH263559   5.483   2.223   3.477  0.2457 -0.1627 -0.7285
14023TIP3    H163560   5.429   2.172   3.538 -1.5594 -2.6499 -4.2946
14023TIP3    H263561   5.473   2.314   3.508 -3.3277 -0.9447  0.6789
14024TIP3   OH263562   6.320   1.071   0.274 -0.1819  0.3960  0.1410
14024TIP3    H163563   6.383   1.075   0.346  0.3633  2.5506 -0.4255
14024TIP3    H263564   6.258   1.141   0.293 -0.6944  0.2147 -0.8815
14025TIP3   OH263565   5.988   3.382  16.610 -0.5071  0.0513  0.0860
14025TIP3    H163566   5.918   3.356  16.670  1.2997 -2.1582  1.2999
14025TIP3    H263567   6.000   3.306  16.553  0.8281  0.4794 -0.2125
14026TIP3   OH263568   6.603   0.819  13.982  0.4742 -0.5529  0.7053
14026TIP3    H163569   6.589   0.726  13.967 -0.1323 -0.5034  0.9272
14026TIP3    H263570   6.698   0.830  13.983  0.5358 -0.8529 -1.1859
14027TIP3   OH263571   6.232   2.026   1.278 -0.0033 -0.3096 -0.4675
14027TIP3    H163572   6.212   1.989   1.365 -1.6254  0.7573 -0.3572
14027TIP3    H263573   6.230   1.951   1.219 -0.6153 -0.7947  0.1607
14028TIP3   OH263574   0.312   2.144   0.682 -0.3461 -0.1939 -0.1167
14028TIP3    H163575   0.322   2.208   0.753  0.2747  0.0846 -0.4568
14028TIP3    H263576   0.303   2.060   0.728  2.9479 -0.4092  0.2659
14029TIP3   OH263577   3.925   1.487   2.480  0.1600 -0.1066 -0.5840
14029TIP3    H163578   3.927   1.475   2.575 -0.4994  0.4201 -0.4955
14029TIP3    H263579   3.946   1.579   2.467  0.4796 -0.2362 -0.9601
14030TIP3   OH263580   2.523   0.261   0.524 -0.7354  0.5953 -0.0792
14030TIP3    H163581   2.539   0.262   0.618 -1.2415 -1.5291  0.0515
14030TIP3    H263582   2.610   0.252   0.485 -0.5067  1.6673  0.1477
14031TIP3   OH263583   2.179   6.140  14.125  0.0713  0.6109 -0.8418
14031TIP3    H163584   2.093   6.146  14.083 -1.3113 -1.3396  1.5792
14031TIP3    H263585   2.164   6.166  14.215  1.7928 -0.7950 -0.1142
14032TIP3   OH263586   5.413   0.140   2.988  0.3031  0.6385  0.0228
14032TIP3    H163587   5.508   0.149   2.980  0.4328 -0.6789 -0.0653
14032TIP3    H263588   5.390   0.190   3.066  1.0304  1.1978 -0.1163
14033TIP3   OH263589   6.632   2.622   1.319  0.1716  0.1120  0.1898
14033TIP3    H163590   6.690   2.560   1.275 -0.7357 -0.5369 -0.0956
14033TIP3    H263591   6.543   2.592   1.299 -0.2807  1.3239  0.2921
14034TIP3   OH263592   1.520   3.644  15.951  0.4371 -0.1161  0.1752
14034TIP3    H163593   1.505   3.633  16.045  1.2322 -2.0921  0.1001
14034TIP3    H263594   1.610   3.677  15.946  0.4368 -0.1260  0.1151
14035TIP3   OH263595   3.119   3.861   5.034 -0.0918 -0.2382  0.0137
14035TIP3    H163596   3.125   3.887   5.126  0.6234 -3.0053  0.8095
14035TIP3    H263597   3.179   3.787   5.027 -0.2427 -0.1334 -2.6713
14036TIP3   OH263598   6.198   0.212   4.959  0.1230 -0.5849  0.5367
14036TIP3    H163599   6.285   0.180   4.934  1.2856  1.1369  2.3060
14036TIP3    H263600   6.203   0.223   5.053 -1.7050  0.5101  0.5127
14037TIP3   OH263601   2.321   5.060   2.926  0.1879 -0.1586  0.5029
14037TIP3    H163602   2.334   4.969   2.955  0.6777 -0.6045 -1.0718
14037TIP3    H263603   2.261   5.097   2.990  0.2037 -1.5146  1.3259
14038TIP3   OH263604   3.087   3.798   2.016  0.3528  0.4131 -0.9510
14038TIP3    H163605   3.011   3.843   1.980 -0.6713 -0.1837  0.4293
14038TIP3    H263606   3.162   3.837   1.970 -0.5910  2.6452 -0.6489
14039TIP3   OH263607   0.883   4.699  14.853  0.1318  0.0427  0.2246
14039TIP3    H163608   0.855   4.753  14.779  0.4560  0.3332  0.3160
14039TIP3    H263609   0.861   4.750  14.930 -1.4608 -0.8439  0.3811
14040TIP3   OH263610   2.339   3.001  15.262 -0.2328  0.2040 -0.3933
14040TIP3    H163611   2.354   3.075  15.320  1.7813 -0.8931  0.5237
14040TIP3    H263612   2.335   3.040  15.174  0.6980  1.4156  0.0919
14041TIP3   OH263613   6.110   3.860  10.976 -0.3707 -0.3565 -0.7135
14041TIP3    H163614   6.134   3.799  10.906  0.3506 -1.1529  0.2201
14041TIP3    H263615   6.160   3.939  10.957 -1.7855  0.2080 -2.2879
14042TIP3   OH263616   2.413   2.504   1.015 -0.2059  0.2161  0.7158
14042TIP3    H163617   2.340   2.510   0.953 -0.1324  1.6491  0.7465
14042TIP3    H263618   2.449   2.592   1.018  0.8716 -0.2384  1.5096
14043TIP3   OH263619   0.641   0.988  13.684  0.5204  0.5816 -0.5930
14043TIP3    H163620   0.623   1.002  13.777  1.5554  0.6517 -0.3990
14043TIP3    H263621   0.555   0.971  13.645  0.3261 -1.7633  0.7624
14044TIP3   OH263622   6.796   5.724   0.610 -0.5030 -0.2477 -0.1765
14044TIP3    H163623   6.749   5.695   0.532  1.3196  0.5128 -1.6054
14044TIP3    H263624   6.877   5.763   0.576  0.5401 -0.3220  2.1172
14045TIP3   OH263625   2.076   3.335  16.279 -0.6755 -0.2112 -0.1936
14045TIP3    H163626   2.136   3.389  16.331  1.1571 -0.3221 -2.1240
14045TIP3    H263627   2.050   3.392  16.206 -1.7917 -0.6700 -0.1720
14046TIP3   OH263628   0.509   2.561  14.884  0.1564 -0.2892  0.1206
14046TIP3    H163629   0.463   2.634  14.843  1.0075  0.4445  0.4632
14046TIP3    H263630   0.474   2.557  14.972  1.1624  0.6548  0.5765
14047TIP3   OH263631   3.589   6.371   5.230 -0.3461 -0.2294  0.2184
14047TIP3    H163632   3.580   6.434   5.301  1.7047  0.4044 -0.0244
14047TIP3    H263633   3.557   6.289   5.266 -0.1701  0.2866  1.5794
14048TIP3   OH263634   0.859   6.068   5.960 -0.5632 -0.0977 -0.1223
14048TIP3    H163635   0.834   5.994   6.014 -0.3293 -0.8352 -1.0163
14048TIP3    H263636   0.921   6.118   6.013 -1.0444 -0.3119  0.6410
14049TIP3   OH263637   5.553   4.667   4.185  0.1060  0.2224  0.2724
14049TIP3    H163638   5.589   4.750   4.216  1.5381 -0.6011  0.8847
14049TIP3    H263639   5.628   4.622   4.145 -1.0854  0.0716 -1.9113
14050TIP3   OH263640   4.302   6.524  15.551 -0.6607 -0.4297  0.8204
14050TIP3    H163641   4.207   6.529  15.557 -0.6647 -1.9110  2.2268
14050TIP3    H263642   4.331   6.511  15.641  0.8231 -0.9346  0.2820
14051TIP3   OH263643   0.834   1.079  16.217 -0.1933 -0.5418  0.4495
14051TIP3    H163644   0.877   1.093  16.301  1.0339 -0.9007 -0.1114
14051TIP3    H263645   0.783   1.158  16.202 -1.9444 -1.2392  2.4287
14052TIP3   OH263646   2.775   5.484   0.704 -0.2241  0.3683  0.4660
14052TIP3    H163647   2.785   5.570   0.663  0.1162  0.6419  1.1231
14052TIP3    H263648   2.695   5.448   0.665 -1.4096  1.7533  1.5578
14053TIP3   OH263649   1.395   3.654   4.594  0.3880  0.4694 -0.3104
14053TIP3    H163650   1.450   3.630   4.669  0.5825 -1.1348 -0.9561
14053TIP3    H263651   1.444   3.724   4.550  1.5761 -0.4539 -0.4784
14054TIP3   OH263652   0.377   1.080  13.510  0.2554 -0.3859 -0.2751
14054TIP3    H163653   0.412   1.043  13.429  1.5571 -0.4784  0.3131
14054TIP3    H263654   0.297   1.031  13.526  0.8837 -1.5453 -0.6125
14055TIP3   OH263655   0.835   4.588  14.427  0.2218 -0.8097  0.0594
14055TIP3    H163656   0.761   4.534  14.455  0.8327 -2.7227 -1.8868
14055TIP3    H263657   0.906   4.563  14.487  0.7565 -2.9084 -1.3796
14056TIP3   OH263658   5.661   4.779   4.988 -0.0189 -0.0764 -0.0159
14056TIP3    H163659   5.658   4.847   5.055 -0.9636 -0.3898  0.2708
14056TIP3    H263660   5.706   4.706   5.031 -1.4328 -0.6064  0.6015
14057TIP3   OH263661   6.720   1.173   2.810 -0.1298 -0.9278 -0.2305
14057TIP3    H163662   6.719   1.090   2.763  1.7096 -0.9991 -0.1636
14057TIP3    H263663   6.766   1.233   2.751 -0.7942 -0.1400  0.0439
14058TIP3   OH263664   4.039   0.122  14.010  0.1288  1.0564  0.3206
14058TIP3    H163665   4.001   0.035  14.021 -1.1591  1.9800  3.9485
14058TIP3    H263666   3.970   0.182  14.041  0.9791  3.4038 -2.0780
14059TIP3   OH263667   6.671   3.086  14.794 -0.1544  0.0453  0.1372
14059TIP3    H163668   6.584   3.047  14.783 -0.2020  0.4469 -0.9607
14059TIP3    H263669   6.722   3.017  14.836 -0.5153 -0.8535 -0.8607
14060TIP3   OH263670   6.454   2.209   3.700  0.8533 -0.3682 -0.1298
14060TIP3    H163671   6.371   2.204   3.748  0.9523  0.9881  0.2152
14060TIP3    H263672   6.519   2.176   3.762  0.5158 -1.9826 -0.6010
14061TIP3   OH263673   0.127   3.417   4.415 -0.0429  0.2052  0.1521
14061TIP3    H163674   0.152   3.331   4.448  0.8286  0.0972 -0.7566
14061TIP3    H263675   0.058   3.447   4.474 -0.8045 -1.3858  0.0981
14062TIP3   OH263676   3.847   5.701  15.324  0.6541 -0.2833 -0.1304
14062TIP3    H163677   3.862   5.649  15.403  2.4690  0.7579  0.2462
14062TIP3    H263678   3.828   5.637  15.256 -1.3540 -1.1790  1.2341
14063TIP3   OH263679   2.807   2.678   0.435 -0.2336 -0.0465 -0.6978
14063TIP3    H163680   2.804   2.602   0.377  0.2364 -0.0253 -0.7551
14063TIP3    H263681   2.715   2.702   0.448 -0.3375  0.1174 -1.6541
14064TIP3   OH263682   5.293   2.163  10.496  0.1815 -0.7183  0.1561
14064TIP3    H163683   5.301   2.073  10.527  0.5028  0.2695  3.0440
14064TIP3    H263684   5.373   2.179  10.447  1.3427 -1.1295  1.9137
14065TIP3   OH263685   2.432   4.645  12.987  0.0618  0.0186  0.1825
14065TIP3    H163686   2.395   4.726  12.952 -4.0446 -0.8055  2.2738
14065TIP3    H263687   2.499   4.673  13.048 -1.1542  1.8464  0.7093
14066TIP3   OH263688   3.237   0.002  14.707  0.0855 -0.0514  0.0616
14066TIP3    H163689   3.317   0.050  14.687  1.6008 -1.5388  2.3354
14066TIP3    H263690   3.244  -0.079  14.656  0.7928 -0.8732  1.4350
14067TIP3   OH263691   2.344   4.750  13.262 -0.0775  0.5068 -0.3760
14067TIP3    H163692   2.311   4.687  13.327  1.0378  1.7506  1.4336
14067TIP3    H263693   2.390   4.696  13.198 -0.4221 -0.6656  0.3417
14068TIP3   OH263694   6.665   5.948   5.497 -0.0518  0.0435 -0.1534
14068TIP3    H163695   6.599   5.989   5.553  0.4364  0.4680  0.1186
14068TIP3    H263696   6.615   5.889   5.441 -0.9228  2.0657 -1.5465
14069TIP3   OH263697   1.795   6.433   0.652  0.3514  0.2270 -0.0504
14069TIP3    H163698   1.794   6.344   0.688  0.6841  0.6091  0.9347
14069TIP3    H263699   1.772   6.423   0.560 -0.3670 -0.8017  0.2395
14070TIP3   OH263700   1.699   6.204   0.791 -0.1887 -0.1338 -0.4881
14070TIP3    H163701   1.759   6.221   0.863 -1.7023  0.5951  0.6337
14070TIP3    H263702   1.687   6.109   0.790 -1.5887  0.0021  1.4211
14071TIP3   OH263703   0.746   0.489  15.389  0.0250  0.1163 -0.1852
14071TIP3    H163704   0.831   0.530  15.377 -0.5576  0.7883 -2.2180
14071TIP3    H263705   0.748   0.412  15.333 -0.5151 -0.1531  0.1611
14072TIP3   OH263706   4.269   3.453   0.017  0.7399  0.0917 -0.2990
14072TIP3    H163707   4.338   3.389   0.032  1.2801  0.5804 -0.6388
14072TIP3    H263708   4.290   3.525   0.076 -1.0152 -0.8840  1.5620
14073TIP3   OH263709   1.137   0.986   0.518 -0.3511  0.3356 -0.4841
14073TIP3    H163710   1.195   1.016   0.448 -1.6774  1.5871 -1.0699
14073TIP3    H263711   1.142   1.054   0.585  0.0493 -0.3160  0.1569
14074TIP3   OH263712   6.469   3.521  11.434 -0.6911 -0.0607 -0.0050
14074TIP3    H163713   6.468   3.585  11.506 -0.0705 -0.2231  0.1473
14074TIP3    H263714   6.543   3.465  11.453 -0.3739  0.0474 -0.9114
14075TIP3   OH263715   5.107   6.808  14.957 -0.4183  0.8554  0.0078
14075TIP3    H163716   5.155   6.766  14.886  2.3795  1.1030  1.6343
14075TIP3    H263717   5.048   6.740  14.990 -0.2246  0.0973 -1.1844
14076TIP3   OH263718   5.858   3.979   0.552  0.6837 -0.0635  0.0678
14076TIP3    H163719   5.922   3.917   0.516  1.7726  0.0290  1.7714
14076TIP3    H263720   5.890   4.065   0.524  0.1551 -0.1486 -0.8091
14077TIP3   OH263721   6.801   1.756  17.030  0.0048  0.5184 -0.4597
14077TIP3    H163722   6.749   1.743  16.951 -2.0632 -1.3135  1.1627
14077TIP3    H263723   6.759   1.828  17.076 -2.1328 -1.9338  1.5982
14078TIP3   OH263724   3.051   3.098  11.387  0.8807 -0.0168 -0.1937
14078TIP3    H163725   2.976   3.155  11.407  0.7414 -0.3784  0.3220
14078TIP3    H263726   3.096   3.087  11.471  0.1322 -1.7864 -0.0009
14079TIP3   OH263727   2.658   4.949  16.845  0.0690 -0.2541  0.7159
14079TIP3    H163728   2.585   4.968  16.786  1.1299  0.3889 -0.3977
14079TIP3    H263729   2.616   4.915  16.924 -1.5171  1.2306  0.5454
14080TIP3   OH263730   1.803   0.553   4.855 -0.2139 -0.3972  0.4433
14080TIP3    H163731   1.728   0.572   4.912 -0.9942  2.2718 -1.3699
14080TIP3    H263732   1.800   0.621   4.788  3.0773 -1.0538 -0.4548
14081TIP3   OH263733   1.428   6.809   6.345 -0.1525 -0.4064 -0.1205
14081TIP3    H163734   1.375   6.888   6.349 -1.1099 -1.0065 -0.7353
14081TIP3    H263735   1.410   6.763   6.427  1.0349  0.4006  0.6035
14082TIP3   OH263736   2.011   5.505  13.764 -0.1091 -0.0185  0.3059
14082TIP3    H163737   1.941   5.560  13.728  0.1310  0.4253  0.5111
14082TIP3    H263738   2.091   5.541  13.726  0.0443 -0.2717  0.3882
14083TIP3   OH263739   1.511   1.800   4.738 -0.7368  0.5202 -0.7536
14083TIP3    H163740   1.542   1.809   4.828 -1.3286 -0.0974 -0.4911
14083TIP3    H263741   1.524   1.887   4.700 -1.7165  1.1506  0.3151
14084TIP3   OH263742   3.499   3.452   4.709  0.2744 -0.5119  0.2789
14084TIP3    H163743   3.542   3.385   4.657  0.0932 -1.0799  0.8526
14084TIP3    H263744   3.439   3.404   4.766  1.1434  0.0050  1.6721
14085TIP3   OH263745   1.783   1.391  13.419 -0.0202 -0.0735  0.6099
14085TIP3    H163746   1.851   1.453  13.393 -0.4980 -0.0857 -0.7027
14085TIP3    H263747   1.823   1.339  13.488  1.4943 -0.4495 -0.5426
14086TIP3   OH263748   2.462   5.639   3.166 -0.2320  0.0972 -0.0584
14086TIP3    H163749   2.525   5.568   3.164  0.6959  0.9295 -0.9578
14086TIP3    H263750   2.417   5.634   3.082  1.1129  1.6742 -0.9167
14087TIP3   OH263751   4.466   1.578  11.736  0.2876  0.5245 -0.3495
14087TIP3    H163752   4.388   1.545  11.780  0.2830 -1.3480 -1.6662
14087TIP3    H263753   4.436   1.652  11.684 -0.1096  1.3963  1.1017
14088TIP3   OH263754   5.535   2.795  14.144  0.3990 -0.0284  0.0075
14088TIP3    H163755   5.566   2.789  14.235  0.0170 -0.2368  0.1245
14088TIP3    H263756   5.448   2.834  14.151  0.2592 -0.2918 -0.2508
14089TIP3   OH263757   2.428   2.199   6.841 -0.1890 -0.3588  0.2692
14089TIP3    H163758   2.343   2.235   6.868 -0.7092 -0.8629 -0.6577
14089TIP3    H263759   2.418   2.105   6.854  0.8191 -0.2716  1.7449
14090TIP3   OH263760   4.462   3.434  15.052  0.4734 -0.0910  0.2806
14090TIP3    H163761   4.552   3.408  15.029 -0.1927 -0.5815 -1.8353
14090TIP3    H263762   4.413   3.426  14.971 -2.0961 -2.3563  1.9470
14091TIP3   OH263763   2.357   5.037  10.182 -0.5217 -0.3018  0.4774
14091TIP3    H163764   2.293   4.969  10.202  0.2385 -1.3495 -0.5732
14091TIP3    H263765   2.442   4.995  10.194 -0.0338  0.5925  0.2278
14092TIP3   OH263766   3.210   1.388  16.519  0.1383 -0.0995 -0.5931
14092TIP3    H163767   3.246   1.409  16.605  0.4103 -0.5550 -0.5969
14092TIP3    H263768   3.273   1.425  16.457  1.0671 -1.6613 -0.6056
14093TIP3   OH263769   4.569   0.399  13.110  0.3334 -0.1644 -0.3260
14093TIP3    H163770   4.656   0.391  13.149  0.5588  1.2815 -0.5071
14093TIP3    H263771   4.537   0.484  13.141 -1.0504 -0.7216 -0.1899
14094TIP3   OH263772   4.028   5.214   5.024  0.0622  0.2088  0.1540
14094TIP3    H163773   3.942   5.241   5.056 -0.4438 -1.5999  0.3708
14094TIP3    H263774   4.019   5.210   4.929 -0.1017 -0.0134  0.1794
14095TIP3   OH263775   1.097   4.117  16.334  0.0131 -0.2489  0.3549
14095TIP3    H163776   1.118   4.174  16.259 -1.6168 -0.3873 -0.2419
14095TIP3    H263777   1.166   4.134  16.397  0.9258  0.5502 -0.8276
14096TIP3   OH263778   6.728   2.754   1.838 -0.0005  0.0040  0.1524
14096TIP3    H163779   6.655   2.727   1.783  0.2083  0.7100 -0.4871
14096TIP3    H263780   6.755   2.675   1.883 -1.1534 -0.2684  0.3853
14097TIP3   OH263781   0.932   2.711   5.225  0.6556  0.2776 -0.0534
14097TIP3    H163782   1.015   2.686   5.267  0.7213  1.0385  0.2847
14097TIP3    H263783   0.958   2.742   5.139  0.4257 -2.2031 -1.0618
14098TIP3   OH263784   1.918   4.028   3.669  0.0693 -0.2644 -0.0222
14098TIP3    H163785   1.859   4.063   3.602 -0.8348 -1.9955 -0.1735
14098TIP3    H263786   2.006   4.045   3.635 -0.3353  1.7193 -0.1271
14099TIP3   OH263787   4.207   1.980   6.500  0.0332  0.4635  0.3608
14099TIP3    H163788   4.179   1.959   6.589 -2.0222 -0.1904 -0.4158
14099TIP3    H263789   4.155   1.922   6.444 -0.2714  2.3751 -1.3911
14100TIP3   OH263790   0.862   4.168   4.247 -0.4190  0.2813 -0.1700
14100TIP3    H163791   0.810   4.090   4.267  0.0153 -0.3321 -1.3349
14100TIP3    H263792   0.832   4.195   4.160 -1.2963  2.0400  0.6693
14101TIP3   OH263793   5.487   4.298   1.517 -0.2480 -0.1651  0.2602
14101TIP3    H163794   5.519   4.208   1.515 -1.1923 -0.4766 -0.6105
14101TIP3    H263795   5.415   4.300   1.455  1.5885  1.8827 -1.9256
14102TIP3   OH263796   2.530   6.466  13.774 -0.0689 -0.4697  0.0418
14102TIP3    H163797   2.621   6.437  13.765  0.2717 -0.3286  2.6813
14102TIP3    H263798   2.497   6.416  13.848 -1.8537  0.2365 -0.2656
14103TIP3   OH263799   4.862   4.563  12.744 -0.1450 -0.0249 -0.0749
14103TIP3    H163800   4.804   4.638  12.760  0.9485  0.6814  0.6738
14103TIP3    H263801   4.942   4.602  12.710 -0.6883 -1.1365 -2.7484
14104TIP3   OH263802   0.740   4.785  13.954  0.1841 -0.2204  0.0581
14104TIP3    H163803   0.810   4.813  13.896 -0.3566  0.3290 -0.3327
14104TIP3    H263804   0.752   4.837  14.034  0.2889 -0.2057  0.0318
14105TIP3   OH263805   1.814   6.061   3.829  0.1251  0.1272  0.5589
14105TIP3    H163806   1.853   5.995   3.887  0.4417 -0.7379 -0.6052
14105TIP3    H263807   1.846   6.145   3.863  0.4499 -0.3830  1.5214
14106TIP3   OH263808   1.803   0.686   2.517  0.2326  0.0149 -0.0260
14106TIP3    H163809   1.825   0.593   2.515 -0.1843 -0.0740 -0.5274
14106TIP3    H263810   1.849   0.720   2.594  1.1577 -0.4062 -0.3860
14107TIP3   OH263811   3.527   0.221   2.802  0.1351 -0.2268 -0.1992
14107TIP3    H163812   3.491   0.236   2.715  1.9097  2.1621 -0.5794
14107TIP3    H263813   3.617   0.254   2.796  1.4449 -3.2723  1.5431
14108TIP3   OH263814   3.939   3.764  14.979  0.1307  0.3367 -0.6005
14108TIP3    H163815   3.945   3.743  15.072  0.5854 -0.6087 -0.8339
14108TIP3    H263816   3.906   3.854  14.976 -3.4968 -0.8682  0.4271
14109TIP3   OH263817   4.197   2.109   4.407 -0.6561  0.0056 -0.5355
14109TIP3    H163818   4.272   2.093   4.465 -0.8136  0.6125 -0.1617
14109TIP3    H263819   4.127   2.056   4.444 -0.5563 -0.1672 -0.5905
14110TIP3   OH263820   4.587   1.026   0.762 -0.4488 -0.5376  0.3096
14110TIP3    H163821   4.596   1.098   0.825 -1.6395 -0.5307  0.4760
14110TIP3    H263822   4.641   1.053   0.687 -2.5287  1.5517 -0.5280
14111TIP3   OH263823   1.527   4.166   0.675 -0.3350 -0.0843  0.4650
14111TIP3    H163824   1.465   4.142   0.606 -0.6561  1.1882  0.2849
14111TIP3    H263825   1.585   4.091   0.683 -0.9031 -0.6373 -0.5174
14112TIP3   OH263826   1.210   3.781  11.865 -0.2973 -0.0435 -0.0895
14112TIP3    H163827   1.165   3.702  11.893  0.3319 -0.1701  0.5791
14112TIP3    H263828   1.266   3.753  11.794  0.4133 -0.3335  0.5770
14113TIP3   OH263829   0.397   3.267   0.578 -0.3132 -0.0071  0.5923
14113TIP3    H163830   0.442   3.190   0.612 -0.7831 -0.6919 -0.3292
14113TIP3    H263831   0.382   3.248   0.486 -0.4257  1.1925  0.3453
14114TIP3   OH263832   1.587   6.473  11.709  0.0561 -0.3487  0.0719
14114TIP3    H163833   1.565   6.557  11.668  1.7594  0.4028  0.6416
14114TIP3    H263834   1.552   6.407  11.649 -0.8308  0.7582 -0.6522
14115TIP3   OH263835   6.513   2.927   2.157  0.3901  0.1697 -0.3177
14115TIP3    H163836   6.524   3.019   2.133 -0.4464  0.8147  1.6015
14115TIP3    H263837   6.602   2.897   2.178  0.7023  0.4545 -1.2206
14116TIP3   OH263838   6.661   5.060   5.111  0.0454 -0.2069  0.7963
14116TIP3    H163839   6.731   5.004   5.144  2.0031  1.0138 -1.1336
14116TIP3    H263840   6.678   5.066   5.017 -2.3056  0.6100  0.4011
14117TIP3   OH263841   0.672   3.639  11.928 -0.5705 -0.3813 -0.4877
14117TIP3    H163842   0.680   3.544  11.923  0.4542 -0.3017 -0.3960
14117TIP3    H263843   0.746   3.672  11.877  0.1496  0.3699  1.0292
14118TIP3   OH263844   3.081   4.129  11.569  0.2761 -0.3151 -0.2034
14118TIP3    H163845   3.085   4.138  11.664  0.4590 -0.7320 -0.1697
14118TIP3    H263846   2.989   4.108  11.550  0.1620  0.1411 -0.1532
14119TIP3   OH263847   1.161   4.431   0.853 -0.0939 -0.0515  0.5649
14119TIP3    H163848   1.228   4.411   0.919  0.2266  0.0182  0.2596
14119TIP3    H263849   1.082   4.449   0.905 -0.2201 -1.4066  0.8725
14120TIP3   OH263850   2.043   5.076  14.353 -0.0619  0.0229  0.1149
14120TIP3    H163851   2.030   4.982  14.340  0.9792 -0.0440 -0.4759
14120TIP3    H263852   2.038   5.088  14.448  0.7299 -0.7689  0.2637
14121TIP3   OH263853   6.160   6.612   4.639 -0.2939 -0.1829  0.2437
14121TIP3    H163854   6.116   6.660   4.709 -0.8634 -0.5881  0.1734
14121TIP3    H263855   6.228   6.672   4.608  0.1029 -0.0869  1.2799
14122TIP3   OH263856   1.119   0.889  13.976 -0.1011  0.2041  0.4149
14122TIP3    H163857   1.053   0.821  13.965  0.5885 -0.3807 -0.1640
14122TIP3    H263858   1.102   0.951  13.905  0.5925 -0.4652 -0.3427
14123TIP3   OH263859   6.363   5.122  10.688 -0.2500 -0.0853 -0.5959
14123TIP3    H163860   6.296   5.190  10.695 -0.6167 -0.7138  3.5484
14123TIP3    H263861   6.440   5.161  10.730  0.6281 -0.9491 -1.4018
14124TIP3   OH263862   2.967   3.425  12.553 -0.0845  0.3203  0.4964
14124TIP3    H163863   2.964   3.383  12.467  1.4754 -0.9423  1.0335
14124TIP3    H263864   3.059   3.449  12.565 -0.0015 -0.8919  2.4551
14125TIP3   OH263865   5.868   1.942   4.349  0.2549 -0.3294  0.1058
14125TIP3    H163866   5.950   1.922   4.304 -1.6232 -1.8213 -2.8691
14125TIP3    H263867   5.851   1.865   4.404  0.3753 -0.4606 -0.0420
14126TIP3   OH263868   0.781   3.565   1.701  0.0363  0.2048  0.2227
14126TIP3    H163869   0.687   3.552   1.686  0.3857 -2.7507  0.3076
14126TIP3    H263870   0.802   3.507   1.773  2.1378  0.1515 -0.3958
14127TIP3   OH263871   1.820   0.702   0.776  0.0412  0.1009  0.4054
14127TIP3    H163872   1.904   0.661   0.796  0.2781  0.0261 -0.7062
14127TIP3    H263873   1.796   0.667   0.690 -0.9897  0.3450  0.5825
14128TIP3   OH263874   3.650   5.212   6.353 -0.2690  0.1196  0.0513
14128TIP3    H163875   3.642   5.125   6.391  0.2838 -0.1131 -0.3702
14128TIP3    H263876   3.658   5.196   6.259 -0.7266  0.6509 -0.0804
14129TIP3   OH263877   3.347   4.233  16.090  0.1075 -0.2387 -0.5188
14129TIP3    H163878   3.347   4.282  16.172  0.6655 -0.5014 -0.3561
14129TIP3    H263879   3.433   4.250  16.052 -0.8006  1.3424 -1.9412
14130TIP3   OH263880   0.469   3.599   3.642 -0.1219 -0.6733  0.1104
14130TIP3    H163881   0.373   3.608   3.635  0.0418  0.3038 -1.1175
14130TIP3    H263882   0.493   3.545   3.567  0.4262  0.2576 -0.4007
14131TIP3   OH263883   4.499   5.652   0.574  0.1629  0.5510 -0.0772
14131TIP3    H163884   4.418   5.605   0.557  0.0426  0.0407  1.8560
14131TIP3    H263885   4.471   5.736   0.611  0.4507  1.3800 -1.6729
14132TIP3   OH263886   5.078   6.038  14.285  0.4451 -0.0192  0.0707
14132TIP3    H163887   5.164   6.012  14.318 -0.2877  0.8152  2.8594
14132TIP3    H263888   5.035   5.956  14.262  0.7446 -0.7588  1.9985
14133TIP3   OH263889   1.382   2.801   3.161  0.2243 -0.0185 -0.4785
14133TIP3    H163890   1.379   2.758   3.075 -0.0370 -0.0614 -0.4474
14133TIP3    H263891   1.395   2.893   3.141 -0.7869  0.1038 -0.5992
14134TIP3   OH263892   0.500   3.578   1.751 -0.2146 -0.4192  0.1150
14134TIP3    H163893   0.550   3.651   1.789 -0.8624  0.4039 -0.6018
14134TIP3    H263894   0.446   3.546   1.824 -0.8526  0.6271  0.1227
14135TIP3   OH263895   4.980   1.398  11.520 -0.3239 -0.0696 -0.7284
14135TIP3    H163896   4.986   1.492  11.498 -0.2311  0.4307  1.3662
14135TIP3    H263897   4.893   1.387  11.557 -0.6012 -0.9727 -1.6323
14136TIP3   OH263898   5.499   0.047   0.996  0.2601  0.5799  0.0503
14136TIP3    H163899   5.585   0.072   0.962 -0.4783  1.7276 -1.0332
14136TIP3    H263900   5.481  -0.037   0.954 -0.1700  1.4747 -1.6124
14137TIP3   OH263901   0.860   1.866  14.445 -0.1944  0.2255 -0.1925
14137TIP3    H163902   0.855   1.858  14.540 -2.0875  1.0864 -0.1904
14137TIP3    H263903   0.804   1.941  14.424  2.5364  1.9323 -1.7497
14138TIP3   OH263904   3.604   3.406  16.429 -0.6798  0.0279 -0.2320
14138TIP3    H163905   3.527   3.452  16.462 -0.8702 -1.0106  0.7959
14138TIP3    H263906   3.621   3.338  16.494  1.7775  0.9639  0.1622
14139TIP3   OH263907   3.439   3.011   5.287 -0.4123 -0.0239 -0.1552
14139TIP3    H163908   3.395   3.095   5.298 -0.8399 -0.4544  1.5146
14139TIP3    H263909   3.371   2.951   5.256 -0.9462 -0.5937  2.0474
14140TIP3   OH263910   5.210   4.765  11.396 -0.5128  0.7591 -0.1597
14140TIP3    H163911   5.139   4.748  11.458 -1.1147  0.6688 -0.8626
14140TIP3    H263912   5.185   4.716  11.318  0.3400  0.7080 -0.4033
14141TIP3   OH263913   5.948   4.691  16.760  0.4258  0.2141 -0.1219
14141TIP3    H163914   5.888   4.704  16.833 -0.2943  1.8803 -0.9844
14141TIP3    H263915   6.032   4.670  16.800 -0.5277 -1.3158  1.1140
14142TIP3   OH263916   5.777   3.552   2.890  0.3714 -0.4592  0.1671
14142TIP3    H163917   5.853   3.512   2.848 -0.7380 -1.9772 -0.4298
14142TIP3    H263918   5.702   3.499   2.860 -0.6085 -0.6595  2.8543
14143TIP3   OH263919   0.063   1.690  12.334  0.1407 -0.1044  0.0577
14143TIP3    H163920   0.098   1.652  12.253 -1.2528  0.3465 -0.7974
14143TIP3    H263921   0.140   1.720  12.382  1.0274 -0.7750 -0.9136
14144TIP3   OH263922   4.953   2.810   4.622 -0.2393  0.2326 -0.6471
14144TIP3    H163923   4.960   2.905   4.617 -0.8049  0.3321  0.2436
14144TIP3    H263924   5.008   2.786   4.697  0.6064 -0.2386 -1.4032
14145TIP3   OH263925   6.517   6.810  13.213 -0.1500  0.4554 -0.0071
14145TIP3    H163926   6.473   6.725  13.219 -0.7691  0.7742 -0.0336
14145TIP3    H263927   6.485   6.848  13.131  1.6738 -0.1606 -1.0288
14146TIP3   OH263928   4.410   4.699   0.918 -0.0575  0.3678 -0.2019
14146TIP3    H163929   4.465   4.692   0.840 -0.3527  0.2616 -0.4038
14146TIP3    H263930   4.372   4.612   0.929  0.9976  0.0323  0.8207
14147TIP3   OH263931   0.924   1.120  12.199 -0.0579  0.1918 -0.4628
14147TIP3    H163932   0.868   1.108  12.276 -1.0585 -1.3117 -1.3989
14147TIP3    H263933   0.929   1.215  12.188 -1.4371  0.3723  0.3578
14148TIP3   OH263934   3.352   3.837  12.001 -0.0235 -0.1312 -0.1188
14148TIP3    H163935   3.334   3.858  12.092  0.4966 -0.5023  0.0727
14148TIP3    H263936   3.431   3.783  12.004 -1.5372 -2.4531 -0.5522
14149TIP3   OH263937   0.578   2.183   0.970  0.3031  0.9063  0.3188
14149TIP3    H163938   0.561   2.140   1.054 -1.1849  0.9097  0.0267
14149TIP3    H263939   0.623   2.116   0.918 -2.0435 -0.3576 -0.1502
14150TIP3   OH263940   6.746   6.341  16.822 -0.1988 -0.0366  0.3702
14150TIP3    H163941   6.780   6.422  16.783 -0.4708 -0.7373 -1.3795
14150TIP3    H263942   6.712   6.368  16.907 -1.6433  2.0006 -0.7995
14151TIP3   OH263943   1.295   4.662  16.296 -0.0544 -0.1233 -0.1292
14151TIP3    H163944   1.246   4.687  16.375  2.1561  1.9262  0.6795
14151TIP3    H263945   1.248   4.704  16.224 -0.9412 -0.2964  0.3499
14152TIP3   OH263946   3.694   3.072   0.665 -0.0979 -0.0530  0.1230
14152TIP3    H163947   3.724   3.083   0.574  2.2873 -2.0135  0.6379
14152TIP3    H263948   3.629   3.141   0.676  0.2336  0.8189 -2.8032
14153TIP3   OH263949   2.405   5.058   4.878  0.5644  0.0026 -0.0378
14153TIP3    H163950   2.323   5.098   4.907  0.8989  0.8731 -0.2893
14153TIP3    H263951   2.378   4.984   4.824 -0.0574  0.1706  0.0426
14154TIP3   OH263952   1.276   3.077  10.405  0.2353 -0.4994  0.6217
14154TIP3    H163953   1.217   3.136  10.452  1.7695  1.8295 -0.3259
14154TIP3    H263954   1.290   3.004  10.466 -1.6353  0.1088  1.8275
14155TIP3   OH263955   1.568   3.542   3.010  0.4070 -0.1568  0.1011
14155TIP3    H163956   1.544   3.590   3.089  0.1440 -0.9380  0.5059
14155TIP3    H263957   1.586   3.453   3.041 -2.8848 -1.3255 -1.1359
14156TIP3   OH263958   1.585   2.161  15.257 -0.3758  0.2541  0.0674
14156TIP3    H163959   1.634   2.121  15.328 -2.0603  0.0053  1.1182
14156TIP3    H263960   1.629   2.244  15.241  2.1837 -1.2471 -1.0594
14157TIP3   OH263961   3.776   3.048  15.470 -0.5186  0.5257  0.5926
14157TIP3    H163962   3.732   3.030  15.553  0.6352 -0.1396  1.0588
14157TIP3    H263963   3.705   3.072  15.410 -1.3883  0.6405  1.6676
14158TIP3   OH263964   2.163   4.856   1.044  0.3873  0.8724 -0.4854
14158TIP3    H163965   2.191   4.896   0.963 -0.5676  1.5118 -0.5041
14158TIP3    H263966   2.139   4.766   1.020  0.0216  1.0888 -0.9225
14159TIP3   OH263967   5.967   1.209  13.753  0.5598  0.9264  0.3701
14159TIP3    H163968   5.917   1.206  13.671 -1.8666 -0.5426  1.8224
14159TIP3    H263969   6.052   1.244  13.728  1.3781 -3.3333 -3.5812
14160TIP3   OH263970   6.504   2.091  13.794 -0.2573 -0.4472  0.1799
14160TIP3    H163971   6.536   2.083  13.884  0.1504  0.5763  0.1341
14160TIP3    H263972   6.579   2.069  13.740  0.0778  0.8791  0.0830
14161TIP3   OH263973   1.196   0.577   2.169  0.3316  0.1832  0.1005
14161TIP3    H163974   1.101   0.568   2.180  0.8003 -3.4552  1.8998
14161TIP3    H263975   1.228   0.606   2.254  0.9458  0.1109 -0.0986
14162TIP3   OH263976   3.852   5.620   4.507  0.4297 -0.4203 -0.3572
14162TIP3    H163977   3.856   5.709   4.543  1.0412 -1.0349  1.1589
14162TIP3    H263978   3.765   5.589   4.529  0.0673 -0.0497 -1.2593
14163TIP3   OH263979   1.336   1.634   4.155 -0.3538 -0.1070 -0.0043
14163TIP3    H163980   1.261   1.649   4.214  0.1644 -0.1473  0.6753
14163TIP3    H263981   1.297   1.599   4.075 -1.2351  1.4556 -0.2746
14164TIP3   OH263982   4.389   3.399  12.316 -0.5417  0.6593  0.0619
14164TIP3    H163983   4.467   3.394  12.372 -0.8635  0.9456  0.5298
14164TIP3    H263984   4.316   3.380  12.374 -1.0024  2.2594  0.0269
14165TIP3   OH263985   2.781   1.724   2.474  0.1854 -0.2187 -0.1636
14165TIP3    H163986   2.689   1.704   2.490  0.5364 -0.1754  2.1556
14165TIP3    H263987   2.822   1.638   2.459 -0.2195 -0.2349 -1.2173
14166TIP3   OH263988   0.900   1.091  16.547  0.5697  0.1545  0.2940
14166TIP3    H163989   0.935   1.092  16.637 -1.3599 -1.8433  1.0964
14166TIP3    H263990   0.812   1.056  16.556 -0.1575  1.2575 -2.2455
14167TIP3   OH263991   3.079   3.055   2.364 -0.1199  0.0063  0.1435
14167TIP3    H163992   3.081   3.149   2.346  0.0012 -0.0895 -0.3442
14167TIP3    H263993   3.165   3.036   2.401 -0.2133  0.1189  0.4274
14168TIP3   OH263994   2.258   0.651  15.748  0.1614  0.0188  0.5122
14168TIP3    H163995   2.292   0.710  15.681 -0.2694  0.6154  0.8177
14168TIP3    H263996   2.334   0.598  15.774  0.5698  0.4924  0.2972
14169TIP3   OH263997   2.353   0.773  13.444  0.2598  0.4628  0.0550
14169TIP3    H163998   2.274   0.751  13.396  0.3514 -0.2916  0.2272
14169TIP3    H263999   2.322   0.818  13.523  0.0901  1.3740 -0.5339
14170TIP3   OH264000   6.032   4.384   3.437  0.2482 -0.3112 -0.0461
14170TIP3    H164001   5.976   4.392   3.515  0.7147 -1.9436  0.4704
14170TIP3    H264002   5.991   4.314   3.386  0.1493  0.5132 -1.1138
14171TIP3   OH264003   6.288   4.846  16.177 -0.3106 -0.0992  0.4510
14171TIP3    H164004   6.310   4.852  16.084  0.9944  0.4066  0.7834
14171TIP3    H264005   6.351   4.903  16.220 -1.5988  0.5001  1.5550
14172TIP3   OH264006   0.127   2.268   6.428  0.1978  1.0596  0.0194
14172TIP3    H164007   0.052   2.292   6.483 -0.2970  0.9167 -0.5944
14172TIP3    H264008   0.114   2.316   6.347 -0.2480 -0.4713 -0.8229
14173TIP3   OH264009   0.317   4.347  14.231 -0.8560  0.1435 -0.5130
14173TIP3    H164010   0.338   4.284  14.162  0.5373  0.7912 -0.6726
14173TIP3    H264011   0.374   4.422  14.215  2.2063 -1.1654  3.4787
14174TIP3   OH264012   3.550   3.793   6.545  0.3553  0.5314  0.1529
14174TIP3    H164013   3.455   3.797   6.557  0.2581 -0.8156 -0.1042
14174TIP3    H264014   3.577   3.885   6.543 -0.9645  0.9381  0.0325
14175TIP3   OH264015   2.346   4.558   4.240 -0.0774 -0.0320  0.0976
14175TIP3    H164016   2.423   4.554   4.297 -0.3815 -1.0918  0.4595
14175TIP3    H264017   2.378   4.527   4.155  0.2724  1.1206 -0.2000
14176TIP3   OH264018   0.782   1.186   0.215  0.0133 -0.1888  0.6248
14176TIP3    H164019   0.744   1.161   0.299 -1.5832  2.3339  0.7100
14176TIP3    H264020   0.708   1.220   0.165  1.3272  0.2967 -1.0222
14177TIP3   OH264021   2.172   0.016   3.659  0.0599 -0.0719  0.1941
14177TIP3    H164022   2.244   0.078   3.646 -0.2320  0.1635 -0.3058
14177TIP3    H264023   2.195  -0.059   3.603  0.0972 -0.1558  0.3200
14178TIP3   OH264024   4.535   5.640  12.835 -0.2229  0.0575 -0.5985
14178TIP3    H164025   4.477   5.708  12.870  1.7084 -0.0938  3.1160
14178TIP3    H264026   4.477   5.567  12.817 -1.8022  1.4002 -1.1056
14179TIP3   OH264027   1.625   2.416  13.500 -0.6430  0.5964  0.0496
14179TIP3    H164028   1.697   2.479  13.502 -1.0221  1.0236  0.1550
14179TIP3    H264029   1.609   2.403  13.406 -0.5088  0.5904  0.0269
14180TIP3   OH264030   6.708   1.610  14.379 -0.3387  0.1906  0.4874
14180TIP3    H164031   6.692   1.553  14.453  0.5103 -0.9607 -0.2064
14180TIP3    H264032   6.634   1.671  14.379 -1.1660 -0.8079  1.3072
14181TIP3   OH264033   3.998   0.789   0.454 -0.0459  0.6759  0.3341
14181TIP3    H164034   4.052   0.867   0.461  0.9086  0.0259  0.2489
14181TIP3    H264035   4.018   0.739   0.533  2.2321 -1.2953 -1.4418
14182TIP3   OH264036   1.164   1.459   1.292 -0.2883 -0.0583  0.2478
14182TIP3    H164037   1.137   1.544   1.257  1.0595  0.4845  0.5077
14182TIP3    H264038   1.171   1.403   1.215  0.1623  0.4387 -0.0768
14183TIP3   OH264039   5.741   1.959  13.875 -0.3570 -0.5276 -0.4149
14183TIP3    H164040   5.746   1.865  13.892 -1.4775 -0.6143 -0.5520
14183TIP3    H264041   5.799   1.973  13.800  0.4896 -0.9635  0.1471
14184TIP3   OH264042   5.780   6.275   4.365 -0.2790  0.2816  0.9346
14184TIP3    H164043   5.820   6.350   4.409  3.2224 -1.2365  0.4936
14184TIP3    H264044   5.793   6.291   4.272 -0.9703 -0.1308  0.7574
14185TIP3   OH264045   2.537   0.970  16.886 -0.6680 -0.0114  0.4537
14185TIP3    H164046   2.507   0.955  16.797 -0.8459  0.9763  0.3466
14185TIP3    H264047   2.627   0.937  16.887 -0.6503  0.0214 -0.0983
14186TIP3   OH264048   4.257   4.370  16.683 -0.2871 -0.1419  0.2515
14186TIP3    H164049   4.280   4.440  16.622  0.3116  0.2391  0.9019
14186TIP3    H264050   4.202   4.413  16.748  0.0288 -0.2886  0.6180
14187TIP3   OH264051   3.835   4.124   5.384  0.1760  0.0727 -0.1433
14187TIP3    H164052   3.811   4.078   5.304  0.6749 -0.2452 -0.1134
14187TIP3    H264053   3.809   4.215   5.369 -1.6921 -0.3934  0.1654
14188TIP3   OH264054   6.612   6.423  13.262 -0.1790  0.0506 -0.4514
14188TIP3    H164055   6.633   6.330  13.260  2.1828  0.4172  2.9219
14188TIP3    H264056   6.548   6.432  13.333 -2.2888  0.6905 -2.3896
14189TIP3   OH264057   3.093   6.755  16.541 -0.0784  0.5945 -0.0976
14189TIP3    H164058   3.062   6.845  16.534  1.2175  1.0810  0.2874
14189TIP3    H264059   3.189   6.762  16.538  0.0574 -0.6882  0.8175
14190TIP3   OH264060   4.504   6.466  11.813 -0.4334  0.1134 -0.0987
14190TIP3    H164061   4.592   6.475  11.776  0.3953 -2.1712  1.1684
14190TIP3    H264062   4.446   6.493  11.742  1.2062 -1.3176 -2.0676
14191TIP3   OH264063   4.577   1.696   0.219 -0.2431 -0.3481  0.5510
14191TIP3    H164064   4.556   1.779   0.176 -2.5956 -0.7084  0.9364
14191TIP3    H264065   4.606   1.639   0.148 -0.0390  0.3527  0.0692
14192TIP3   OH264066   0.182   0.694  16.553  1.0963  0.0943  0.6782
14192TIP3    H164067   0.138   0.624  16.505  0.3803 -0.0702  1.5606
14192TIP3    H264068   0.271   0.694  16.520  0.5553  0.1382 -0.8206
14193TIP3   OH264069   6.449   0.083  13.490 -0.6896  0.5131 -0.2692
14193TIP3    H164070   6.501   0.086  13.409 -1.0665  1.8087 -0.4662
14193TIP3    H264071   6.372   0.031  13.467  0.1357 -0.7798 -0.1846
14194TIP3   OH264072   5.961   5.674  11.618  0.1944  0.5698  0.0548
14194TIP3    H164073   5.911   5.664  11.700  0.5462  1.0493  0.3353
14194TIP3    H264074   5.896   5.667  11.549 -0.1978  0.7366  0.4036
14195TIP3   OH264075   6.126   0.612   2.945  0.6655 -0.4983 -0.4958
14195TIP3    H164076   6.139   0.706   2.934  1.9294 -0.4330  1.4069
14195TIP3    H264077   6.061   0.605   3.016 -0.9510 -1.0456 -1.9875
14196TIP3   OH264078   5.910   5.740   2.128 -0.4189  0.0126  0.1712
14196TIP3    H164079   5.907   5.644   2.129 -0.3682  0.0049  2.1829
14196TIP3    H264080   5.981   5.762   2.067 -0.6123 -1.2141 -0.5063
14197TIP3   OH264081   5.586   3.396  12.619 -0.2440 -0.5045 -0.0465
14197TIP3    H164082   5.523   3.431  12.681 -2.5744  0.6222 -2.9522
14197TIP3    H264083   5.658   3.460  12.619 -1.1036  0.4712  0.0806
14198TIP3   OH264084   2.907   2.314  15.315 -0.3990 -0.7044 -0.2173
14198TIP3    H164085   2.906   2.223  15.343  0.4956 -0.6392  0.0400
14198TIP3    H264086   2.922   2.311  15.221 -1.2555 -0.8486 -0.3530
14199TIP3   OH264087   4.506   6.534   4.011 -0.3163 -0.1341 -0.3822
14199TIP3    H164088   4.572   6.603   4.006  0.4255 -0.7566  0.4923
14199TIP3    H264089   4.456   6.541   3.930 -0.0531  1.2291 -0.4287
14200TIP3   OH264090   2.599   5.670   6.200  0.2263  0.3721  0.6517
14200TIP3    H164091   2.528   5.638   6.255  1.3265 -2.7311  0.3858
14200TIP3    H264092   2.567   5.658   6.110  0.3621  0.6867  0.5618
14201TIP3   OH264093   1.814   6.447  11.031  0.2066 -0.2471 -0.5551
14201TIP3    H164094   1.821   6.354  11.051 -0.6701 -0.5611 -1.6616
14201TIP3    H264095   1.880   6.462  10.963 -1.6329 -0.6895 -2.4657
14202TIP3   OH264096   2.267   0.333   5.418  0.0627  0.2196  0.5067
14202TIP3    H164097   2.221   0.416   5.428 -0.8947 -0.0939 -1.0934
14202TIP3    H264098   2.323   0.345   5.341  0.0526 -0.5594  0.3688
14203TIP3   OH264099   3.156   1.367  15.190  0.0061 -0.2482  0.4971
14203TIP3    H164100   3.194   1.449  15.223  0.8672 -1.1407  1.7316
14203TIP3    H264101   3.077   1.354  15.242  0.3926 -0.7129  0.9653
14204TIP3   OH264102   4.397   0.721  13.437 -0.3796 -0.5820  0.1841
14204TIP3    H164103   4.354   0.733  13.352 -0.6469  0.6163  0.4842
14204TIP3    H264104   4.411   0.810  13.470  2.0635 -0.9326  0.2256
14205TIP3   OH264105   3.550   4.567  14.169  0.4789  0.0783 -0.2004
14205TIP3    H164106   3.622   4.526  14.120  0.2384 -0.4171 -0.1415
14205TIP3    H264107   3.593   4.609  14.243  0.5756 -1.4085  0.6223
14206TIP3   OH264108   4.020   0.133   6.259  0.1157  0.2491 -0.0742
14206TIP3    H164109   3.936   0.096   6.233  0.3088  0.3655 -0.8874
14206TIP3    H264110   4.001   0.184   6.337 -0.7503  1.0261 -0.7777
14207TIP3   OH264111   3.038   5.931  14.401  0.1728  0.0384  0.2364
14207TIP3    H164112   2.997   5.882  14.473 -1.3821 -0.6333 -1.0773
14207TIP3    H264113   2.969   5.986  14.366  0.9460  0.4640 -0.6592
14208TIP3   OH264114   4.283   5.251  15.364 -0.1262 -0.1016  0.3088
14208TIP3    H164115   4.232   5.275  15.441 -2.1672  0.1806 -1.0643
14208TIP3    H264116   4.225   5.193  15.314  0.6409  0.7000 -1.5878
14209TIP3   OH264117   1.895   3.706   1.898  0.2054 -0.3892 -0.1658
14209TIP3    H164118   1.844   3.735   1.822  1.9570  1.3464 -0.7096
14209TIP3    H264119   1.875   3.613   1.905  0.0163 -0.6003 -2.7863
14210TIP3   OH264120   6.047   0.437   2.737  0.4225 -0.2506 -0.2777
14210TIP3    H164121   6.100   0.460   2.661  1.8564  1.1841  1.0804
14210TIP3    H264122   6.051   0.515   2.793 -0.4046 -1.3304  1.3499
14211TIP3   OH264123   5.562   4.225   3.402  0.2144 -0.1760 -0.2054
14211TIP3    H164124   5.629   4.286   3.371 -0.5467  0.4870 -0.5740
14211TIP3    H264125   5.569   4.229   3.498 -0.7872  1.6099 -0.1836
14212TIP3   OH264126   4.747   3.081  16.521 -0.2480  0.0297  0.3829
14212TIP3    H164127   4.745   3.135  16.442 -0.1503 -0.0837  0.3013
14212TIP3    H264128   4.838   3.087  16.551 -0.1044 -0.5129  0.0750
14213TIP3   OH264129   3.919   4.777   3.294 -0.1664  0.0023 -0.2240
14213TIP3    H164130   3.941   4.716   3.223  1.6928 -1.2987  1.4043
14213TIP3    H264131   3.915   4.863   3.251 -0.0401 -0.8846 -2.0749
14214TIP3   OH264132   6.099   3.572   5.854  0.0513 -0.1601  0.4461
14214TIP3    H164133   6.066   3.662   5.853  1.1042  0.2325  0.2237
14214TIP3    H264134   6.075   3.539   5.941  0.0474  0.4863  0.6969
14215TIP3   OH264135   5.356   2.570  11.281  0.4825 -0.6147 -0.1039
14215TIP3    H164136   5.399   2.645  11.321  0.4045 -0.4437 -0.3443
14215TIP3    H264137   5.371   2.498  11.343 -2.2333  0.3335  1.7542
14216TIP3   OH264138   4.068   4.152   0.394 -0.1290 -0.1363  0.9938
14216TIP3    H164139   4.160   4.153   0.370 -0.7853 -0.6428 -1.6726
14216TIP3    H264140   4.052   4.237   0.433  1.3751  0.0865  1.1440
14217TIP3   OH264141   3.080   0.420  15.545 -0.1292  0.1472  0.1457
14217TIP3    H164142   3.111   0.428  15.635 -2.9247 -1.1892  1.2779
14217TIP3    H264143   3.144   0.362  15.503 -1.0787 -2.7607  2.4937
14218TIP3   OH264144   1.516   6.145   1.608  0.1351  0.2736  0.4201
14218TIP3    H164145   1.567   6.225   1.597  0.1366  0.2393  0.1847
14218TIP3    H264146   1.581   6.075   1.614  0.0757  0.0640 -1.2412
14219TIP3   OH264147   6.635   2.212  16.000 -0.0811  0.4684  0.3572
14219TIP3    H164148   6.691   2.289  16.001  0.7677 -0.1433  0.2403
14219TIP3    H264149   6.653   2.170  15.915  1.1055 -1.0353  1.3213
14220TIP3   OH264150   6.596   2.695  12.515 -0.4497 -0.2069  0.1010
14220TIP3    H164151   6.503   2.672  12.513 -0.6742  0.7377 -0.3750
14220TIP3    H264152   6.598   2.782  12.554  0.3668 -0.8441  1.5287
14221TIP3   OH264153   4.876   0.435   0.077  0.2116 -0.0597 -0.0902
14221TIP3    H164154   4.787   0.458   0.052  0.0566  0.3593  0.8244
14221TIP3    H264155   4.928   0.450  -0.003 -0.6262 -0.9235 -0.8022
14222TIP3   OH264156   4.003   4.913  11.790 -0.8713 -0.1999 -0.5405
14222TIP3    H164157   4.096   4.935  11.796 -1.0949  0.2371  1.5722
14222TIP3    H264158   3.990   4.845  11.855 -1.8137 -1.0599 -1.6085
14223TIP3   OH264159   3.097   2.433  15.788  0.0433 -0.6815  0.5791
14223TIP3    H164160   3.106   2.439  15.693 -0.9903 -2.1223  0.3713
14223TIP3    H264161   3.052   2.350  15.803 -0.1060 -0.3155  2.3175
14224TIP3   OH264162   0.135   1.296   4.681  0.3572  0.1298  0.3922
14224TIP3    H164163   0.170   1.208   4.699 -0.3210 -0.0790  0.6886
14224TIP3    H264164   0.165   1.315   4.592 -1.9739 -1.6381 -0.8145
14225TIP3   OH264165   3.231   1.387  12.104  0.3959 -0.3768 -0.1022
14225TIP3    H164166   3.212   1.408  12.013 -0.6493 -0.1059  0.1789
14225TIP3    H264167   3.161   1.428  12.154 -0.1687 -2.1815  0.6622
14226TIP3   OH264168   3.612   1.436  13.034  0.2211 -0.3864 -0.0028
14226TIP3    H164169   3.597   1.430  12.940 -0.0160 -1.4811  0.1027
14226TIP3    H264170   3.691   1.490  13.042  0.5218 -0.6969 -0.8413
14227TIP3   OH264171   1.040   4.187   1.427 -0.2951 -0.2963  0.2236
14227TIP3    H164172   0.968   4.181   1.490  1.0863 -1.6470  1.7432
14227TIP3    H264173   1.040   4.102   1.382  0.0486 -0.1452 -0.0638
14228TIP3   OH264174   5.061   3.631  13.051  0.4312  0.7504  0.2852
14228TIP3    H164175   5.131   3.690  13.021  0.5769 -1.0904 -3.2891
14228TIP3    H264176   4.980   3.672  13.019  0.0901  1.4881  2.0629
14229TIP3   OH264177   4.620   0.567  14.103 -0.2462 -0.0768  0.0213
14229TIP3    H164178   4.656   0.484  14.134 -1.3697 -1.0841 -1.2482
14229TIP3    H264179   4.529   0.566  14.132 -0.2818  0.6777 -0.0537
14230TIP3   OH264180   2.536   4.387  11.557 -0.4211 -0.0628 -0.7327
14230TIP3    H164181   2.551   4.300  11.519  0.5985 -0.2978  0.1919
14230TIP3    H264182   2.475   4.371  11.629 -0.2683 -0.0055 -0.5910
14231TIP3   OH264183   3.530   6.532  11.656 -0.0544  0.3594 -0.0782
14231TIP3    H164184   3.475   6.505  11.582 -0.5793 -0.8740  0.7537
14231TIP3    H264185   3.480   6.507  11.734  1.2658  0.0954  0.7009
14232TIP3   OH264186   4.891   5.099   6.107 -0.0101 -0.5123 -0.0462
14232TIP3    H164187   4.925   5.078   6.020  2.0023  1.6024  0.1713
14232TIP3    H264188   4.892   5.195   6.111 -3.2328 -0.4858  1.1200
14233TIP3   OH264189   3.441   1.295   5.465  0.2280 -0.3905 -0.2322
14233TIP3    H164190   3.391   1.218   5.495  0.4595 -0.8045 -0.9078
14233TIP3    H264191   3.374   1.363   5.452  0.0957 -0.2801  0.9801
14234TIP3   OH264192   0.970   6.623  13.740  0.0133 -0.4960 -0.5319
14234TIP3    H164193   1.046   6.587  13.785 -1.6137 -3.1658  0.2333
14234TIP3    H264194   0.948   6.557  13.674 -1.8499  0.0409 -0.4851
14235TIP3   OH264195   1.531   3.413   1.843 -0.6882 -0.3764  0.0804
14235TIP3    H164196   1.612   3.367   1.820  0.1363  2.0533 -2.0694
14235TIP3    H264197   1.553   3.462   1.922 -0.7872 -1.5496  0.8485
14236TIP3   OH264198   0.395   5.038  12.262 -0.2233 -0.0150  0.3722
14236TIP3    H164199   0.369   5.100  12.330  0.3398 -0.4037  0.9393
14236TIP3    H264200   0.490   5.036  12.265 -0.1007  1.1811 -1.5207
14237TIP3   OH264201   1.052   1.414   0.967  0.4317  0.4865 -0.3126
14237TIP3    H164202   1.070   1.442   0.877 -0.5274  0.9249 -0.3799
14237TIP3    H264203   1.108   1.338   0.980 -0.8479 -0.7963 -1.9700
14238TIP3   OH264204   3.304   4.305  16.514  0.0970  0.2637 -0.1554
14238TIP3    H164205   3.384   4.253  16.522 -0.7060 -0.8737  0.6044
14238TIP3    H264206   3.249   4.276  16.587 -1.4601  0.2145 -1.3198
14239TIP3   OH264207   6.413   0.346  16.502 -0.0865 -0.1622 -0.0873
14239TIP3    H164208   6.440   0.437  16.507 -0.3381 -0.1623  2.0116
14239TIP3    H264209   6.495   0.296  16.506 -0.0941 -0.0687  2.0841
14240TIP3   OH264210   4.421   2.921   1.909 -0.1355  0.3327  0.0734
14240TIP3    H164211   4.470   2.993   1.869 -0.4376 -0.2858 -1.4676
14240TIP3    H264212   4.337   2.959   1.931  0.1021  0.7346  0.2967
14241TIP3   OH264213   2.180   4.145   2.360  0.3571  0.2605  0.7258
14241TIP3    H164214   2.087   4.166   2.355  0.7190  1.6213 -0.6176
14241TIP3    H264215   2.196   4.127   2.453 -0.9993  1.1980  1.1500
14242TIP3   OH264216   6.785   1.482   4.752  0.1741  0.5692 -0.1788
14242TIP3    H164217   6.834   1.409   4.714 -0.4870  0.3880 -0.7074
14242TIP3    H264218   6.793   1.470   4.847 -1.2105 -1.0873 -0.2419
14243TIP3   OH264219   5.490   2.061   1.974 -0.3112  0.0638 -0.3818
14243TIP3    H164220   5.504   2.153   1.953 -0.5529  0.6126  1.7399
14243TIP3    H264221   5.395   2.049   1.967 -0.3860  0.2335  0.2540
14244TIP3   OH264222   2.787   0.284  14.781  0.0381  0.6535  0.4240
14244TIP3    H164223   2.777   0.195  14.813 -0.3362  0.4403 -0.3009
14244TIP3    H264224   2.703   0.306  14.742  0.1358  1.3162  0.5781
14245TIP3   OH264225   2.512   4.684   4.981  0.2933  0.0056  0.1168
14245TIP3    H164226   2.600   4.689   5.019 -0.0626 -0.7161  1.0466
14245TIP3    H264227   2.524   4.633   4.900  0.7614  0.0857  0.1327
14246TIP3   OH264228   5.835   5.460   3.751 -0.0707 -0.3240 -0.7363
14246TIP3    H164229   5.780   5.493   3.822  0.6411 -1.1561  0.2156
14246TIP3    H264230   5.776   5.407   3.698 -0.2118 -1.1734  0.2534
14247TIP3   OH264231   1.713   1.517   1.823  0.1581  0.0154  0.0832
14247TIP3    H164232   1.700   1.551   1.911  2.5630 -0.7694  0.7809
14247TIP3    H264233   1.625   1.504   1.789 -0.7972  0.8775  2.1412
14248TIP3   OH264234   3.991   2.965   0.682 -0.0245  0.2591 -0.2310
14248TIP3    H164235   3.984   3.001   0.594 -0.1465 -1.2974 -0.8787
14248TIP3    H264236   3.907   2.985   0.724 -0.0219  0.8645 -0.5176
14249TIP3   OH264237   5.042   3.749  17.275  0.3325 -0.2830 -0.1424
14249TIP3    H164238   5.100   3.740  17.351 -1.0569  1.2055  1.1156
14249TIP3    H264239   5.080   3.822  17.225  0.3964 -0.2775 -0.0860
14250TIP3   OH264240   3.024   4.222  11.190 -0.3352  0.3558  0.3007
14250TIP3    H164241   2.972   4.142  11.181 -0.3632  0.5526 -1.4338
14250TIP3    H264242   2.959   4.292  11.194 -0.2913  0.3484  1.1516
14251TIP3   OH264243   5.474   2.748  15.652  0.1348  0.7559 -0.0330
14251TIP3    H164244   5.511   2.717  15.570 -0.8392  0.6804 -0.4553
14251TIP3    H264245   5.456   2.841  15.636 -0.6755  0.5873 -0.1416
14252TIP3   OH264246   3.836   4.568  11.232  0.2287 -0.4208 -0.3593
14252TIP3    H164247   3.927   4.591  11.215  0.3291  0.0083  0.7088
14252TIP3    H264248   3.786   4.623  11.171  0.5255  1.9124  1.4390
14253TIP3   OH264249   2.136   6.584   5.433  0.2818  0.2251  0.7816
14253TIP3    H164250   2.055   6.607   5.388  1.5656  1.9348 -0.7651
14253TIP3    H264251   2.159   6.498   5.400  0.0189  0.5070 -0.1444
14254TIP3   OH264252   0.694   4.601   4.464  0.3790  0.6762 -0.0812
14254TIP3    H164253   0.713   4.536   4.532  0.4544  0.0792 -0.6710
14254TIP3    H264254   0.759   4.584   4.396  0.2000  1.1675 -0.3776
14255TIP3   OH264255   4.091   6.117  14.708 -0.3267  0.2003  0.1713
14255TIP3    H164256   4.044   6.113  14.791 -1.6413  2.6311 -0.4066
14255TIP3    H264257   4.127   6.205  14.706 -1.3808  0.6049 -2.3911
14256TIP3   OH264258   3.969   1.753  11.574 -0.3340 -0.0633  0.1497
14256TIP3    H164259   3.876   1.758  11.596 -0.5570  1.0496 -1.0017
14256TIP3    H264260   3.983   1.823  11.510  0.8212 -1.7027 -1.4294
14257TIP3   OH264261   1.233   6.785  12.660  0.2265  0.6256 -0.0925
14257TIP3    H164262   1.245   6.697  12.695  1.2974  1.1339  0.8597
14257TIP3    H264263   1.234   6.774  12.565 -0.1893 -0.4477  0.0178
14258TIP3   OH264264   4.190   6.106  16.095 -0.0012 -0.5563  0.2809
14258TIP3    H164265   4.100   6.075  16.097  0.1797 -1.0281  1.0655
14258TIP3    H264266   4.206   6.141  16.182 -0.0648  1.3636 -0.4697
14259TIP3   OH264267   5.813   3.320  15.847 -0.3028  0.4224  0.2853
14259TIP3    H164268   5.763   3.398  15.871 -2.8606 -1.2846  0.7084
14259TIP3    H264269   5.773   3.249  15.897 -0.2888 -1.7673 -2.6665
14260TIP3   OH264270   2.089   0.104   5.098  0.1862  0.0087  0.7746
14260TIP3    H164271   2.033   0.153   5.158 -0.1480  0.1412  0.3631
14260TIP3    H264272   2.040   0.104   5.015 -0.6828 -2.5117  1.2234
14261TIP3   OH264273   2.229   6.548   6.400 -0.2029  0.0335 -0.6544
14261TIP3    H164274   2.224   6.564   6.306 -1.4073 -0.1004 -0.6114
14261TIP3    H264275   2.278   6.623   6.434  2.1098 -0.9534 -1.6472
14262TIP3   OH264276   0.018   1.193   1.249  0.5262 -0.0720  0.5603
14262TIP3    H164277   0.094   1.246   1.225  0.3583  0.6947  1.6838
14262TIP3    H264278   0.025   1.183   1.344 -0.5981 -0.2871  0.6204
14263TIP3   OH264279   6.201   5.345   3.318 -0.2997  0.1354 -1.1161
14263TIP3    H164280   6.292   5.370   3.335 -0.4973  1.3888 -1.8867
14263TIP3    H264281   6.205   5.291   3.240 -0.0459 -1.0998 -0.2688
14264TIP3   OH264282   0.156   1.717   5.431 -0.3811 -0.1034 -0.5775
14264TIP3    H164283   0.145   1.772   5.353 -0.4622  2.9018  1.4827
14264TIP3    H264284   0.071   1.721   5.475 -0.4478 -2.0795 -0.4725
14265TIP3   OH264285   0.196   4.182  16.224 -0.1983  0.0409  0.2243
14265TIP3    H164286   0.279   4.152  16.262 -0.6068 -1.6909 -0.2122
14265TIP3    H264287   0.202   4.161  16.131 -0.0573  2.3774 -0.3257
14266TIP3   OH264288   4.224   0.747   1.772 -0.0940  0.3837 -0.1348
14266TIP3    H164289   4.224   0.690   1.848 -0.3149  1.0582  0.3703
14266TIP3    H264290   4.226   0.836   1.808 -0.6282  0.7126 -0.9108
14267TIP3   OH264291   4.001   3.168   6.032  0.1916 -0.5034  0.4564
14267TIP3    H164292   4.029   3.257   6.010 -0.5631  0.0269  1.6246
14267TIP3    H264293   4.052   3.146   6.110  1.1371 -1.4965 -0.4248
14268TIP3   OH264294   6.150   6.243  16.414 -0.2119 -0.8153  0.3888
14268TIP3    H164295   6.157   6.148  16.413 -1.4771 -0.9004 -0.2961
14268TIP3    H264296   6.095   6.265  16.339  2.4404  0.6495 -1.2133
14269TIP3   OH264297   2.843   2.651  14.127 -0.3645  0.7594  0.2035
14269TIP3    H164298   2.902   2.665  14.200 -0.9783  1.9205  0.4844
14269TIP3    H264299   2.893   2.678  14.050 -0.0452  0.4165  0.2905
14270TIP3   OH264300   2.371   4.378  15.071  0.0408  0.2332 -0.4336
14270TIP3    H164301   2.444   4.439  15.059 -0.4337  1.0147  0.5393
14270TIP3    H264302   2.404   4.295  15.039  1.7353  0.3420  0.9335
14271TIP3   OH264303   3.652   2.849  10.727  0.4113 -0.1400  0.0030
14271TIP3    H164304   3.581   2.882  10.672  0.2914  1.0312  0.8392
14271TIP3    H264305   3.637   2.891  10.812 -0.3287 -3.0806  1.4002
14272TIP3   OH264306   5.958   6.025   4.896 -0.3055  0.2852  0.1724
14272TIP3    H164307   5.908   6.015   4.816 -0.2600  0.0300  0.1738
14272TIP3    H264308   5.911   5.971   4.960  0.1076 -0.1477  0.1099
14273TIP3   OH264309   0.583   2.036   1.191 -0.4943 -0.5313  0.1635
14273TIP3    H164310   0.675   2.050   1.216  0.2348 -3.7512 -0.4409
14273TIP3    H264311   0.533   2.063   1.267  0.9580  0.9831  0.6214
14274TIP3   OH264312   2.272   3.215   0.451 -0.1174  0.2268  0.3358
14274TIP3    H164313   2.224   3.278   0.396  1.1103  1.5587  0.7768
14274TIP3    H264314   2.359   3.211   0.411  0.5039  0.5227  1.6571
14275TIP3   OH264315   0.133   2.388   5.470  0.4242 -0.1589  0.2479
14275TIP3    H164316   0.063   2.364   5.532  0.1685  3.0264  1.2596
14275TIP3    H264317   0.172   2.304   5.446 -3.4932 -2.0275 -0.0690
14276TIP3   OH264318   2.439   0.403   5.636  0.2038  0.4298 -0.4370
14276TIP3    H164319   2.439   0.309   5.620  0.3151  0.7706 -2.6014
14276TIP3    H264320   2.382   0.439   5.568  1.2432  2.0448 -0.4703
14277TIP3   OH264321   2.080   2.670   4.276 -0.8806  0.0540  0.4631
14277TIP3    H164322   2.015   2.719   4.326  0.4015  3.1189 -0.7060
14277TIP3    H264323   2.163   2.689   4.320 -0.4055 -1.4761  0.2471
14278TIP3   OH264324   2.681   4.866  11.127  0.2086  0.0499 -0.0369
14278TIP3    H164325   2.725   4.912  11.056 -0.4234  1.2737  0.3601
14278TIP3    H264326   2.752   4.823  11.176  0.7600  0.2919 -0.6247
14279TIP3   OH264327   2.945   6.362  13.218  0.1759  0.3430 -0.2013
14279TIP3    H164328   2.890   6.339  13.144  1.1202  0.1125 -0.8388
14279TIP3    H264329   2.965   6.278  13.260 -1.8248  0.6304  1.3757
14280TIP3   OH264330   1.482   6.382   0.843  0.1867 -0.0640 -0.0165
14280TIP3    H164331   1.418   6.345   0.904 -1.8467  1.1494 -1.3627
14280TIP3    H264332   1.550   6.315   0.837 -0.6840 -1.1583  1.8543
14281TIP3   OH264333   1.858   3.967  14.976  0.3369 -0.0412  0.1728
14281TIP3    H164334   1.767   3.954  15.005  0.1136  0.7775 -0.1509
14281TIP3    H264335   1.860   3.933  14.887  0.1891  0.5211 -0.0468
14282TIP3   OH264336   1.620   4.926   3.162 -0.4497 -0.2335  0.4426
14282TIP3    H164337   1.707   4.963   3.145  0.1608 -1.0000  1.7815
14282TIP3    H264338   1.559   4.997   3.142  0.3746 -0.1180 -1.8380
14283TIP3   OH264339   2.903   5.612  11.261 -0.4494 -0.9094  0.6862
14283TIP3    H164340   2.923   5.643  11.349 -0.8483 -2.2337  1.2526
14283TIP3    H264341   2.808   5.619  11.254 -0.4409 -1.0129  0.4314
14284TIP3   OH264342   4.846   1.762  15.890  0.2126  0.3416  0.0756
14284TIP3    H164343   4.899   1.743  15.968  1.2422 -1.8111 -1.1189
14284TIP3    H264344   4.894   1.832  15.845  0.3486  0.6254  0.6524
14285TIP3   OH264345   5.089   0.086   4.559 -0.6640  0.3427 -0.4152
14285TIP3    H164346   5.130   0.067   4.475  0.1215 -2.1912  0.5186
14285TIP3    H264347   4.995   0.088   4.540 -0.4196  1.3995 -1.6260
14286TIP3   OH264348   3.289   4.186  12.580 -0.4187 -0.6864 -0.2112
14286TIP3    H164349   3.244   4.102  12.568  0.0766 -0.6102 -2.9809
14286TIP3    H264350   3.225   4.251  12.551  0.0956 -0.2913 -0.4691
14287TIP3   OH264351   1.849   0.724  13.268  0.0414  0.3586  0.2117
14287TIP3    H164352   1.823   0.634  13.287 -0.2347  0.7253  1.5779
14287TIP3    H264353   1.816   0.740  13.179  1.4037 -1.3661 -0.6354
14288TIP3   OH264354   3.117   4.208  15.934  0.4616  0.0447 -0.3413
14288TIP3    H164355   3.144   4.132  15.882  1.9791 -0.3513  0.9770
14288TIP3    H264356   3.192   4.226  15.991 -0.7006  1.2087  0.8668
14289TIP3   OH264357   5.983   6.337  13.690  0.2221 -0.6023  0.2680
14289TIP3    H164358   5.937   6.407  13.643 -0.6210 -2.2434 -1.4142
14289TIP3    H264359   6.039   6.383  13.752 -4.2382  1.5072  3.0184
14290TIP3   OH264360   6.729   1.252   3.096  0.5355 -0.0752  0.1588
14290TIP3    H164361   6.670   1.177   3.109  0.6437 -0.2973 -0.5798
14290TIP3    H264362   6.695   1.320   3.154 -0.5993 -0.1193 -0.4273
14291TIP3   OH264363   5.237   3.707   5.742  0.2488  0.4189  0.2656
14291TIP3    H164364   5.283   3.700   5.659 -1.4451 -0.4280 -0.6238
14291TIP3    H264365   5.182   3.629   5.746 -0.3749  0.9110  1.7541
14292TIP3   OH264366   3.671   4.117  12.368  0.2887  0.4247 -0.1728
14292TIP3    H164367   3.592   4.123  12.422 -0.4828 -0.0674 -1.2088
14292TIP3    H264368   3.742   4.143  12.425 -0.6411  0.9113  0.7741
14293TIP3   OH264369   3.636   0.575   5.492  0.4813  0.2796 -0.7113
14293TIP3    H164370   3.634   0.631   5.570  2.7991 -0.0172 -0.4136
14293TIP3    H264371   3.724   0.584   5.458 -0.3040 -0.1611 -2.9272
14294TIP3   OH264372   3.596   0.070   6.109 -0.6084 -0.3226 -0.3158
14294TIP3    H164373   3.633   0.124   6.039 -2.6074 -0.2032 -1.3272
14294TIP3    H264374   3.523   0.122   6.144  0.9869  0.0672  2.5902
14295TIP3   OH264375   2.439   5.871   4.477 -0.3309  0.1211 -0.1569
14295TIP3    H164376   2.421   5.957   4.517 -0.5335 -0.0057  0.0223
14295TIP3    H264377   2.360   5.851   4.427 -0.4296 -0.1366  0.1063
14296TIP3   OH264378   3.133   4.840  15.035  0.1826  0.2958 -0.1670
14296TIP3    H164379   3.079   4.912  15.002 -0.7230 -0.6876 -0.8803
14296TIP3    H264380   3.086   4.761  15.007  1.1313 -0.5647  0.6591
14297TIP3   OH264381   4.058   1.241   2.057 -0.1069  0.1542  0.1135
14297TIP3    H164382   4.025   1.315   2.107 -2.1253 -0.8049  0.2309
14297TIP3    H264383   3.987   1.217   1.998  1.1127 -0.6955 -1.0500
14298TIP3   OH264384   4.154   4.404  16.297 -0.0406 -0.1232  0.4741
14298TIP3    H164385   4.194   4.413  16.211  2.9446  1.4945  1.9803
14298TIP3    H264386   4.209   4.342  16.344 -0.8840 -0.0203  1.6441
14299TIP3   OH264387   1.208   3.321   1.055 -0.1320 -0.3352 -0.7796
14299TIP3    H164388   1.259   3.388   1.012 -0.3582 -1.1726 -2.3964
14299TIP3    H264389   1.143   3.369   1.107  1.2106  0.6940 -0.0183
14300TIP3   OH264390   1.632   3.053   0.166  0.0121 -0.4629  0.2725
14300TIP3    H164391   1.673   3.035   0.251 -0.2879 -0.1198  0.4885
14300TIP3    H264392   1.704   3.087   0.112 -0.1659  0.9702  0.9162
14301TIP3   OH264393   1.962   4.803  12.946  0.1117 -0.7507  0.2145
14301TIP3    H164394   1.992   4.761  13.026  1.9932  0.6387  0.2708
14301TIP3    H264395   1.999   4.751  12.875  1.7813  0.3033  0.2835
14302TIP3   OH264396   5.022   0.067   3.729 -0.0440  0.0915  0.0505
14302TIP3    H164397   5.092   0.031   3.675 -0.7012  0.4306 -1.0471
14302TIP3    H264398   5.061   0.074   3.816  1.1356 -0.1741 -0.4347
14303TIP3   OH264399   5.568   3.796  10.836  0.5188  0.0736  0.3003
14303TIP3    H164400   5.585   3.881  10.878 -0.5318  1.0096 -1.1282
14303TIP3    H264401   5.474   3.799  10.815  0.3964 -1.6094  0.5892
14304TIP3   OH264402   3.302   4.074  15.330 -0.0614 -0.2513 -0.1611
14304TIP3    H164403   3.215   4.113  15.337  0.4516  0.8281  0.1655
14304TIP3    H264404   3.313   4.058  15.236 -0.1968  0.5556 -0.3178
14305TIP3   OH264405   4.013   0.366   1.701  0.6434 -0.0304 -0.2731
14305TIP3    H164406   3.932   0.390   1.657  0.0708  1.2272  1.4036
14305TIP3    H264407   4.002   0.273   1.723 -2.1186  1.0824  3.5203
14306TIP3   OH264408   2.831   5.212   1.533 -0.9212 -0.0586  0.4477
14306TIP3    H164409   2.813   5.182   1.622  1.8852 -2.0203  0.4073
14306TIP3    H264410   2.759   5.176   1.481 -1.5524 -0.4950  1.6102
14307TIP3   OH264411   1.290   6.328   1.705  0.1822 -0.1587 -0.3075
14307TIP3    H164412   1.360   6.291   1.652 -0.6609  0.1667 -1.6725
14307TIP3    H264413   1.217   6.267   1.694  0.4109 -0.8292  1.6034
14308TIP3   OH264414   6.489   1.782  16.335  0.1735  0.1490 -0.4716
14308TIP3    H164415   6.432   1.778  16.258  0.3308 -0.5539 -0.5526
14308TIP3    H264416   6.550   1.709  16.324 -0.0364 -0.1800  0.4978
14309TIP3   OH264417   4.358   6.652  16.725  0.9692 -0.1989 -0.2213
14309TIP3    H164418   4.316   6.733  16.697 -1.0848 -1.3286 -0.5767
14309TIP3    H264419   4.415   6.627  16.653  1.0972  0.5661 -0.3869
14310TIP3   OH264420   3.200   4.386   5.095 -0.6553  0.2300 -0.5092
14310TIP3    H164421   3.234   4.474   5.081  0.8186 -0.1776  0.4403
14310TIP3    H264422   3.220   4.340   5.013  1.0741  0.0159  0.0070
14311TIP3   OH264423   1.280   4.104   4.153 -0.3613  0.5108  0.1026
14311TIP3    H164424   1.326   4.184   4.128 -1.8326  1.3286 -0.0569
14311TIP3    H264425   1.294   4.096   4.247  1.0378  0.1278 -0.1264
14312TIP3   OH264426   3.732   1.395   1.567  0.0389  0.1671  0.0266
14312TIP3    H164427   3.748   1.468   1.507  1.1454 -0.7986 -0.8611
14312TIP3    H264428   3.760   1.318   1.519 -0.6608 -0.8018  1.1537
14313TIP3   OH264429   0.093   1.239  14.517 -0.5861  0.3103 -0.0630
14313TIP3    H164430   0.062   1.281  14.597 -1.7139  1.1987 -0.9576
14313TIP3    H264431   0.026   1.173  14.498 -0.5985  0.4652 -0.5598
14314TIP3   OH264432   1.544   2.114  12.362 -0.0980  0.3361  0.0019
14314TIP3    H164433   1.548   2.196  12.411 -2.5578  0.8722 -0.5966
14314TIP3    H264434   1.489   2.057  12.416 -1.2500  0.2826 -1.2092
14315TIP3   OH264435   1.804   2.114  15.967 -0.0214  0.7303  0.6878
14315TIP3    H164436   1.852   2.073  16.040 -1.0576 -0.8819  0.4743
14315TIP3    H264437   1.825   2.060  15.891 -0.2420  1.4645  0.1003
14316TIP3   OH264438   3.947   0.201  10.955 -0.3369 -0.0052 -1.2829
14316TIP3    H164439   3.924   0.119  10.911  1.0998  0.4027 -2.8115
14316TIP3    H264440   4.043   0.202  10.958 -0.3734  0.5137  0.8594
14317TIP3   OH264441   0.485   3.023  16.597  0.1274 -0.0560 -0.4392
14317TIP3    H164442   0.526   3.023  16.684  1.1409 -2.7093 -0.8817
14317TIP3    H264443   0.429   2.946  16.596 -0.7485  0.5704 -1.7688
14318TIP3   OH264444   5.666   6.691   1.792  0.1651  0.8070  0.1757
14318TIP3    H164445   5.616   6.701   1.711  0.1831  2.8282  0.3710
14318TIP3    H264446   5.627   6.615   1.836 -0.2825  0.1117 -1.3992
14319TIP3   OH264447   6.496   2.357   4.954 -0.1765  0.5534  0.5497
14319TIP3    H164448   6.437   2.282   4.965 -0.0565  0.3627 -0.1202
14319TIP3    H264449   6.465   2.401   4.875  1.6910 -0.5923 -0.8693
14320TIP3   OH264450   2.930   5.527   5.131  0.0548  0.4372 -0.0831
14320TIP3    H164451   3.005   5.558   5.080 -0.1898  1.2988  0.0705
14320TIP3    H264452   2.906   5.444   5.090  1.5335 -0.2024  0.3145
14321TIP3   OH264453   3.613   3.654   1.366 -0.3370  0.1906 -0.1483
14321TIP3    H164454   3.676   3.717   1.331 -1.4662  1.1675 -0.4546
14321TIP3    H264455   3.645   3.569   1.336  0.5203  0.7250 -0.7742
14322TIP3   OH264456   0.262   1.005   0.674  0.2000 -0.4065  0.1734
14322TIP3    H164457   0.183   0.980   0.722 -0.4821 -0.8470 -1.1554
14322TIP3    H264458   0.245   1.094   0.645  0.8985  0.1079  1.3335
14323TIP3   OH264459   1.759   0.998   2.093  0.5872  0.1960 -0.2138
14323TIP3    H164460   1.733   0.959   2.010  0.2218  0.0419 -0.0308
14323TIP3    H264461   1.782   0.924   2.148  1.3913  0.3335 -0.3664
14324TIP3   OH264462   5.370   4.376   5.286 -0.1650  0.2856  0.2907
14324TIP3    H164463   5.426   4.445   5.251  0.6964 -0.3849  0.3325
14324TIP3    H264464   5.315   4.350   5.212 -0.1920  0.7140  0.1594
14325TIP3   OH264465   3.246   3.498  14.261  0.0538  0.1267  0.1597
14325TIP3    H164466   3.221   3.590  14.253  1.1440  0.3567 -0.7629
14325TIP3    H264467   3.163   3.451  14.266 -0.4943  1.2170  1.3081
14326TIP3   OH264468   2.839   5.237  13.684 -0.2244  0.2703 -0.3803
14326TIP3    H164469   2.910   5.300  13.671  0.0922  0.0243  0.1189
14326TIP3    H264470   2.790   5.271  13.759 -0.3921  0.2309 -0.4729
14327TIP3   OH264471   2.498   5.181  13.444 -0.2078 -0.5094  0.4488
14327TIP3    H164472   2.487   5.251  13.380  0.2279 -0.4721  0.4176
14327TIP3    H264473   2.437   5.203  13.514 -1.1629 -0.8944 -0.2458
14328TIP3   OH264474   5.805   0.179   0.145  0.3987 -0.2728 -0.6239
14328TIP3    H164475   5.746   0.253   0.127  0.7604  0.2518  0.2783
14328TIP3    H264476   5.789   0.158   0.237 -0.1942 -1.7742 -1.0614
14329TIP3   OH264477   0.326   3.911  13.284 -0.6412 -0.1092 -0.6231
14329TIP3    H164478   0.380   3.984  13.313 -1.1039 -0.0829  0.2056
14329TIP3    H264479   0.236   3.938  13.303 -0.7740 -1.1337  0.2867
14330TIP3   OH264480   2.055   3.314  15.732  0.0431  0.3595 -0.1489
14330TIP3    H164481   2.043   3.408  15.742  0.6895  0.2049  2.3986
14330TIP3    H264482   2.145   3.297  15.761 -0.5701 -1.2182  0.9420
14331TIP3   OH264483   6.540   5.097   2.383 -0.3404  0.3561  0.1216
14331TIP3    H164484   6.468   5.111   2.444 -1.4875 -1.0186 -0.8782
14331TIP3    H264485   6.594   5.029   2.425 -0.9963 -0.4116 -0.2571
14332TIP3   OH264486   4.375   5.474   4.417  0.0350 -0.2370 -0.1458
14332TIP3    H164487   4.280   5.487   4.418 -0.3236 -2.5300  1.3245
14332TIP3    H264488   4.400   5.471   4.510  1.5223  0.2568 -0.5201
14333TIP3   OH264489   3.983   2.390  16.575  0.8278 -0.0074  0.3088
14333TIP3    H164490   4.052   2.394  16.641  3.5813 -0.7035 -2.3925
14333TIP3    H264491   3.983   2.478  16.536 -0.2198  0.1600  0.6807
14334TIP3   OH264492   6.196   1.007   1.851 -0.8045 -0.4165 -0.4265
14334TIP3    H164493   6.164   0.974   1.935  0.1548 -0.1395  0.0474
14334TIP3    H264494   6.129   1.070   1.823 -0.3040  0.7504  0.9458
14335TIP3   OH264495   4.418   6.029  11.447  0.6903  0.2435 -0.2515
14335TIP3    H164496   4.490   5.985  11.403  0.6479 -0.2097  0.1258
14335TIP3    H264497   4.344   6.020  11.387  0.1454 -1.9844  0.7005
14336TIP3   OH264498   4.370   5.473  16.719  0.1322 -0.0318  0.4891
14336TIP3    H164499   4.328   5.414  16.656 -0.1623  1.0271 -0.3226
14336TIP3    H264500   4.300   5.497  16.779  0.0808  0.0870  0.3808
14337TIP3   OH264501   6.018   1.887  15.526  0.3047  0.0601 -0.1175
14337TIP3    H164502   6.072   1.886  15.447  0.4701 -0.5226 -0.0005
14337TIP3    H264503   5.987   1.797  15.535  1.2274 -0.1627  1.1092
14338TIP3   OH264504   4.938   3.957   6.211  0.4582  0.1634  0.1591
14338TIP3    H164505   4.949   4.045   6.247  1.3617  0.7818 -1.5680
14338TIP3    H264506   4.858   3.924   6.253  0.4967  1.5289  1.3459
14339TIP3   OH264507   0.055   1.049  12.222 -0.7120  0.1121 -0.2351
14339TIP3    H164508   0.063   0.976  12.161 -2.5542 -0.4808  0.1771
14339TIP3    H264509   0.133   1.044  12.276 -1.3870 -2.3181  0.5762
14340TIP3   OH264510   4.545   5.275  15.838 -0.0898 -0.2903 -0.4843
14340TIP3    H164511   4.506   5.362  15.844 -1.1530 -0.9080  1.8268
14340TIP3    H264512   4.504   5.236  15.760 -3.0617 -0.3865  1.0696
14341TIP3   OH264513   5.092   0.587   1.075  0.0394  0.1678  0.1414
14341TIP3    H164514   5.030   0.603   1.146  1.4006 -0.1868  1.4255
14341TIP3    H264515   5.043   0.534   1.012 -1.1318  0.3476  0.8869
14342TIP3   OH264516   6.325   0.031  15.893 -0.4548  0.2443  0.3683
14342TIP3    H164517   6.331   0.106  15.834 -1.3494  2.0647  2.5116
14342TIP3    H264518   6.237  -0.004  15.877 -0.1755 -0.1423 -0.3611
14343TIP3   OH264519   0.362   5.437   0.060 -0.1638  0.2719  0.7198
14343TIP3    H164520   0.397   5.521   0.031 -1.4198  0.2205 -1.0239
14343TIP3    H264521   0.433   5.375   0.043 -0.0106  0.6364 -0.0130
14344TIP3   OH264522   2.882   5.175   0.533  0.3895 -0.5855 -0.3874
14344TIP3    H164523   2.811   5.111   0.528 -0.0270 -0.2154  0.5140
14344TIP3    H264524   2.962   5.124   0.530  0.0640 -1.4457  3.3904
14345TIP3   OH264525   2.972   1.966   1.755  0.1885  0.1970 -0.1779
14345TIP3    H164526   2.979   1.908   1.831 -2.9147 -0.7820 -0.5914
14345TIP3    H264527   3.001   1.912   1.681  1.8869  0.7214  0.0785
14346TIP3   OH264528   1.866   1.178   0.587 -0.0585  0.4107 -0.1170
14346TIP3    H164529   1.865   1.128   0.668 -1.6476 -0.4923 -0.6925
14346TIP3    H264530   1.808   1.131   0.528  0.8219  1.2399 -1.6879
14347TIP3   OH264531   2.053   0.844   5.031  0.0488 -0.0845 -0.0364
14347TIP3    H164532   2.065   0.770   4.972  0.3447 -0.7750  0.8608
14347TIP3    H264533   2.046   0.920   4.974 -0.9203 -0.8853 -1.0107
14348TIP3   OH264534   4.884   6.467   4.572  0.0057  0.3137  0.2064
14348TIP3    H164535   4.855   6.514   4.649 -0.8413 -0.8330  0.6058
14348TIP3    H264536   4.896   6.534   4.505  0.2918  1.2579  1.1981
14349TIP3   OH264537   5.184   1.724   0.956 -0.0997 -0.2182  0.5946
14349TIP3    H164538   5.278   1.739   0.954  0.2456 -2.1529  0.9790
14349TIP3    H264539   5.150   1.789   1.017  0.6789  1.9352 -1.2122
14350TIP3   OH264540   4.414   4.500  14.387  0.9858 -0.5717 -0.0153
14350TIP3    H164541   4.437   4.581  14.342 -0.4876  0.2832  0.6917
14350TIP3    H264542   4.438   4.430  14.326 -1.3677  0.5608 -2.3386
14351TIP3   OH264543   1.920   5.614  15.451  0.2876  0.8488  0.6105
14351TIP3    H164544   1.906   5.655  15.366  0.1341  0.9504  0.6848
14351TIP3    H264545   1.988   5.549  15.436  0.6272  1.2276  0.5229
14352TIP3   OH264546   1.059   0.879   2.387  0.6976 -0.0302  0.2168
14352TIP3    H164547   1.152   0.895   2.406  0.3106  1.9505  0.5651
14352TIP3    H264548   1.012   0.924   2.458 -0.6123  2.2004 -2.0082
14353TIP3   OH264549   2.265   6.283  15.138  0.0390  0.5167  0.4172
14353TIP3    H164550   2.291   6.355  15.194 -0.6202  0.5034  0.7463
14353TIP3    H264551   2.245   6.323  15.053  1.0455  0.5347  0.1870
14354TIP3   OH264552   2.484   6.517   1.216 -0.2556  0.4633 -0.5520
14354TIP3    H164553   2.550   6.501   1.283 -0.1207 -0.2767 -0.8614
14354TIP3    H264554   2.517   6.472   1.138 -0.0963  1.8649 -1.3030
14355TIP3   OH264555   2.252   2.922   2.027 -0.3373 -0.0437  0.6577
14355TIP3    H164556   2.281   2.846   1.977 -0.1253  1.0092 -0.8606
14355TIP3    H264557   2.322   2.986   2.016 -1.6147  1.2571 -0.1472
14356TIP3   OH264558   5.561   1.225   0.392  0.2908 -0.1749  0.1070
14356TIP3    H164559   5.492   1.255   0.452 -0.1825  3.2190 -2.0150
14356TIP3    H264560   5.514   1.171   0.328  0.4028 -1.7002  1.2677
14357TIP3   OH264561   0.643   5.485  13.547  0.4854  0.5487  0.5275
14357TIP3    H164562   0.548   5.496  13.548  0.2450 -1.2708  3.4791
14357TIP3    H264563   0.675   5.555  13.490 -2.4940  2.1293  0.7014
14358TIP3   OH264564   6.242   4.245  16.249  0.6152 -0.5511  0.1676
14358TIP3    H164565   6.229   4.188  16.174 -0.0752  0.2967 -0.3622
14358TIP3    H264566   6.154   4.273  16.274  0.8397 -0.7714  1.2552
14359TIP3   OH264567   1.377   5.136   5.109 -0.1985 -0.3584  0.1349
14359TIP3    H164568   1.285   5.156   5.122 -0.1664  0.4842 -0.8645
14359TIP3    H264569   1.391   5.145   5.014  0.1104 -3.9113 -0.2442
14360TIP3   OH264570   5.232   4.759  16.293  0.3773  0.4888 -0.0562
14360TIP3    H164571   5.307   4.733  16.238 -0.2774 -1.5912  0.0154
14360TIP3    H264572   5.195   4.834  16.247  0.9717 -0.0644 -1.4889
14361TIP3   OH264573   3.802   5.787   2.875  0.1251  0.3213  0.5691
14361TIP3    H164574   3.733   5.722   2.889 -0.3035  0.5643 -0.3390
14361TIP3    H264575   3.864   5.772   2.946 -0.4543 -0.4427  0.9262
14362TIP3   OH264576   0.546   2.378  16.637  0.0473 -0.1336  0.4284
14362TIP3    H164577   0.623   2.419  16.676  0.0025  1.2442 -0.8898
14362TIP3    H264578   0.556   2.392  16.543 -1.0933 -1.2220  0.1267
14363TIP3   OH264579   3.722   4.546   3.677 -1.0760 -0.0953  0.2028
14363TIP3    H164580   3.813   4.561   3.650 -1.0445  1.0783  0.8975
14363TIP3    H264581   3.690   4.478   3.618 -0.3220  0.8375 -1.3128
14364TIP3   OH264582   0.965   5.230   4.151 -0.7680 -0.1140  0.1010
14364TIP3    H164583   0.891   5.199   4.098 -0.1981 -1.4409  0.0652
14364TIP3    H264584   1.039   5.177   4.122 -0.3343 -0.4934  1.8490
14365TIP3   OH264585   2.071   2.305  15.556 -0.4394  0.0798 -0.0532
14365TIP3    H164586   2.095   2.214  15.572 -0.6139  0.2226  1.1070
14365TIP3    H264587   2.047   2.339  15.643 -0.5410  1.1783 -0.4990
14366TIP3   OH264588   2.549   4.092   1.789 -0.5650 -0.3881 -0.4774
14366TIP3    H164589   2.558   4.133   1.875 -1.3371  2.2312 -1.6085
14366TIP3    H264590   2.633   4.048   1.774  0.1127  0.4053  0.9534
14367TIP3   OH264591   2.023   2.254   4.502 -0.5877  0.1024  0.1337
14367TIP3    H164592   1.986   2.302   4.428  2.8636  0.6358 -1.3407
14367TIP3    H264593   2.020   2.162   4.475  1.0915  0.3343 -0.9289
14368TIP3   OH264594   3.451   6.170   5.543  0.0972  0.2404 -0.0341
14368TIP3    H164595   3.461   6.096   5.482  1.0803  1.7417 -1.7331
14368TIP3    H264596   3.537   6.178   5.584  0.2301  0.9316 -0.4401
14369TIP3   OH264597   6.230   2.196  13.714 -0.3260  0.3689  0.5317
14369TIP3    H164598   6.310   2.165  13.758  1.5785  2.1440 -1.5372
14369TIP3    H264599   6.238   2.292  13.716 -1.5321  0.5262 -1.2878
14370TIP3   OH264600   4.864   1.446  16.793  0.7213 -0.3009 -0.1338
14370TIP3    H164601   4.823   1.500  16.726  0.3794 -1.3964 -0.8341
14370TIP3    H264602   4.891   1.366  16.747 -2.3747 -2.4693  1.5776
14371TIP3   OH264603   3.160   3.043   1.986  0.2096  0.2082  0.1111
14371TIP3    H164604   3.201   3.123   1.952 -0.4023 -0.3861 -2.1046
14371TIP3    H264605   3.069   3.069   2.003  0.3656  0.3427  0.7705
14372TIP3   OH264606   2.946   5.346   2.999 -0.8150 -0.2808  0.2372
14372TIP3    H164607   3.007   5.301   2.940 -0.8777 -0.7824  0.5442
14372TIP3    H264608   2.996   5.421   3.032 -0.8999  0.2035 -0.7176
14373TIP3   OH264609   3.619   5.760  16.933  0.2296  0.1552 -0.1134
14373TIP3    H164610   3.535   5.752  16.978 -0.0948  0.9656 -0.5542
14373TIP3    H264611   3.621   5.687  16.872  0.4102 -0.6061  0.7775
14374TIP3   OH264612   2.466   2.693   4.884  0.6896  0.5608  0.0647
14374TIP3    H164613   2.519   2.754   4.935  0.6080  0.4616  0.2678
14374TIP3    H264614   2.391   2.674   4.940  1.2729 -0.5990  0.4683
14375TIP3   OH264615   0.895   2.968  12.759 -0.0062  0.0209  0.3900
14375TIP3    H164616   0.840   3.035  12.718  0.8821  0.5019 -0.0429
14375TIP3    H264617   0.975   2.968  12.707  0.7110 -0.1247  1.4661
14376TIP3   OH264618   6.066   3.139   2.573 -0.1029  0.2737 -0.4721
14376TIP3    H164619   6.035   3.142   2.664  2.3247 -0.3077  0.4187
14376TIP3    H264620   6.009   3.075   2.530 -0.9683  0.2069  0.7456
14377TIP3   OH264621   1.255   6.669   4.544  0.2408  0.4507 -0.3970
14377TIP3    H164622   1.349   6.687   4.552  0.4474 -0.4999 -0.6922
14377TIP3    H264623   1.249   6.595   4.484 -0.7057  0.5357 -0.4189
14378TIP3   OH264624   1.539   3.620  13.265  0.1255 -0.0500 -0.2147
14378TIP3    H164625   1.466   3.626  13.327 -0.6236  2.0230 -1.2445
14378TIP3    H264626   1.521   3.540  13.216  0.6534 -1.6456  2.1119
14379TIP3   OH264627   6.287   2.396   3.295 -0.1409  0.6578  0.2981
14379TIP3    H164628   6.271   2.312   3.253 -0.8806  0.4982  0.8873
14379TIP3    H264629   6.325   2.451   3.226 -1.4408  0.4425 -0.6029
14380TIP3   OH264630   5.811   3.072   1.357  0.1886 -0.2648 -0.4618
14380TIP3    H164631   5.780   3.163   1.359  0.5165 -0.1422 -0.9333
14380TIP3    H264632   5.840   3.059   1.267  1.9603 -0.2210  0.0846
14381TIP3   OH264633   3.886   1.064  14.662 -0.2304 -0.0386 -0.2284
14381TIP3    H164634   3.979   1.084  14.656 -0.4242  1.0372  0.2613
14381TIP3    H264635   3.872   1.040  14.754 -0.8045  1.7807  0.1871
14382TIP3   OH264636   2.215   4.294  15.369 -0.2112  0.2143 -0.1857
14382TIP3    H164637   2.194   4.377  15.327  0.6378  0.4114 -0.2281
14382TIP3    H264638   2.259   4.243  15.301  1.4099  0.6311  0.5184
14383TIP3   OH264639   3.853   0.989  16.936  0.6147 -0.2036 -0.1167
14383TIP3    H164640   3.945   0.967  16.921  0.8677 -0.4766  1.7005
14383TIP3    H264641   3.845   0.998  17.031 -1.2992 -0.4454 -0.2190
14384TIP3   OH264642   6.417   1.868   2.798 -0.3528  0.5913 -0.4104
14384TIP3    H164643   6.382   1.927   2.865  1.5052 -0.5759  1.6431
14384TIP3    H264644   6.405   1.780   2.834 -2.3540 -0.2860 -3.0850
14385TIP3   OH264645   6.248   0.985  12.418  0.2369 -0.1194  0.3345
14385TIP3    H164646   6.330   0.997  12.370 -0.0449  0.1079 -0.0919
14385TIP3    H264647   6.275   0.945  12.501  0.5629 -2.0064 -0.6541
14386TIP3   OH264648   2.507   4.072   1.133  0.2737 -0.0652  0.4892
14386TIP3    H164649   2.440   4.141   1.132 -0.9808 -1.2662 -0.4958
14386TIP3    H264650   2.562   4.093   1.209 -1.7886  0.4509  1.8949
14387TIP3   OH264651   0.578   5.824   1.949  0.5686  0.4421 -0.5126
14387TIP3    H164652   0.657   5.797   1.903  0.4712 -0.3131 -0.2295
14387TIP3    H264653   0.584   5.782   2.034 -0.8753 -0.8670 -1.0261
14388TIP3   OH264654   2.799   4.831  15.269 -0.0175 -0.7674 -0.0046
14388TIP3    H164655   2.761   4.867  15.189  0.5469  0.0885  0.1063
14388TIP3    H264656   2.838   4.748  15.242  0.8827 -0.0989 -0.7969
14389TIP3   OH264657   4.164   2.158  16.310  0.2014 -0.2942 -0.4428
14389TIP3    H164658   4.164   2.203  16.226 -4.0030 -0.0310 -0.4203
14389TIP3    H264659   4.182   2.227  16.374 -0.2349  0.2091 -0.8637
14390TIP3   OH264660   6.471   6.819  15.256 -0.2396  0.5431 -0.0154
14390TIP3    H164661   6.457   6.753  15.188 -1.4067 -1.3548  2.0167
14390TIP3    H264662   6.566   6.825  15.263 -0.1106 -0.3378 -0.7929
14391TIP3   OH264663   1.735   6.576   0.220  0.2457  0.1188  0.2126
14391TIP3    H164664   1.656   6.626   0.200 -0.1812 -0.3689  0.6738
14391TIP3    H264665   1.794   6.639   0.261  0.2561  0.5788 -0.5008
14392TIP3   OH264666   3.678   6.092   6.682 -0.2737 -0.0591 -0.1564
14392TIP3    H164667   3.638   6.178   6.695  0.1985  0.2836 -0.9313
14392TIP3    H264668   3.622   6.049   6.618 -0.3893 -0.2422  0.0702
14393TIP3   OH264669   1.716   6.613  15.579 -0.4583  0.3733 -0.5607
14393TIP3    H164670   1.761   6.646  15.501 -0.5968  0.9019 -0.4225
14393TIP3    H264671   1.623   6.626  15.560 -0.4774  0.8049 -0.1747
14394TIP3   OH264672   2.267   3.753  11.235  0.4035 -0.5811  0.5267
14394TIP3    H164673   2.181   3.775  11.199  0.5597  0.9994  1.0534
14394TIP3    H264674   2.329   3.789  11.172  0.6936  3.3792  2.8580
14395TIP3   OH264675   3.041   3.157  11.910  0.4576  0.3361 -0.2188
14395TIP3    H164676   3.008   3.106  11.984  0.1219  1.3987  0.3815
14395TIP3    H264677   2.974   3.149  11.843 -0.5805  1.6824  0.6369
14396TIP3   OH264678   0.614   4.891  13.193 -0.2190  0.1395 -0.7087
14396TIP3    H164679   0.702   4.866  13.166  0.1100  1.0152 -0.4450
14396TIP3    H264680   0.574   4.928  13.114 -0.0529  0.5551 -0.5960
14397TIP3   OH264681   2.116   6.510  10.792  0.1923 -0.9865 -0.2004
14397TIP3    H164682   2.045   6.446  10.795  0.2521 -1.1577 -2.1494
14397TIP3    H264683   2.181   6.476  10.854 -1.5804 -0.5926  1.9213
14398TIP3   OH264684   6.219   5.428   4.141 -0.1374  0.2597  0.2243
14398TIP3    H164685   6.173   5.423   4.058 -0.9914 -0.0741  0.7060
14398TIP3    H264686   6.289   5.363   4.134 -1.2658 -1.0063  0.3936
14399TIP3   OH264687   3.910   0.183  13.139  0.0160  0.0345  0.1348
14399TIP3    H164688   3.839   0.242  13.165  0.2449 -0.4428  1.9105
14399TIP3    H264689   3.988   0.223  13.177  0.9451  1.2744 -2.9229
14400TIP3   OH264690   6.383   0.200   1.349 -0.1179  0.5976 -0.5133
14400TIP3    H164691   6.376   0.156   1.264  0.8638  1.4604 -1.0445
14400TIP3    H264692   6.474   0.186   1.376 -0.0917  1.3804 -0.1798
14401TIP3   OH264693   2.009   4.072  16.264 -0.2361 -0.0322 -0.0214
14401TIP3    H164694   1.945   4.141  16.245  0.9060  0.5463 -1.8949
14401TIP3    H264695   1.962   3.990  16.248 -0.3967  0.3900 -1.7737
14402TIP3   OH264696   4.972   0.374  16.896 -0.3411 -0.5823 -0.1329
14402TIP3    H164697   4.964   0.435  16.822  2.5394  2.0686  1.6276
14402TIP3    H264698   5.048   0.320  16.874  0.7042  0.4056  0.9557
14403TIP3   OH264699   0.416   6.058   3.184 -0.3790  0.6683 -0.3794
14403TIP3    H164700   0.421   6.002   3.107 -0.4943  0.5623 -0.3096
14403TIP3    H264701   0.465   6.137   3.160  1.8738 -0.4476  0.3802
14404TIP3   OH264702   3.930   5.308   2.429  0.3429 -0.7989 -0.3870
14404TIP3    H164703   3.945   5.296   2.335  0.2378 -0.1364 -0.4971
14404TIP3    H264704   3.946   5.402   2.443 -3.8357  0.0614 -0.5528
14405TIP3   OH264705   5.223   0.670   3.310 -0.0002 -0.0046 -0.1049
14405TIP3    H164706   5.234   0.681   3.216  1.7164 -0.6472  0.0097
14405TIP3    H264707   5.226   0.759   3.345  0.6917  0.1418 -0.5304
14406TIP3   OH264708   6.200   2.875  16.125 -0.0105  0.5526  0.6132
14406TIP3    H164709   6.214   2.825  16.206  2.6147  1.5339  0.8260
14406TIP3    H264710   6.193   2.966  16.154  0.7429  0.8863 -0.2407
14407TIP3   OH264711   3.620   2.611  16.355 -0.0124 -0.4476 -0.0641
14407TIP3    H164712   3.644   2.660  16.434 -1.7265 -0.4160  0.4557
14407TIP3    H264713   3.543   2.560  16.381  0.9107 -2.3516 -1.0165
14408TIP3   OH264714   0.680   3.963  13.702 -0.5666  0.2731  0.9808
14408TIP3    H164715   0.758   3.930  13.746  0.8537  0.0617 -1.6180
14408TIP3    H264716   0.688   4.059  13.707  0.9784  0.2875 -1.0962
14409TIP3   OH264717   5.225   1.984   6.228  0.5343 -0.1084 -0.0801
14409TIP3    H164718   5.175   2.049   6.179 -0.7286 -1.3118 -0.4165
14409TIP3    H264719   5.316   2.007   6.213  0.1448  0.1690 -2.1343
14410TIP3   OH264720   6.732   4.232   1.478  0.1012  0.3493 -0.0201
14410TIP3    H164721   6.768   4.253   1.565  1.1103  1.6776 -0.7409
14410TIP3    H264722   6.773   4.296   1.420  0.2312 -1.2218 -1.6665
14411TIP3   OH264723   3.158   1.512  15.864  0.0994 -0.7053  0.2835
14411TIP3    H164724   3.159   1.459  15.784  0.7627 -0.2230 -0.0318
14411TIP3    H264725   3.153   1.447  15.935  1.2254 -1.2218 -0.0897
14412TIP3   OH264726   4.024   3.480   5.732  0.0193  0.0532  0.6917
14412TIP3    H164727   3.997   3.409   5.675 -0.7661  1.0456 -0.1865
14412TIP3    H264728   4.028   3.441   5.819  1.2573 -1.4734 -0.0246
14413TIP3   OH264729   2.945   4.578   3.431 -0.1249  0.4753  0.0305
14413TIP3    H164730   2.862   4.625   3.430  0.5414  1.8095  2.3327
14413TIP3    H264731   2.976   4.581   3.341 -2.5428  0.0161 -0.8224
14414TIP3   OH264732   2.622   1.646   3.075  0.5801 -0.1315  0.8444
14414TIP3    H164733   2.553   1.675   3.134 -0.1186  0.2981 -0.1546
14414TIP3    H264734   2.619   1.551   3.079  0.8349 -0.1000  1.8282
14415TIP3   OH264735   6.723   6.119   2.939  0.1013  0.3538  0.5818
14415TIP3    H164736   6.666   6.163   2.876  0.4389  0.2732  0.2156
14415TIP3    H264737   6.811   6.132   2.904  0.2359 -0.2438  0.6972
14416TIP3   OH264738   0.554   0.568   4.155 -0.0742 -0.1290  0.2513
14416TIP3    H164739   0.522   0.496   4.210 -0.3123  1.1649  1.8376
14416TIP3    H264740   0.631   0.602   4.201  0.7471 -0.1009 -1.0895
14417TIP3   OH264741   5.112   5.802   2.707  0.2937 -0.6254  0.9262
14417TIP3    H164742   5.079   5.713   2.714 -2.3732  0.3282  0.8903
14417TIP3    H264743   5.147   5.808   2.618 -3.4065 -0.4171 -0.5912
14418TIP3   OH264744   5.331   2.541  12.430 -0.0780 -0.2541  0.2324
14418TIP3    H164745   5.305   2.475  12.366  0.3220 -0.2816  0.0945
14418TIP3    H264746   5.252   2.592  12.446 -0.3898 -0.7651  0.3381
14419TIP3   OH264747   1.039   6.051   4.886  0.0315  0.4054 -0.5634
14419TIP3    H164748   1.070   6.141   4.897  1.0164  0.1817 -1.4505
14419TIP3    H264749   0.948   6.060   4.858 -0.3454  1.0898  0.8169
14420TIP3   OH264750   3.042   5.442   5.434  0.3243  0.0107 -0.2559
14420TIP3    H164751   3.086   5.371   5.386 -0.1914 -0.2864 -0.2958
14420TIP3    H264752   2.950   5.433   5.409 -0.1424 -0.8917  1.7238
14421TIP3   OH264753   3.609   3.709  15.296 -0.7257 -0.3551  0.2839
14421TIP3    H164754   3.514   3.700  15.309 -1.2188  1.2019 -1.8862
14421TIP3    H264755   3.618   3.789  15.244  1.9847  0.9424  2.6199
14422TIP3   OH264756   1.042   6.689   6.314  0.2154 -0.6298 -0.0694
14422TIP3    H164757   1.093   6.647   6.384  1.5874  0.7024 -0.2422
14422TIP3    H264758   0.958   6.709   6.355  1.2165  0.6834  1.4237
14423TIP3   OH264759   5.318   4.696   4.706  0.0447  0.0042  0.3706
14423TIP3    H164760   5.315   4.755   4.630  0.2762 -1.0893 -0.5096
14423TIP3    H264761   5.226   4.673   4.721 -0.1619  1.4195  1.4020
14424TIP3   OH264762   0.587   2.496   4.573  0.0425 -0.0573  0.2568
14424TIP3    H164763   0.572   2.500   4.668  1.3932 -3.0093  0.6620
14424TIP3    H264764   0.682   2.493   4.564  0.0905  4.2838 -1.4602
14425TIP3   OH264765   1.855   4.334   1.901 -0.3460 -0.6333  0.0502
14425TIP3    H164766   1.819   4.292   1.978 -0.0155 -0.3070  0.3841
14425TIP3    H264767   1.857   4.265   1.834  0.8386 -1.3413  0.7940
14426TIP3   OH264768   2.425   4.495   5.655  0.2502 -0.0991  0.2018
14426TIP3    H164769   2.488   4.424   5.646  1.2119  0.7909 -0.2181
14426TIP3    H264770   2.470   4.572   5.620 -1.4236  0.3532 -1.0253
14427TIP3   OH264771   0.596   6.438   2.691 -0.0900 -0.1026  0.0045
14427TIP3    H164772   0.511   6.420   2.649  0.7070 -1.3703 -1.1302
14427TIP3    H264773   0.623   6.522   2.654 -0.2033 -0.3831 -0.7415
14428TIP3   OH264774   0.445   1.977  11.139 -1.0960  0.3254 -0.3747
14428TIP3    H164775   0.455   1.926  11.059 -0.5735  1.0050 -0.7545
14428TIP3    H264776   0.522   2.034  11.141 -2.2062  1.8674 -0.5270
14429TIP3   OH264777   1.250   4.096  12.259  0.9155 -0.5614  0.5825
14429TIP3    H164778   1.290   4.178  12.286 -0.3862  0.5412 -0.7998
14429TIP3    H264779   1.207   4.063  12.338  1.0208  0.3303  1.0156
14430TIP3   OH264780   6.697   4.060   2.229  0.3284 -0.4530 -0.3213
14430TIP3    H164781   6.624   4.059   2.289  0.9907 -0.7263  0.4893
14430TIP3    H264782   6.665   4.107   2.152  0.1037  1.6429  1.0300
14431TIP3   OH264783   6.539   2.145   3.464  0.4618  0.4259 -0.0802
14431TIP3    H164784   6.558   2.233   3.434  0.3730  0.2190 -0.7525
14431TIP3    H264785   6.496   2.156   3.549 -1.6057  1.1119 -1.1913
14432TIP3   OH264786   4.607   5.934  12.513 -0.4659  0.2373 -0.4864
14432TIP3    H164787   4.549   5.989  12.461 -0.8082 -2.1612 -2.7389
14432TIP3    H264788   4.549   5.866  12.549  0.3229  0.0254  0.4178
14433TIP3   OH264789   0.854   2.247  12.103  0.1268 -0.2370 -0.0567
14433TIP3    H164790   0.842   2.186  12.030  0.2125  0.2933 -0.5204
14433TIP3    H264791   0.911   2.201  12.164 -0.8751 -1.1359  0.2086
14434TIP3   OH264792   0.625   4.783   2.964  0.2080  0.0382 -0.3093
14434TIP3    H164793   0.592   4.834   2.889 -1.7246 -0.0997  0.3990
14434TIP3    H264794   0.634   4.694   2.931 -1.4085 -0.1849 -0.1994
14435TIP3   OH264795   1.932   3.831   1.188 -0.3716  0.1222  0.0642
14435TIP3    H164796   1.918   3.771   1.262 -0.2514  0.6568  0.5287
14435TIP3    H264797   1.997   3.788   1.134 -1.6000 -0.9951 -0.5393
14436TIP3   OH264798   4.386   6.380  16.777  0.1532 -0.1966  0.3474
14436TIP3    H164799   4.407   6.377  16.683  0.0694 -0.7749  0.3478
14436TIP3    H264800   4.364   6.472  16.793  1.4302  0.1663  0.0809
14437TIP3   OH264801   6.067   6.659   0.487  0.0077 -0.3938 -0.1181
14437TIP3    H164802   6.094   6.577   0.528 -1.4253 -0.8693 -0.1053
14437TIP3    H264803   6.026   6.633   0.405 -1.2913  0.2370  0.3179
14438TIP3   OH264804   5.608   5.895   1.989 -0.3559  0.3722  0.3948
14438TIP3    H164805   5.681   5.843   2.023 -0.4093  0.0999  0.1000
14438TIP3    H264806   5.554   5.913   2.066 -0.8089 -0.7726  0.3545
14439TIP3   OH264807   3.247   4.334   0.308  0.5922  0.2140  0.7639
14439TIP3    H164808   3.328   4.296   0.340 -1.1337 -0.8552  4.1081
14439TIP3    H264809   3.230   4.407   0.368 -1.5128 -0.3218  0.8560
14440TIP3   OH264810   1.243   3.890  12.587  0.1851  0.4651  0.0916
14440TIP3    H164811   1.257   3.796  12.599 -0.2638  0.3080 -0.5649
14440TIP3    H264812   1.239   3.902  12.492 -1.8865  0.8240  0.2040
14441TIP3   OH264813   4.978   3.995   0.163  0.4239  0.0318  0.1556
14441TIP3    H164814   5.037   3.920   0.168  1.3390  0.7015 -0.4030
14441TIP3    H264815   5.000   4.048   0.239 -0.3156 -0.3187  0.6240
14442TIP3   OH264816   1.784   5.249   0.315 -0.1838  0.8956  0.1168
14442TIP3    H164817   1.866   5.208   0.289 -1.5389 -2.4378  0.8435
14442TIP3    H264818   1.805   5.294   0.397  0.8149 -0.3234  0.5500
14443TIP3   OH264819   3.944   1.819   3.056 -0.3092 -0.4365  0.0311
14443TIP3    H164820   3.869   1.878   3.065  0.0860  0.5366 -2.4894
14443TIP3    H264821   4.015   1.876   3.027  0.7455 -1.7591 -0.0221
14444TIP3   OH264822   0.587   4.560  13.999  0.1541 -0.0419  0.0216
14444TIP3    H164823   0.629   4.643  13.976 -0.0829 -0.4495 -1.9105
14444TIP3    H264824   0.561   4.571  14.091  0.0435  2.0424 -0.2467
14445TIP3   OH264825   1.214   2.231   4.433  0.1125  0.2692 -0.2098
14445TIP3    H164826   1.280   2.298   4.419  1.1301 -0.9309 -1.3152
14445TIP3    H264827   1.153   2.242   4.360  0.3156 -0.0298 -0.4290
14446TIP3   OH264828   0.900   2.796   4.745 -0.3572  0.3523  0.4558
14446TIP3    H164829   0.951   2.815   4.823 -1.5305  1.5780  0.9383
14446TIP3    H264830   0.959   2.819   4.672 -0.5670  2.8247  1.0092
14447TIP3   OH264831   0.389   2.843   2.460  0.4528  0.6224  0.6022
14447TIP3    H164832   0.412   2.750   2.465  3.9110  1.4586  2.0536
14447TIP3    H264833   0.338   2.860   2.539 -0.1738 -0.0597  0.3397
14448TIP3   OH264834   3.529   5.892  16.137  0.1456  0.2396  0.8347
14448TIP3    H164835   3.562   5.803  16.152 -0.4447 -0.0526  0.4355
14448TIP3    H264836   3.512   5.895  16.042  0.1691  0.7769  0.8510
14449TIP3   OH264837   3.714   2.892   5.350  0.5862  0.1859 -0.2886
14449TIP3    H164838   3.623   2.908   5.329  0.4275 -0.7215 -0.3261
14449TIP3    H264839   3.711   2.844   5.433  1.0235  0.1125 -0.3119
14450TIP3   OH264840   1.831   3.490  14.359  0.3246 -0.6691 -0.0077
14450TIP3    H164841   1.856   3.520  14.272 -0.5662  1.0355  0.3134
14450TIP3    H264842   1.739   3.465  14.349  0.2386 -0.5212  0.4357
14451TIP3   OH264843   2.978   5.227  12.721  0.5678 -0.4037 -0.2706
14451TIP3    H164844   3.008   5.144  12.684  0.6155  0.4325 -2.1499
14451TIP3    H264845   2.884   5.214  12.733  0.4998 -0.5845 -0.9623
14452TIP3   OH264846   3.420   4.611  15.229  0.5023  0.2766 -0.4484
14452TIP3    H164847   3.387   4.536  15.179 -1.4250  1.0976 -0.4599
14452TIP3    H264848   3.452   4.574  15.311  1.2371 -0.7689 -1.2021
14453TIP3   OH264849   3.414   2.933  13.622  0.1755  0.5699  0.0352
14453TIP3    H164850   3.455   2.997  13.565 -0.6375  1.4380  0.4063
14453TIP3    H264851   3.439   2.848  13.585  0.8810  1.0994 -0.7259
14454TIP3   OH264852   2.784   6.320   3.806  0.0703 -0.4154  0.0672
14454TIP3    H164853   2.876   6.297   3.795  0.6918  2.6887 -1.9652
14454TIP3    H264854   2.780   6.360   3.893  1.0476  1.0152 -0.5232
14455TIP3   OH264855   2.342   3.711   4.187 -0.1446 -0.2264  0.5781
14455TIP3    H164856   2.315   3.783   4.130 -1.1563 -1.2648 -0.2742
14455TIP3    H264857   2.397   3.656   4.131  1.1681  0.2271  1.4151
14456TIP3   OH264858   3.613   5.372  14.998 -0.2717 -0.6072  0.2840
14456TIP3    H164859   3.638   5.343  14.910  0.4741 -0.6438  0.5087
14456TIP3    H264860   3.520   5.350  15.005 -1.0364  1.7688 -1.4917
14457TIP3   OH264861   5.204   1.872  15.038 -0.1616 -0.7101  0.3711
14457TIP3    H164862   5.278   1.834  14.992  1.7633  1.8294  1.2780
14457TIP3    H264863   5.196   1.820  15.118  3.7739  1.8694  2.6236
14458TIP3   OH264864   5.315   3.638   2.774 -0.1400 -0.1311  0.5199
14458TIP3    H164865   5.338   3.658   2.865  1.1521 -0.7655  0.3416
14458TIP3    H264866   5.249   3.703   2.751  1.0591  1.3703  1.2424
14459TIP3   OH264867   3.456   5.565  16.807  0.1017 -0.2341  0.1267
14459TIP3    H164868   3.418   5.636  16.756  0.3436 -0.6725 -0.6760
14459TIP3    H264869   3.469   5.494  16.743  0.7283 -0.6621  0.7269
14460TIP3   OH264870   4.526   5.755  13.755 -0.3632 -0.1385  0.3021
14460TIP3    H164871   4.591   5.684  13.754 -0.0413  0.1403 -2.4693
14460TIP3    H264872   4.445   5.712  13.780 -0.6308 -1.9966 -3.3818
14461TIP3   OH264873   1.915   2.629  10.978 -0.0091 -0.2352  0.2610
14461TIP3    H164874   1.997   2.666  11.012  0.2996 -1.9441  1.4594
14461TIP3    H264875   1.850   2.698  10.992  0.7026  0.1706  1.6844
14462TIP3   OH264876   2.545   0.013   3.505 -0.0192  0.0358  0.1405
14462TIP3    H164877   2.512  -0.072   3.475  1.6947  0.0858 -2.0104
14462TIP3    H264878   2.638  -0.002   3.521  0.0912  1.2775  0.7010
14463TIP3   OH264879   6.034   4.845  16.125  0.6559  0.3140 -0.2798
14463TIP3    H164880   5.987   4.886  16.197  0.2642  0.4421 -0.6021
14463TIP3    H264881   6.126   4.850  16.150  0.5067  0.2059  0.2880
14464TIP3   OH264882   6.188   2.939  14.497  0.3859 -0.6518 -0.1256
14464TIP3    H164883   6.214   2.946  14.405 -1.1238 -0.9267 -0.5899
14464TIP3    H264884   6.245   3.000  14.543  1.0105 -0.3580 -1.2773
14465TIP3   OH264885   6.564   1.208  15.807  0.3012 -0.3467  0.0007
14465TIP3    H164886   6.573   1.113  15.798  0.2039 -0.2922 -0.6655
14465TIP3    H264887   6.480   1.220  15.851  1.3063 -0.6582  2.0458
14466TIP3   OH264888   2.861   0.049  13.322  0.3946  0.2174  0.1905
14466TIP3    H164889   2.896   0.059  13.234 -2.6261  1.3913 -0.9272
14466TIP3    H264890   2.922   0.098  13.377  2.1474 -0.2914 -1.2488
14467TIP3   OH264891   1.258   3.442  16.746  0.0246 -0.0521  0.4340
14467TIP3    H164892   1.310   3.470  16.671  0.6286  1.1650  1.2845
14467TIP3    H264893   1.196   3.514  16.760  0.5585  0.1976  1.6773
14468TIP3   OH264894   0.888   5.378  14.992  0.3684  0.2017 -0.2127
14468TIP3    H164895   0.900   5.470  15.019  1.0916  0.2765 -0.7924
14468TIP3    H264896   0.973   5.337  15.009  0.5319  0.0155 -1.4528
14469TIP3   OH264897   1.283   4.689   4.503 -0.1847 -0.0528  0.4345
14469TIP3    H164898   1.366   4.724   4.470  0.0388 -0.4014  0.6251
14469TIP3    H264899   1.292   4.594   4.496 -0.4086 -0.1049  0.8321
14470TIP3   OH264900   5.618   2.609   1.804 -0.0201  0.4722 -0.0916
14470TIP3    H164901   5.644   2.700   1.814 -1.2503  0.5054  3.2088
14470TIP3    H264902   5.523   2.609   1.812  0.0321 -1.1962  0.8756
14471TIP3   OH264903   5.548   6.074  11.926 -0.5447  0.4289 -0.1054
14471TIP3    H164904   5.505   5.994  11.956  0.9614 -0.9825 -1.5698
14471TIP3    H264905   5.635   6.071  11.966 -0.6489  1.5730  0.2103
14472TIP3   OH264906   6.678   6.383   0.409  0.2457 -1.0975  0.3375
14472TIP3    H164907   6.765   6.409   0.378 -1.0828  2.7650 -0.4093
14472TIP3    H264908   6.627   6.371   0.329 -1.1944  1.5604  0.7988
14473TIP3   OH264909   3.674   6.484  16.729  0.0310 -0.1796  0.4140
14473TIP3    H164910   3.579   6.494  16.734  0.0902  1.2935 -1.1578
14473TIP3    H264911   3.691   6.457  16.639  1.2864  1.9092 -0.0136
14474TIP3   OH264912   5.547   1.436  11.458  0.3732  0.3484 -1.0538
14474TIP3    H164913   5.534   1.341  11.456 -0.4657  0.4714 -2.2660
14474TIP3    H264914   5.520   1.462  11.546  1.5491 -0.6599 -0.3786
14475TIP3   OH264915   3.997   2.405  12.123  0.0042  0.2614 -0.2035
14475TIP3    H164916   3.942   2.347  12.070  1.8535 -1.4084 -0.3838
14475TIP3    H264917   4.021   2.476  12.064  0.7542 -0.7590 -1.1453
14476TIP3   OH264918   3.148   6.194   5.273 -0.3795 -0.4286  0.2182
14476TIP3    H164919   3.207   6.119   5.266 -0.8323 -0.8239  0.5074
14476TIP3    H264920   3.168   6.232   5.359  1.6355  1.3390 -1.0136
14477TIP3   OH264921   0.846   6.808   4.780 -0.2568  0.8329 -0.0442
14477TIP3    H164922   0.884   6.737   4.727 -0.2008  0.1686  0.8820
14477TIP3    H264923   0.848   6.775   4.869 -0.9083  1.7183  0.3035
14478TIP3   OH264924   1.424   1.711  16.322 -0.7162 -0.5405 -0.1978
14478TIP3    H164925   1.362   1.712  16.396 -0.9278  0.8460 -0.3858
14478TIP3    H264926   1.496   1.767  16.350 -0.2048 -1.0171 -0.5502
14479TIP3   OH264927   0.582   4.614  15.192  0.4210  0.3170  0.2526
14479TIP3    H164928   0.578   4.551  15.119 -1.8726 -0.1505  0.7493
14479TIP3    H264929   0.602   4.560  15.268 -0.2107  0.3661  0.4570
14480TIP3   OH264930   2.343   1.162  13.362 -0.0622  0.2669 -0.0463
14480TIP3    H164931   2.287   1.232  13.330 -3.7340 -2.8213 -0.7189
14480TIP3    H264932   2.367   1.112  13.284  1.4932  0.0198  0.5613
14481TIP3   OH264933   2.507   2.861  15.962 -0.1645  0.3499  0.3437
14481TIP3    H164934   2.511   2.778  16.010  0.5065  0.2014  0.0328
14481TIP3    H264935   2.551   2.844  15.880  0.2070  1.0936  0.3852
14482TIP3   OH264936   1.129   5.712   5.465  0.0423 -0.3586  0.1743
14482TIP3    H164937   1.057   5.750   5.515 -0.0830  1.3839 -1.2491
14482TIP3    H264938   1.202   5.708   5.526 -0.1237  1.6717  0.5469
14483TIP3   OH264939   5.304   1.479   2.803 -0.0092  0.4689 -0.0643
14483TIP3    H164940   5.354   1.399   2.785  2.2130  2.1276 -1.5098
14483TIP3    H264941   5.360   1.531   2.859 -2.2044  0.3064  2.3956
14484TIP3   OH264942   4.701   1.580   1.039 -0.3861 -0.1026  0.2568
14484TIP3    H164943   4.719   1.649   0.975 -0.6677 -0.5133 -0.2712
14484TIP3    H264944   4.607   1.586   1.056 -0.3486 -0.1266  0.4836
14485TIP3   OH264945   5.495   3.447  10.287 -0.2929  0.2634  0.2864
14485TIP3    H164946   5.522   3.392  10.361 -0.8896 -0.7256 -0.2279
14485TIP3    H264947   5.428   3.505  10.324  0.5872  0.9154  0.9122
14486TIP3   OH264948   0.725   5.566   0.792 -0.3739  0.1992  0.2816
14486TIP3    H164949   0.667   5.518   0.733  0.6596  1.1501 -1.5674
14486TIP3    H264950   0.678   5.648   0.810 -0.3265  0.2815  0.0477
14487TIP3   OH264951   1.648   6.818   1.378 -0.0587 -0.0019 -0.3091
14487TIP3    H164952   1.707   6.815   1.453 -0.2186  0.3417 -0.1686
14487TIP3    H264953   1.690   6.762   1.312 -0.6790 -1.5241  0.5793
14488TIP3   OH264954   0.462   6.409   6.432  0.4979  0.5108 -0.2708
14488TIP3    H164955   0.463   6.505   6.425 -0.9813  0.5519 -0.0967
14488TIP3    H264956   0.425   6.392   6.518  2.5322 -0.2007  0.4683
14489TIP3   OH264957   2.676   5.469  10.935 -0.6193  0.3623 -0.4583
14489TIP3    H164958   2.675   5.481  10.840 -0.5040 -1.5137 -0.7099
14489TIP3    H264959   2.633   5.385  10.948  0.0550  0.2563  1.1072
14490TIP3   OH264960   6.110   0.877  10.539  0.0442 -0.3197 -0.1947
14490TIP3    H164961   6.031   0.927  10.517 -0.1471 -1.5637 -2.5181
14490TIP3    H264962   6.093   0.790  10.503  2.8420 -0.3652 -1.5066
14491TIP3   OH264963   0.889   5.485  16.409 -0.5634 -0.1960  0.1476
14491TIP3    H164964   0.799   5.456  16.392  0.3629 -1.2870 -3.1161
14491TIP3    H264965   0.917   5.528  16.328  2.3065 -1.0152  0.6396
14492TIP3   OH264966   1.926   5.590   0.874 -0.5846 -0.2745 -0.3531
14492TIP3    H164967   1.877   5.671   0.860 -1.6884 -0.4459  2.2545
14492TIP3    H264968   1.860   5.521   0.868 -0.3220 -0.6729  1.2239
14493TIP3   OH264969   1.688   4.572  17.071 -0.1998 -0.2637 -0.0369
14493TIP3    H164970   1.717   4.595  17.159  1.4571 -0.7405 -0.4423
14493TIP3    H264971   1.734   4.633  17.013 -0.4680 -0.6467 -0.6632
14494TIP3   OH264972   2.465   5.100   0.580 -0.6356 -0.6876  0.2704
14494TIP3    H164973   2.532   5.032   0.588  0.1335 -0.1145 -1.0918
14494TIP3    H264974   2.476   5.153   0.659  0.4005 -0.7091  0.1479
14495TIP3   OH264975   0.555   2.740   4.077 -0.1627  0.4450  0.6489
14495TIP3    H164976   0.471   2.697   4.061 -0.4504  1.2622  0.0048
14495TIP3    H264977   0.607   2.672   4.122 -0.2725 -0.9200 -1.2298
14496TIP3   OH264978   6.291   5.844  13.890  0.2022  0.7815  0.1984
14496TIP3    H164979   6.203   5.880  13.895  0.7743  2.1024  0.9738
14496TIP3    H264980   6.301   5.795  13.972  0.3658  1.0302  0.3257
14497TIP3   OH264981   0.235   4.541  11.739 -0.6698 -0.1739 -0.0003
14497TIP3    H164982   0.158   4.510  11.787  0.0280 -1.3279  0.3749
14497TIP3    H264983   0.296   4.467  11.740  0.5526  0.8179 -0.0888
14498TIP3   OH264984   5.150   2.500   3.638 -0.4228  0.3424 -0.0556
14498TIP3    H164985   5.183   2.588   3.659  0.7421 -0.1468  0.2221
14498TIP3    H264986   5.153   2.495   3.543 -0.7614  0.7042 -0.0870
14499TIP3   OH264987   4.552   4.615  16.660 -0.1348 -0.2346  0.0910
14499TIP3    H164988   4.510   4.686  16.709 -2.2169 -0.5211 -1.2047
14499TIP3    H264989   4.480   4.574  16.611  1.5288 -1.3519 -1.4794
14500TIP3   OH264990   6.372   3.978  12.187  0.3026 -0.0755  0.2456
14500TIP3    H164991   6.293   3.948  12.144  0.7699  0.3488 -0.9315
14500TIP3    H264992   6.371   4.073  12.177  0.6981 -0.0172  0.6950
14501TIP3   OH264993   3.569   4.888  15.110  0.8546 -0.1961 -0.3840
14501TIP3    H164994   3.619   4.963  15.078 -1.9231  0.9104 -2.3772
14501TIP3    H264995   3.581   4.820  15.044 -0.2628  0.1003 -0.9133
14502TIP3   OH264996   6.065   6.446  12.323 -0.6175 -0.3977 -0.5990
14502TIP3    H164997   6.068   6.540  12.341 -1.2954 -0.8047  1.8515
14502TIP3    H264998   6.153   6.415  12.343 -0.8934 -0.5676  0.3762
14503TIP3   OH264999   1.484   3.753  11.049  0.3743 -0.2119  0.0031
14503TIP3    H165000   1.507   3.816  10.981  2.3896 -0.4229  0.4617
14503TIP3    H265001   1.521   3.670  11.018 -1.1666 -0.9326  0.0099
14504TIP3   OH265002   2.087   0.531  12.964  0.1781 -0.3200 -0.3729
14504TIP3    H165003   2.038   0.480  13.028  0.4843 -2.0184 -1.4497
14504TIP3    H265004   2.029   0.604  12.942  0.1133  0.3569  1.8798
14505TIP3   OH265005   3.357   6.751   5.550 -0.2594 -0.9051  0.4631
14505TIP3    H165006   3.350   6.704   5.467  2.0354 -0.9052  0.2417
14505TIP3    H265007   3.442   6.726   5.584  0.1620  1.5459  1.2939
14506TIP3   OH265008   6.136   4.283  13.214  0.3078  0.0747  0.4761
14506TIP3    H165009   6.111   4.371  13.240 -0.2633  0.1171 -0.2297
14506TIP3    H265010   6.088   4.226  13.274 -1.0165  0.1745 -0.4697
14507TIP3   OH265011   3.087   6.423  16.286  0.0476  0.0194 -0.5743
14507TIP3    H165012   3.030   6.382  16.221  0.0350  0.4184 -0.8196
14507TIP3    H265013   3.028   6.453  16.355  0.1431 -1.1237  0.0115
14508TIP3   OH265014   4.194   5.412  11.772 -0.1055 -0.1451 -0.0738
14508TIP3    H165015   4.227   5.497  11.804  1.5366 -0.5625 -0.6117
14508TIP3    H265016   4.258   5.348  11.805 -0.7415 -1.0513 -0.5959
14509TIP3   OH265017   3.288   0.740  14.377  0.1723  0.1015  0.8020
14509TIP3    H165018   3.275   0.811  14.439  0.0569 -0.1548  1.0742
14509TIP3    H265019   3.362   0.769  14.322  1.0403 -0.1687  1.8076
14510TIP3   OH265020   0.141   3.437  13.731 -0.2398 -0.3026 -0.5706
14510TIP3    H165021   0.068   3.379  13.753  0.8457 -0.1725  3.8565
14510TIP3    H265022   0.210   3.379  13.701 -0.0355 -1.1111  1.3885
14511TIP3   OH265023   4.982   5.484   0.524  0.5134 -0.4273 -0.1010
14511TIP3    H165024   5.049   5.522   0.467  1.7888 -2.2980  0.1093
14511TIP3    H265025   4.966   5.551   0.591  0.2582  1.0884 -1.6313
14512TIP3   OH265026   2.734   4.040   5.670 -0.1866  0.1345  0.0053
14512TIP3    H165027   2.722   3.952   5.708 -2.3494 -0.1289 -1.2013
14512TIP3    H265028   2.816   4.034   5.623  0.2654 -0.8989  0.8901
14513TIP3   OH265029   2.228   6.818  12.753 -0.6250  0.6020  0.6395
14513TIP3    H165030   2.189   6.896  12.715 -0.3415  0.1459 -0.6245
14513TIP3    H265031   2.158   6.752  12.748 -0.3487  0.3379  0.2221
14514TIP3   OH265032   4.510   1.670  17.168  0.2075 -0.2646  0.1042
14514TIP3    H165033   4.499   1.695  17.259  1.3379  0.0184  0.1725
14514TIP3    H265034   4.421   1.671  17.132  0.0357  2.3258  0.5110
14515TIP3   OH265035   5.972   3.976  11.301 -0.3783  0.2911 -0.3219
14515TIP3    H165036   5.941   4.008  11.216 -1.0035  1.9117  0.4952
14515TIP3    H265037   6.067   3.972  11.292 -0.5222 -0.7915 -1.5083
14516TIP3   OH265038   2.016   0.237   6.671  0.4685 -0.0570  0.2260
14516TIP3    H165039   2.090   0.199   6.718  0.7155  1.1365  0.8188
14516TIP3    H265040   1.957   0.268   6.740 -0.7353 -1.2714 -0.2413
14517TIP3   OH265041   0.170   5.817   4.120  0.0009 -0.3364 -0.0343
14517TIP3    H165042   0.153   5.776   4.036 -1.5133 -2.0485  1.0602
14517TIP3    H265043   0.083   5.843   4.152  0.5014 -0.1548  1.2181
14518TIP3   OH265044   0.065   5.343  15.229 -0.3291 -0.1817 -0.0410
14518TIP3    H165045   0.071   5.410  15.297  0.5965 -0.3584  0.0581
14518TIP3    H265046   0.046   5.262  15.276  1.5408 -0.5400  0.1627
14519TIP3   OH265047   0.216   1.239   0.169 -0.4402 -0.2335 -0.0495
14519TIP3    H165048   0.236   1.146   0.172 -0.6159 -0.2395  1.5724
14519TIP3    H265049   0.276   1.275   0.104  0.8208 -1.2015  0.5631
14520TIP3   OH265050   1.026   2.788  12.051  0.0907  0.1268 -0.2842
14520TIP3    H165051   1.080   2.732  12.106 -1.0403 -0.0612  0.6579
14520TIP3    H265052   1.077   2.799  11.971  0.5412 -1.8589 -0.3056
14521TIP3   OH265053   4.355   6.474  16.292 -0.3571 -0.8107  0.3404
14521TIP3    H165054   4.429   6.531  16.273  0.0430 -1.2200  0.6482
14521TIP3    H265055   4.282   6.511  16.242  0.6526 -1.8279 -1.9394
14522TIP3   OH265056   2.471   4.557  11.835  0.4302  0.9286 -0.5965
14522TIP3    H165057   2.539   4.566  11.769 -0.5518  0.4211 -1.6955
14522TIP3    H265058   2.469   4.463  11.854  0.7899  1.0833  0.2611
14523TIP3   OH265059   1.945   3.518   2.525  0.7346  0.4944 -0.6128
14523TIP3    H165060   1.996   3.460   2.469  1.0311  0.5032 -0.3570
14523TIP3    H265061   2.006   3.543   2.594 -0.3006 -1.4910  1.1039
14524TIP3   OH265062   4.174   2.440  11.089 -0.3986 -0.0228  0.4612
14524TIP3    H165063   4.198   2.396  11.008 -1.7023  0.8274 -0.4021
14524TIP3    H265064   4.233   2.515  11.095 -1.1708  0.6667 -0.3952
14525TIP3   OH265065   5.590   2.008  16.929 -0.3410 -0.0502 -0.4619
14525TIP3    H165066   5.577   2.036  17.020  1.1170  0.4704 -0.4023
14525TIP3    H265067   5.510   2.035  16.884 -0.0407  1.9391  0.1442
14526TIP3   OH265068   1.702   2.450   3.236 -0.0637  0.2541 -0.2345
14526TIP3    H165069   1.629   2.501   3.270  0.7320  2.1078 -1.2925
14526TIP3    H265070   1.708   2.473   3.144 -1.0164 -3.3432 -1.2943
14527TIP3   OH265071   5.458   3.522  12.815 -0.2001  0.1373  0.3880
14527TIP3    H165072   5.475   3.504  12.907 -1.0433  1.4254  0.8037
14527TIP3    H265073   5.491   3.610  12.801  2.0580 -0.8957 -1.1374
14528TIP3   OH265074   1.174   0.929  15.741 -0.0443 -1.0728  0.1535
14528TIP3    H165075   1.169   1.014  15.697 -0.4413 -0.0843  2.0388
14528TIP3    H265076   1.253   0.888  15.706 -1.4741 -1.2441 -3.0349
14529TIP3   OH265077   1.908   0.877   1.696 -0.4397  0.9404 -0.5048
14529TIP3    H165078   1.918   0.922   1.612  1.8460  0.1520 -0.6909
14529TIP3    H265079   1.933   0.787   1.678 -1.1059  0.4909  0.7620
14530TIP3   OH265080   6.056   0.451   4.914 -0.0407 -0.2738 -0.1470
14530TIP3    H165081   6.125   0.384   4.920 -1.1504 -1.3252  0.9743
14530TIP3    H265082   5.974   0.402   4.920 -0.8943  1.0674 -0.6076
14531TIP3   OH265083   4.396   3.847   5.015  0.6556  0.4978  0.0424
14531TIP3    H165084   4.447   3.858   5.095 -1.1564  0.2831  1.2617
14531TIP3    H265085   4.391   3.934   4.977  0.0645  0.9447  1.1037
14532TIP3   OH265086   5.296   0.929   3.376 -0.1804 -0.2112  0.0945
14532TIP3    H165087   5.226   0.995   3.375 -0.2962 -0.3185  0.8556
14532TIP3    H265088   5.367   0.969   3.326 -0.6255  0.0739 -0.3214
14533TIP3   OH265089   2.560   6.636   0.015  0.7526  0.2393  0.4807
14533TIP3    H165090   2.492   6.573  -0.008  1.4203 -0.0880 -0.6547
14533TIP3    H265091   2.517   6.721   0.010 -0.0141 -0.0858  1.4865
14534TIP3   OH265092   3.184   3.974  14.574  0.2523  0.3214  0.1461
14534TIP3    H165093   3.172   4.002  14.483 -1.4335 -1.2719 -0.1408
14534TIP3    H265094   3.120   4.027  14.624 -1.0252 -1.0330 -0.0310
14535TIP3   OH265095   2.799   2.388  16.814  0.3632 -0.2283 -0.0538
14535TIP3    H165096   2.793   2.383  16.909  0.0387 -0.3461 -0.0781
14535TIP3    H265097   2.735   2.324  16.782 -0.6210  0.8915 -0.3611
14536TIP3   OH265098   6.319   6.024   3.797  0.0429  0.5421 -0.1430
14536TIP3    H165099   6.387   6.038   3.731  0.4517  0.9491  0.3650
14536TIP3    H265100   6.342   6.084   3.868 -1.1292  1.0529 -0.1876
14537TIP3   OH265101   1.903   4.343  10.798  0.2735  0.4138 -0.1487
14537TIP3    H165102   1.894   4.412  10.864  0.1451  0.2189  0.0409
14537TIP3    H265103   1.854   4.269  10.834 -0.9441  0.7497 -1.1049
14538TIP3   OH265104   6.769   5.100  11.127  0.6743 -0.0370  0.1554
14538TIP3    H165105   6.723   5.174  11.087 -0.0963 -0.9775 -0.7108
14538TIP3    H265106   6.861   5.127  11.128  0.5492  0.4778 -1.1868
14539TIP3   OH265107   0.120   2.673   2.362  0.1732  0.8973  0.5474
14539TIP3    H165108   0.140   2.646   2.452  0.4044 -0.7152  0.0353
14539TIP3    H265109   0.072   2.755   2.372  2.1704  1.9495  2.0422
14540TIP3   OH265110   4.529   1.831   3.547 -0.2517  0.1230  0.4252
14540TIP3    H165111   4.518   1.909   3.494 -0.9948 -0.5033 -0.3516
14540TIP3    H265112   4.623   1.821   3.556 -0.1582  2.2930  2.3067
14541TIP3   OH265113   1.624   2.189   4.897 -0.4591 -0.0713  0.2110
14541TIP3    H165114   1.539   2.181   4.853  0.6178 -0.7938 -1.8273
14541TIP3    H265115   1.673   2.251   4.842  0.5293 -0.1182  1.0361
14542TIP3   OH265116   2.077   5.438  17.173 -0.4325 -0.2943  0.0063
14542TIP3    H165117   2.134   5.362  17.156  1.5349  1.2637 -0.5581
14542TIP3    H265118   2.084   5.451  17.267  2.2900  1.4643 -0.3756
14543TIP3   OH265119   3.131   5.978  11.163  0.0013  0.1396 -0.4541
14543TIP3    H165120   3.134   6.070  11.138 -2.6195  0.0381 -1.2818
14543TIP3    H265121   3.153   5.930  11.083  0.3841  0.0210 -0.2788
14544TIP3   OH265122   6.326   3.966   2.366  0.2509  0.7877 -0.1779
14544TIP3    H165123   6.305   3.889   2.312  0.1787  0.2597  0.5963
14544TIP3    H265124   6.248   3.979   2.420 -0.5193  2.5965 -1.6842
14545TIP3   OH265125   0.528   4.812   2.110 -0.2097 -0.5351 -0.2197
14545TIP3    H165126   0.473   4.890   2.123  0.3281 -0.3411  0.8913
14545TIP3    H265127   0.485   4.765   2.038 -1.5154 -0.0884  0.2485
14546TIP3   OH265128   3.040   6.786   5.661 -0.8369 -0.4105 -0.0432
14546TIP3    H165129   2.983   6.802   5.585 -0.2424 -2.1849 -0.8904
14546TIP3    H265130   2.980   6.757   5.730 -1.3177  0.6681 -0.0049
14547TIP3   OH265131   3.675   5.399   2.753 -0.0324 -0.9026 -0.1295
14547TIP3    H165132   3.677   5.455   2.676  0.3961 -2.0701 -0.9877
14547TIP3    H265133   3.646   5.456   2.824 -0.9815  0.0528 -1.2633
14548TIP3   OH265134   3.689   6.327  14.303  0.2048 -0.0195 -0.0448
14548TIP3    H165135   3.681   6.240  14.342 -1.6793 -1.0405 -2.5716
14548TIP3    H265136   3.637   6.384  14.360  0.0099 -0.8823  0.6527
14549TIP3   OH265137   2.748   3.822   5.823 -0.0816  0.1724 -0.5551
14549TIP3    H165138   2.715   3.835   5.912  2.1024  2.1804  0.0056
14549TIP3    H265139   2.806   3.747   5.830 -0.9977 -0.5526 -0.6042
14550TIP3   OH265140   0.573   1.300  16.188  0.0821  0.2806 -0.0788
14550TIP3    H165141   0.634   1.346  16.245  0.7887 -0.5213 -0.1794
14550TIP3    H265142   0.524   1.369  16.144  0.7517  0.9219  0.1865
14551TIP3   OH265143   1.982   5.510  11.908 -0.7667  0.1195 -0.0114
14551TIP3    H165144   1.998   5.435  11.851  1.4654  1.6908 -1.5456
14551TIP3    H265145   2.041   5.497  11.982 -1.0732 -0.1303  0.1869
14552TIP3   OH265146   0.100   4.546   4.407  0.5915 -0.2275  0.1107
14552TIP3    H165147   0.099   4.565   4.313 -0.4128 -0.7966  0.0025
14552TIP3    H265148   0.046   4.467   4.417 -1.8546  1.5579  1.5290
14553TIP3   OH265149   0.559   1.927  14.195 -0.9011 -0.3249  0.3231
14553TIP3    H165150   0.594   1.965  14.114 -0.4504 -0.2086  0.5749
14553TIP3    H265151   0.601   1.977  14.265  0.7073 -2.1461  0.6933
14554TIP3   OH265152   1.687   4.100  12.165  0.2355 -0.0508 -0.4356
14554TIP3    H165153   1.649   4.173  12.115  1.0415  0.5587 -0.1610
14554TIP3    H265154   1.735   4.049  12.100 -0.2802 -0.3051 -0.6188
14555TIP3   OH265155   6.764   2.232   1.969 -0.2644  0.2270 -0.6943
14555TIP3    H165156   6.853   2.215   1.936 -0.3676 -0.0747 -0.8096
14555TIP3    H265157   6.762   2.191   2.055 -0.2134  0.4435 -0.5890
14556TIP3   OH265158   3.711   2.776  13.139 -0.0458 -0.1379  0.5112
14556TIP3    H165159   3.803   2.791  13.162 -0.6460  1.3624  2.0638
14556TIP3    H265160   3.693   2.687  13.170  1.0931 -0.7257 -0.4949
14557TIP3   OH265161   3.006   2.113   6.303 -0.1780  0.0991 -0.2100
14557TIP3    H165162   2.970   2.158   6.227 -0.3740  0.5178  0.1261
14557TIP3    H265163   3.101   2.117   6.291 -0.2175 -0.1824 -0.6273
14558TIP3   OH265164   5.994   6.077   1.653 -0.0250 -0.2152  0.1584
14558TIP3    H165165   5.946   6.050   1.574  0.1860 -1.2805  0.3892
14558TIP3    H265166   6.073   6.023   1.653  0.1145 -0.0120  0.9471
14559TIP3   OH265167   4.125   5.138   0.816  0.4173 -0.0530  0.1955
14559TIP3    H165168   4.207   5.188   0.817  1.0796 -1.1143  0.0248
14559TIP3    H265169   4.149   5.051   0.849 -0.6701 -0.3387  0.2736
14560TIP3   OH265170   1.864   4.354  15.105  0.3465 -0.3564  0.3960
14560TIP3    H165171   1.840   4.427  15.162  1.2472  0.2823 -0.0218
14560TIP3    H265172   1.808   4.364  15.029 -1.5423 -1.7779  1.5776
14561TIP3   OH265173   6.336   1.896   5.226 -0.1173 -0.6591 -0.0156
14561TIP3    H165174   6.266   1.832   5.240 -1.6445  0.6017 -1.6349
14561TIP3    H265175   6.291   1.980   5.224  1.5005  0.2139 -0.7591
14562TIP3   OH265176   3.445   3.906   5.741  0.1372 -0.0771  0.3427
14562TIP3    H165177   3.454   3.899   5.836 -3.3815 -0.3560  0.7291
14562TIP3    H265178   3.363   3.954   5.728 -0.2376 -1.3724 -2.5492
14563TIP3   OH265179   5.864   3.810  16.705  0.0885  0.4705  0.5698
14563TIP3    H165180   5.805   3.884  16.722  0.6485  1.3102 -0.9909
14563TIP3    H265181   5.950   3.841  16.732 -0.0557 -0.4881  2.1546
14564TIP3   OH265182   4.761   6.047  15.858  0.1243 -0.4499  0.3507
14564TIP3    H165183   4.742   6.039  15.765 -1.3228 -2.1052  0.7422
14564TIP3    H265184   4.856   6.059  15.863  0.3895 -1.6637 -1.2877
14565TIP3   OH265185   6.190   6.182   4.743 -0.4449  0.0037 -0.2904
14565TIP3    H165186   6.119   6.142   4.793  0.4592 -2.4256 -0.8850
14565TIP3    H265187   6.157   6.188   4.653 -1.0977  1.9418  0.0594
14566TIP3   OH265188   1.041   1.649  12.251  0.4310 -0.1202 -0.2343
14566TIP3    H165189   1.006   1.723  12.200 -0.2947 -1.1931 -1.3392
14566TIP3    H265190   0.965   1.615  12.298  0.2416 -1.6001 -1.5615
14567TIP3   OH265191   2.126   4.774  17.220 -0.1475 -0.5806 -0.7871
14567TIP3    H165192   2.093   4.684  17.216 -0.7101 -0.3682 -1.0210
14567TIP3    H265193   2.082   4.818  17.148 -1.4934  0.4092  0.6039
14568TIP3   OH265194   0.727   0.160   2.993  0.5415 -0.0787  0.3368
14568TIP3    H165195   0.791   0.232   2.996 -0.8506  1.1412  1.1908
14568TIP3    H265196   0.681   0.173   2.909  0.1501  0.1669  0.5861
14569TIP3   OH265197   1.060   4.978  13.546 -0.1731  0.2341 -0.7972
14569TIP3    H165198   1.045   4.898  13.496 -3.8447  0.7090 -0.6221
14569TIP3    H265199   1.105   5.037  13.485  2.3896 -1.8538 -0.9860
14570TIP3   OH265200   2.955   6.500   4.369  0.1259 -0.1484  0.5025
14570TIP3    H165201   2.892   6.522   4.438 -2.8886 -0.3309 -2.0611
14570TIP3    H265202   2.947   6.405   4.358  0.4566 -0.1062 -0.1653
14571TIP3   OH265203   5.194   5.214   0.789 -0.0217  0.1405  0.0417
14571TIP3    H165204   5.249   5.148   0.747  0.6658  0.8777 -0.2412
14571TIP3    H265205   5.241   5.297   0.774  0.0082  0.4701  1.8550
14572TIP3   OH265206   2.953   5.579   1.648 -0.1761 -0.1443  0.1555
14572TIP3    H165207   2.908   5.509   1.695 -1.0294  0.8082  0.7758
14572TIP3    H265208   3.014   5.615   1.712 -0.6133  0.4827  0.2249
14573TIP3   OH265209   1.893   5.872   0.877  0.1933  0.1733  0.6592
14573TIP3    H165210   1.960   5.926   0.835 -0.1048  0.5507  0.6668
14573TIP3    H265211   1.889   5.904   0.967 -0.5855  0.7143  0.4380
14574TIP3   OH265212   3.569   6.740  12.262 -0.6511 -0.5145  0.4330
14574TIP3    H165213   3.524   6.709  12.184 -1.4271 -0.8401  1.0008
14574TIP3    H265214   3.548   6.834  12.266  1.6775  0.1230 -1.2716
14575TIP3   OH265215   6.329   5.450  13.521  0.4307  0.6292  0.1887
14575TIP3    H165216   6.270   5.424  13.450  2.1434 -2.4849 -0.1503
14575TIP3    H265217   6.416   5.448  13.481  1.1290  1.7384  1.6297
14576TIP3   OH265218   3.154   3.706   0.036 -0.4269  0.0074 -0.3737
14576TIP3    H165219   3.153   3.800   0.016 -0.6026  0.1289  0.1888
14576TIP3    H265220   3.200   3.700   0.120 -1.6670 -0.2694  0.2984
14577TIP3   OH265221   3.418   5.151  13.297 -0.8909 -0.8166 -0.0741
14577TIP3    H165222   3.513   5.136  13.293 -0.6828  0.0923  1.2798
14577TIP3    H265223   3.383   5.069  13.333 -0.8462 -1.8874 -2.3657
14578TIP3   OH265224   0.808   2.593  16.669 -0.5835 -0.3293 -0.5691
14578TIP3    H165225   0.887   2.538  16.667  0.7982  1.6333 -1.0637
14578TIP3    H265226   0.791   2.607  16.762 -0.7388 -1.2568 -0.4455
14579TIP3   OH265227   2.252   3.815   2.321 -0.0504 -0.4836  0.0895
14579TIP3    H165228   2.183   3.799   2.386  0.0505  1.4214  0.6923
14579TIP3    H265229   2.204   3.829   2.239 -0.3876  0.5583  0.4541
14580TIP3   OH265230   2.194   1.147   3.703 -0.3130  0.1135  0.0009
14580TIP3    H165231   2.172   1.200   3.780  1.3633  0.9705 -0.0839
14580TIP3    H265232   2.128   1.170   3.638  0.0376  1.6363  0.1776
14581TIP3   OH265233   3.319   6.193  13.120 -0.1314  0.4886 -0.8786
14581TIP3    H165234   3.300   6.213  13.212  1.6543  1.5661 -0.7291
14581TIP3    H265235   3.295   6.101  13.111 -1.5395  0.7190  0.3340
14582TIP3   OH265236   1.061   5.295   1.075  0.0638  0.0951  0.8164
14582TIP3    H165237   1.096   5.379   1.104  0.6552 -0.1222  0.7538
14582TIP3    H265238   1.016   5.314   0.993 -0.4336  0.4760  1.1825
14583TIP3   OH265239   2.235   2.037   5.054  0.2081 -0.6872  0.3143
14583TIP3    H165240   2.209   2.030   5.146 -1.9144  0.8519 -0.1041
14583TIP3    H265241   2.256   2.130   5.042 -0.1970 -0.7404 -0.9019
14584TIP3   OH265242   4.781   6.421  11.867 -0.1698 -0.2247  0.2310
14584TIP3    H165243   4.797   6.471  11.947  0.4157  3.4796 -2.0745
14584TIP3    H265244   4.857   6.364  11.858  1.7633  2.2936  0.2231
14585TIP3   OH265245   0.470   0.981   1.104  0.1329 -0.0493  0.3453
14585TIP3    H165246   0.379   0.983   1.075  0.0267  0.2178  0.6857
14585TIP3    H265247   0.520   1.013   1.029 -0.1858  1.1588  0.6333
14586TIP3   OH265248   5.275   4.828  12.536  0.4139  0.2075 -0.2900
14586TIP3    H165249   5.209   4.794  12.596  0.0690 -0.4138 -1.0153
14586TIP3    H265250   5.280   4.921  12.558  0.8807 -0.1662  1.2359
14587TIP3   OH265251   0.802   3.832  14.742 -0.3204 -0.2144  0.5171
14587TIP3    H165252   0.881   3.802  14.697  0.2866 -0.1094  1.4934
14587TIP3    H265253   0.730   3.789  14.696  0.3678 -0.9989  0.1584
14588TIP3   OH265254   5.381   6.103   2.595 -0.1660 -0.1332  0.5877
14588TIP3    H165255   5.476   6.109   2.581 -0.1679  1.9982  1.3193
14588TIP3    H265256   5.372   6.042   2.667  0.8801  1.9444  2.5494
14589TIP3   OH265257   3.822   6.460   3.353 -0.0778 -0.0090 -0.2059
14589TIP3    H165258   3.751   6.510   3.311 -0.6537  0.3843  1.2082
14589TIP3    H265259   3.883   6.441   3.282 -1.1067  0.5216 -1.2535
14590TIP3   OH265260   3.477   0.482  14.473  0.1732  0.0920  0.3500
14590TIP3    H165261   3.521   0.397  14.480  1.2212  0.6918  1.0440
14590TIP3    H265262   3.542   0.539  14.433 -0.2557  0.7715  0.6223
14591TIP3   OH265263   4.817   2.989   0.655  0.0306 -0.3462 -0.0394
14591TIP3    H165264   4.822   2.970   0.749  2.0913 -0.7256 -0.1943
14591TIP3    H265265   4.776   2.912   0.617 -1.7030  0.2112  0.6442
14592TIP3   OH265266   2.964   1.757   5.902  0.3430 -0.7552  0.0933
14592TIP3    H165267   3.037   1.696   5.917  1.0271 -0.2568 -1.1744
14592TIP3    H265268   2.904   1.739   5.975  1.5820 -1.3730  0.9990
14593TIP3   OH265269   0.816   1.694  10.580  0.3345  0.5709 -0.5503
14593TIP3    H165270   0.848   1.611  10.546  1.0115  0.9298 -0.7924
14593TIP3    H265271   0.872   1.713  10.655  1.3460  1.6788 -1.5578
14594TIP3   OH265272   0.660   1.831   2.581  0.3947 -0.3953 -0.3420
14594TIP3    H165273   0.707   1.751   2.603  1.1932 -0.4093 -2.0158
14594TIP3    H265274   0.668   1.887   2.658  3.2441 -0.3523 -0.6478
14595TIP3   OH265275   6.697   5.898  13.405 -0.3098  0.1782  0.1184
14595TIP3    H165276   6.634   5.828  13.425 -2.6723  1.5308 -2.3795
14595TIP3    H265277   6.740   5.869  13.324  0.0687  0.7252  0.1204
14596TIP3   OH265278   0.926   5.412  14.076  0.3761  0.0036  0.3813
14596TIP3    H165279   1.005   5.427  14.025 -0.1443  1.7057  0.0272
14596TIP3    H265280   0.877   5.347  14.026  1.7568 -1.4382  0.8590
14597TIP3   OH265281   1.811   4.151  13.657  0.1302 -0.1742 -0.1308
14597TIP3    H165282   1.753   4.224  13.634  0.9145  0.3737 -0.3697
14597TIP3    H265283   1.863   4.136  13.578  2.0955  1.0156  0.9278
14598TIP3   OH265284   5.888   0.972  13.860 -0.2264 -0.5218  0.0274
14598TIP3    H165285   5.940   1.053  13.853  0.3610 -0.8263  0.7840
14598TIP3    H265286   5.870   0.948  13.769  0.7594 -0.2769 -0.2471
14599TIP3   OH265287   2.717   5.058  14.353 -0.3336 -0.2466  0.1697
14599TIP3    H165288   2.656   5.127  14.328 -1.1366 -0.9881  0.0469
14599TIP3    H265289   2.803   5.090  14.325 -0.9293 -0.0974 -1.5232
14600TIP3   OH265290   4.921   6.654  12.752 -0.1293 -0.0365 -0.1855
14600TIP3    H165291   4.979   6.724  12.721  2.4867 -1.2393  1.8780
14600TIP3    H265292   4.922   6.589  12.682  0.1098  0.4696 -0.6565
14601TIP3   OH265293   0.328   6.647   3.337 -0.8371  0.2385 -0.2347
14601TIP3    H165294   0.251   6.599   3.368  1.4394 -2.0519  2.1854
14601TIP3    H265295   0.357   6.698   3.412  2.0242 -1.6895  0.0661
14602TIP3   OH265296   5.377   3.679   4.653 -0.0353 -0.4704  0.3728
14602TIP3    H165297   5.453   3.736   4.643 -1.6737  1.4887 -1.5291
14602TIP3    H265298   5.401   3.598   4.609 -0.1315  1.2653 -3.0209
14603TIP3   OH265299   3.428   1.623   5.263 -0.1055  0.6295 -0.5287
14603TIP3    H165300   3.487   1.648   5.192  1.0789 -0.3967  0.0727
14603TIP3    H265301   3.401   1.705   5.303  2.1531  1.0878  0.1557
14604TIP3   OH265302   1.981   0.939  15.411 -0.0304  0.0574 -0.3597
14604TIP3    H165303   2.004   1.030  15.428  0.2070  0.0212 -0.4856
14604TIP3    H265304   2.030   0.916  15.332 -1.7147  0.4531 -1.5464
14605TIP3   OH265305   4.640   0.748  12.745 -0.1786  0.2008 -0.2387
14605TIP3    H165306   4.560   0.709  12.781 -0.2604  0.1010 -0.5253
14605TIP3    H265307   4.698   0.674  12.728  0.3626  0.3641  0.9154
14606TIP3   OH265308   0.734   3.930  12.370  0.3920 -0.3259  0.3893
14606TIP3    H165309   0.695   3.974  12.446  0.3361 -0.3139  0.3538
14606TIP3    H265310   0.690   3.968  12.294 -0.3251 -1.1177  0.4009
14607TIP3   OH265311   1.854   6.462  15.241 -0.5059 -0.4514  0.1830
14607TIP3    H165312   1.864   6.384  15.187  3.1214  0.9817 -1.3463
14607TIP3    H265313   1.827   6.531  15.180 -0.7788  0.1811  0.9990
14608TIP3   OH265314   2.482   3.766   5.719  0.2000  0.5917  0.8998
14608TIP3    H165315   2.575   3.781   5.735  0.1569  0.0189  1.6601
14608TIP3    H265316   2.471   3.671   5.725 -0.0628  0.4471 -1.1814
14609TIP3   OH265317   1.174   0.755  16.253 -0.3243  0.3006 -0.4431
14609TIP3    H165318   1.145   0.808  16.328  2.0535 -0.2772  0.9310
14609TIP3    H265319   1.184   0.817  16.182  1.2706  1.5498  0.8277
14610TIP3   OH265320   0.127   5.637  16.285 -0.2997 -0.1810  0.3205
14610TIP3    H165321   0.207   5.616  16.237 -0.1054  2.7033 -0.7400
14610TIP3    H265322   0.118   5.567  16.349  1.0928 -2.5014 -1.9322
14611TIP3   OH265323   3.678   5.733  11.172 -0.0999 -0.0433  0.3379
14611TIP3    H165324   3.719   5.773  11.249  0.2359 -0.4882  0.3964
14611TIP3    H265325   3.740   5.665  11.145 -0.1358  0.2251 -0.4285
14612TIP3   OH265326   6.392   5.484   4.568  0.1836  0.0553  0.2650
14612TIP3    H165327   6.460   5.467   4.503 -2.4176 -1.5681 -2.1738
14612TIP3    H265328   6.437   5.530   4.639  3.6039 -0.2172 -1.6214
14613TIP3   OH265329   3.360   6.694  12.480  1.0618 -0.1386  0.4909
14613TIP3    H165330   3.416   6.761  12.519  2.1882 -1.6419  1.4995
14613TIP3    H265331   3.391   6.686  12.390  0.1103  1.5307 -0.0273
14614TIP3   OH265332   3.372   0.259   1.912  0.2876 -0.2068 -0.9719
14614TIP3    H165333   3.419   0.229   1.834 -0.6398 -1.5379 -1.0439
14614TIP3    H265334   3.416   0.216   1.985 -0.7653 -1.4504 -1.0391
14615TIP3   OH265335   2.752   2.620  10.724  0.4086  0.5131  0.1004
14615TIP3    H165336   2.668   2.579  10.741  0.5922  0.1995  0.2695
14615TIP3    H265337   2.735   2.714  10.725  0.1736  0.4627  0.7149
14616TIP3   OH265338   3.708   6.196   4.497 -0.0264  0.7855 -0.0499
14616TIP3    H165339   3.759   6.273   4.521 -0.0873  0.3459  1.5907
14616TIP3    H265340   3.755   6.158   4.423 -1.1816  3.5539 -2.2513
14617TIP3   OH265341   4.518   1.937  17.050 -0.4678  1.0266  1.3655
14617TIP3    H165342   4.435   1.972  17.081 -1.2915  0.1102  0.2074
14617TIP3    H265343   4.501   1.844  17.035  0.1776  1.2473 -0.8747
14618TIP3   OH265344   5.910   1.981   4.894  0.2767  0.3780  0.1619
14618TIP3    H165345   5.829   2.012   4.935  0.5151  1.0897  0.1086
14618TIP3    H265346   5.903   1.886   4.896 -0.2096  0.4226  0.8599
14619TIP3   OH265347   2.129   5.483  16.713 -0.4131  0.2447  0.0580
14619TIP3    H165348   2.207   5.492  16.659 -2.2629 -0.5503 -2.9065
14619TIP3    H265349   2.144   5.403  16.764  0.7837  0.1880 -0.3700
14620TIP3   OH265350   4.741   5.826  16.520 -0.3230  0.1344  0.5576
14620TIP3    H165351   4.826   5.789  16.542  1.1974  1.3468 -2.9370
14620TIP3    H265352   4.701   5.762  16.461 -1.8075 -0.3316  2.0091
14621TIP3   OH265353   2.767   5.621   5.721 -0.6771  0.5782 -0.3238
14621TIP3    H165354   2.685   5.594   5.678 -1.8536  2.5623  0.5861
14621TIP3    H265355   2.744   5.626   5.814  0.9202 -0.3682  0.1331
14622TIP3   OH265356   2.203   4.271   3.016  0.1204  0.2204 -0.3232
14622TIP3    H165357   2.174   4.341   2.959  1.1923  0.0915 -1.0365
14622TIP3    H265358   2.200   4.192   2.962  1.1707  0.0992 -0.2226
14623TIP3   OH265359   1.214   1.929  15.694  0.2447  0.1626 -0.1744
14623TIP3    H165360   1.135   1.981  15.709  0.0972  0.9014 -3.2085
14623TIP3    H265361   1.260   1.976  15.624  1.9030 -1.8668 -0.4727
14624TIP3   OH265362   5.493   3.940  13.587 -0.4417  0.2864 -0.4414
14624TIP3    H165363   5.406   3.969  13.612 -0.1016  0.7945  0.1738
14624TIP3    H265364   5.550   3.969  13.659  0.4694  1.3660 -1.5569
14625TIP3   OH265365   4.651   2.774  12.670 -0.2457  0.0934 -0.1301
14625TIP3    H165366   4.714   2.761  12.742  0.4333 -2.3297 -1.0978
14625TIP3    H265367   4.702   2.755  12.591 -1.8324 -0.5072 -1.0197
14626TIP3   OH265368   2.657   4.415   5.399 -0.4131  0.2636  0.7247
14626TIP3    H165369   2.624   4.393   5.312  0.5426  1.3990  0.0544
14626TIP3    H265370   2.674   4.509   5.395  1.2282  0.0258  1.5962
14627TIP3   OH265371   6.265   4.547  13.654 -0.6494  0.7841  0.6385
14627TIP3    H165372   6.221   4.615  13.706 -1.2844 -0.0959  1.2662
14627TIP3    H265373   6.272   4.585  13.567  2.4193  3.1783  1.8358
14628TIP3   OH265374   3.900   3.912   0.429  0.6817  0.3458 -0.0334
14628TIP3    H165375   3.864   3.984   0.480 -0.2119  0.5540 -0.9345
14628TIP3    H265376   3.902   3.944   0.339 -0.7239 -1.1201 -0.6162
14629TIP3   OH265377   3.929   1.156  12.695  0.0795 -0.1932 -0.1827
14629TIP3    H165378   3.996   1.093  12.670 -0.4790 -0.8608 -0.0080
14629TIP3    H265379   3.944   1.232  12.638  1.8364  0.2089  0.7852
14630TIP3   OH265380   3.819   5.486   1.771 -0.3330  0.1074  0.1645
14630TIP3    H165381   3.892   5.433   1.803 -0.4708  0.3773  0.9304
14630TIP3    H265382   3.836   5.574   1.806 -0.5020  0.3940 -0.4713
14631TIP3   OH265383   1.367   2.176  14.482  0.3366 -0.4712 -0.7247
14631TIP3    H165384   1.277   2.206  14.472  0.5523  0.2463 -0.5570
14631TIP3    H265385   1.374   2.100  14.424 -0.9151 -1.6966  0.6928
14632TIP3   OH265386   6.558   3.413   5.375  0.0343  0.1767 -0.6867
14632TIP3    H165387   6.579   3.420   5.468 -2.5854  0.4215 -0.0871
14632TIP3    H265388   6.495   3.483   5.359 -1.1195 -1.1712 -2.1708
14633TIP3   OH265389   4.096   4.261  15.867  0.5350  0.1827 -0.0204
14633TIP3    H165390   4.077   4.261  15.773 -0.7630  1.2068  0.2360
14633TIP3    H265391   4.014   4.285  15.909  1.1831  0.0371  1.3730
14634TIP3   OH265392   3.110   4.557   2.902  0.1071  0.3961  0.5227
14634TIP3    H165393   3.077   4.549   2.812  0.8922  0.5292  0.2187
14634TIP3    H265394   3.169   4.632   2.899  0.0107  0.4960  1.1865
14635TIP3   OH265395   2.154   5.140   3.154 -0.0822  0.3802  0.1671
14635TIP3    H165396   2.192   5.189   3.227 -0.1223  1.5096 -0.5657
14635TIP3    H265397   2.106   5.068   3.196  0.7638  0.4170  1.2024
14636TIP3   OH265398   5.773   1.116   2.900  0.1191 -0.4068  0.2945
14636TIP3    H165399   5.739   1.110   2.811 -0.5652 -1.6738  0.6329
14636TIP3    H265400   5.789   1.210   2.913 -1.0427 -0.0582 -0.6846
14637TIP3   OH265401   4.674   2.660   6.603 -0.7531  0.3501 -0.0170
14637TIP3    H165402   4.723   2.711   6.538  0.0513  1.1145  1.1718
14637TIP3    H265403   4.697   2.569   6.584 -1.1211  0.5059 -1.2806
14638TIP3   OH265404   2.331   3.866   5.908 -0.3180 -0.0792 -0.1344
14638TIP3    H165405   2.371   3.952   5.915  1.8884 -1.2192  2.1909
14638TIP3    H265406   2.392   3.814   5.856  1.3700 -1.7977  3.3317
14639TIP3   OH265407   6.557   1.738  16.620  0.5296 -0.0539  0.0113
14639TIP3    H165408   6.629   1.794  16.591 -0.9033  1.6055 -0.4084
14639TIP3    H265409   6.480   1.771  16.573 -0.9061 -0.4912  1.9603
14640TIP3   OH265410   5.531   4.109  17.082 -0.1845  0.4788 -0.0340
14640TIP3    H165411   5.480   4.034  17.052  0.4319  0.3452 -0.7761
14640TIP3    H265412   5.562   4.084  17.169 -0.6690  0.2153  0.0644
14641TIP3   OH265413   4.041   0.225  12.898  0.2105 -0.0396 -0.0924
14641TIP3    H165414   4.014   0.162  12.964 -0.9014  1.4036  0.8915
14641TIP3    H265415   4.016   0.310  12.935 -0.2393  0.8242 -2.2570
14642TIP3   OH265416   1.174   3.206  16.578  0.0631  0.4767  0.7080
14642TIP3    H165417   1.260   3.248  16.570 -0.6210  2.0786  1.7291
14642TIP3    H265418   1.138   3.209  16.489 -0.0939  2.2989  0.8181
14643TIP3   OH265419   2.400   6.239   0.070 -0.3863  0.0024  0.7854
14643TIP3    H165420   2.396   6.290   0.151 -0.9682  0.3471  0.5382
14643TIP3    H265421   2.494   6.230   0.052 -0.2674  0.3039  1.2584
14644TIP3   OH265422   0.660   5.326  12.385 -0.5615 -0.4225  0.0259
14644TIP3    H165423   0.626   5.374  12.309 -2.2305 -1.7030 -0.0792
14644TIP3    H265424   0.690   5.243  12.349  1.8832  0.3339  0.2717
14645TIP3   OH265425   0.753   6.002  11.444 -0.0170 -0.0280 -0.7762
14645TIP3    H165426   0.836   6.019  11.488  1.1002 -0.2049 -2.7590
14645TIP3    H265427   0.712   6.088  11.436 -0.6904 -0.1252  1.4798
14646TIP3   OH265428   5.598   6.382  14.147  0.2216  0.1003 -0.4170
14646TIP3    H165429   5.551   6.423  14.075  0.3365 -1.2188 -1.2649
14646TIP3    H265430   5.657   6.319  14.105  2.8161  1.7429  0.5852
14647TIP3   OH265431   5.702   2.363   2.797 -0.5950  0.5761  0.4609
14647TIP3    H165432   5.706   2.437   2.736  0.2461  0.1599  0.0115
14647TIP3    H265433   5.669   2.401   2.878 -0.0984  1.4556  0.2556
14648TIP3   OH265434   3.381   2.333  14.147  0.4354 -0.3133  0.1548
14648TIP3    H165435   3.379   2.387  14.067  1.9811 -0.7619 -0.2190
14648TIP3    H265436   3.441   2.261  14.125  0.2527 -0.8752  1.4579
14649TIP3   OH265437   2.635   3.674   4.750 -0.1073  0.0051 -0.2630
14649TIP3    H165438   2.644   3.612   4.678 -1.1403  0.2234 -0.5991
14649TIP3    H265439   2.693   3.746   4.728  2.5591 -1.6406  1.0557
14650TIP3   OH265440   3.410   4.272   5.678  0.2244  0.5044  0.1732
14650TIP3    H165441   3.432   4.220   5.755  2.2349  0.4629 -0.4185
14650TIP3    H265442   3.422   4.213   5.604 -0.2934  0.9775 -0.2967
14651TIP3   OH265443   5.358   2.850  11.129 -0.3228 -0.2597  0.4534
14651TIP3    H165444   5.388   2.838  11.220 -1.3020  0.1083  0.8330
14651TIP3    H265445   5.262   2.844  11.135 -0.2701 -3.1709 -0.9998
14652TIP3   OH265446   6.754   3.397  14.049  0.2097 -0.7281  0.0102
14652TIP3    H165447   6.679   3.338  14.041  2.7881 -4.0011 -1.1102
14652TIP3    H265448   6.740   3.442  14.133 -1.5147 -3.4955  1.2816
14653TIP3   OH265449   1.417   2.360  15.808 -0.1453 -0.1562 -0.2031
14653TIP3    H165450   1.330   2.364  15.769 -0.7222  0.3890  1.1226
14653TIP3    H265451   1.451   2.449  15.799 -0.2548 -0.0426  0.4534
14654TIP3   OH265452   3.498   5.145   3.356 -0.4504  0.0442 -0.0490
14654TIP3    H165453   3.560   5.170   3.425  0.5246 -1.0225 -0.5154
14654TIP3    H265454   3.544   5.166   3.275 -0.4764 -1.2580 -0.4066
14655TIP3   OH265455   2.309   5.615   2.890 -0.2289 -0.1320 -0.2431
14655TIP3    H165456   2.340   5.533   2.929  0.5787 -0.2750 -1.1790
14655TIP3    H265457   2.372   5.634   2.820 -1.9894 -0.1774 -1.8705
14656TIP3   OH265458   3.068   0.815  12.880  0.4617  0.0344  0.1063
14656TIP3    H165459   3.015   0.893  12.867  2.0336  1.0295 -0.4437
14656TIP3    H265460   3.156   0.848  12.900  1.0682 -1.5837  0.2294
14657TIP3   OH265461   4.285   6.178  17.127  0.0304  0.5099 -0.4563
14657TIP3    H165462   4.325   6.264  17.142 -0.4636  0.8005 -0.7749
14657TIP3    H265463   4.193   6.190  17.151 -0.1716  0.2349 -1.0797
14658TIP3   OH265464   0.627   1.717  10.351  0.1592 -0.3745  0.2998
14658TIP3    H165465   0.654   1.722  10.443  1.0476  0.3661  0.0089
14658TIP3    H265466   0.635   1.807  10.319 -0.3045 -0.6013 -0.4581
14659TIP3   OH265467   6.203   2.252  11.943 -0.0574  0.2232  0.6708
14659TIP3    H165468   6.263   2.267  11.870  1.3848 -0.0968  1.7483
14659TIP3    H265469   6.245   2.183  11.994 -1.5708 -0.3033  1.2351
14660TIP3   OH265470   1.655   2.535   5.971 -0.0459  0.4232  0.3743
14660TIP3    H165471   1.743   2.498   5.973  0.4496  1.5384 -0.3866
14660TIP3    H265472   1.598   2.463   5.999  1.1391 -0.1880  1.2419
14661TIP3   OH265473   6.346   5.109   5.863  0.1419  0.3609  0.2805
14661TIP3    H165474   6.428   5.101   5.911 -0.9514 -0.0492  2.1291
14661TIP3    H265475   6.341   5.201   5.838  1.8863  0.0758 -1.1925
14662TIP3   OH265476   1.914   1.074   1.497  0.1617  0.2390  0.1839
14662TIP3    H165477   2.004   1.053   1.520  0.2567 -0.6715 -0.9381
14662TIP3    H265478   1.919   1.109   1.408 -0.6898 -0.8506 -0.3106
14663TIP3   OH265479   5.100   0.008   5.729 -0.0384 -0.4335  0.2893
14663TIP3    H165480   5.011   0.029   5.703  0.0126 -0.5796 -0.0066
14663TIP3    H265481   5.090  -0.053   5.803 -0.2096  2.5965  2.8789
14664TIP3   OH265482   4.031   1.352  15.756 -0.0861  0.2531 -0.0128
14664TIP3    H165483   4.066   1.285  15.815 -0.7561  0.2540  0.3877
14664TIP3    H265484   4.049   1.435  15.799  0.9998  0.3620 -0.6422
14665TIP3   OH265485   4.831   5.282   4.149 -0.1474 -0.3199  0.7625
14665TIP3    H165486   4.816   5.253   4.059  0.3475  2.1433 -0.1485
14665TIP3    H265487   4.744   5.302   4.183 -0.2856 -0.7687  0.6826
14666TIP3   OH265488   0.979   3.302   3.723  0.2574 -0.3744 -0.2343
14666TIP3    H165489   1.013   3.255   3.800  1.0266 -0.8891 -0.8796
14666TIP3    H265490   1.054   3.353   3.692  0.1362 -0.6935 -1.0455
14667TIP3   OH265491   6.126   1.226  16.352 -0.3273  0.1680 -0.2789
14667TIP3    H165492   6.031   1.219  16.341 -0.2925 -0.4145 -0.2395
14667TIP3    H265493   6.140   1.313  16.390 -1.0132 -0.5025  1.5776
14668TIP3   OH265494   1.509   2.027  13.021 -0.2669 -0.0380 -0.3018
14668TIP3    H165495   1.506   1.941  13.064 -0.1424  0.8609  1.5860
14668TIP3    H265496   1.428   2.070  13.049  0.5879  1.1781  0.3785
14669TIP3   OH265497   1.328   6.009   1.468 -0.5426 -0.0480  0.2646
14669TIP3    H165498   1.333   5.920   1.503 -0.3994  0.2735  1.0798
14669TIP3    H265499   1.404   6.053   1.504  0.9329 -0.3513 -2.3794
14670TIP3   OH265500   5.595   2.966   0.863  0.1422  0.2777 -0.3789
14670TIP3    H165501   5.583   2.877   0.832  2.7148 -0.3473  0.2905
14670TIP3    H265502   5.533   2.975   0.935 -1.5084 -0.2969 -1.7080
14671TIP3   OH265503   5.086   5.108  16.476 -0.2482 -0.0468  0.0681
14671TIP3    H165504   5.061   5.193  16.439 -1.8344 -0.1723  0.8233
14671TIP3    H265505   5.012   5.051  16.457  0.3416 -0.9819  0.5348
14672TIP3   OH265506   1.363   6.260   5.049  0.5324  0.0193  0.3249
14672TIP3    H165507   1.425   6.198   5.012 -0.0642 -0.0820 -0.5182
14672TIP3    H265508   1.349   6.230   5.139  1.8965  0.1994  0.5953
14673TIP3   OH265509   6.787   0.056  13.498 -0.0127 -0.1227 -0.2048
14673TIP3    H165510   6.807   0.118  13.428 -1.9514  0.1326 -0.5639
14673TIP3    H265511   6.771   0.112  13.575 -1.0875 -0.2079 -0.3620
14674TIP3   OH265512   4.101   4.138  13.460  0.0352 -0.5261  0.1427
14674TIP3    H165513   4.079   4.227  13.486  1.0448 -0.7953  1.9573
14674TIP3    H265514   4.043   4.120  13.386 -0.1008  1.6636 -0.3126
14675TIP3   OH265515   5.856   0.356  13.432  0.4697 -0.0768 -0.4086
14675TIP3    H165516   5.863   0.314  13.346  2.0851  1.5320 -1.0844
14675TIP3    H265517   5.875   0.448  13.415 -0.9994  0.5957  1.3967
14676TIP3   OH265518   5.501   5.054   2.474  0.3259 -0.9316  0.0461
14676TIP3    H165519   5.424   5.062   2.418 -0.1937 -1.1487  0.7211
14676TIP3    H265520   5.515   4.960   2.482  0.1100 -0.9129  0.6643
14677TIP3   OH265521   3.547   3.447  14.239 -0.1969 -0.2193 -0.5706
14677TIP3    H165522   3.468   3.490  14.206  0.9497  1.7634 -0.8328
14677TIP3    H265523   3.594   3.517  14.285 -0.0735 -2.0828  2.2478
14678TIP3   OH265524   2.500   3.003   4.538 -0.4607  0.6531 -0.6985
14678TIP3    H165525   2.466   3.030   4.453  0.1867 -0.9768 -1.4886
14678TIP3    H265526   2.552   2.925   4.520  1.0465  1.2401  0.9487
14679TIP3   OH265527   1.090   2.479   2.740  0.0073  0.2134 -0.1886
14679TIP3    H165528   1.055   2.541   2.804 -1.3031  0.3378 -0.9987
14679TIP3    H265529   1.136   2.534   2.676 -0.6920  0.3037 -0.6157
14680TIP3   OH265530   3.343   3.479  15.017 -0.2441 -0.2677  0.3856
14680TIP3    H165531   3.253   3.446  15.019  0.1867 -1.4484  0.4950
14680TIP3    H265532   3.364   3.483  14.924 -0.1370 -0.7485  0.3876
14681TIP3   OH265533   3.299   5.933   0.905  0.1644 -0.0605  0.6315
14681TIP3    H165534   3.237   5.883   0.959 -0.5618 -0.9100 -0.9684
14681TIP3    H265535   3.276   6.025   0.922 -2.0767 -0.3737 -0.5328
14682TIP3   OH265536   1.496   1.074   2.126  0.1596  0.0608  0.1740
14682TIP3    H165537   1.579   1.031   2.107  1.2740  1.9522  0.5548
14682TIP3    H265538   1.496   1.152   2.070 -2.2339 -0.8775 -1.2196
14683TIP3   OH265539   6.546   6.347   1.411  0.4951  0.2311 -0.5409
14683TIP3    H165540   6.571   6.388   1.494  2.7917  1.7924 -1.9423
14683TIP3    H265541   6.564   6.254   1.424 -0.5557  0.2460  1.1860
14684TIP3   OH265542   5.632   5.074   4.678 -0.0058 -0.2834  0.1512
14684TIP3    H165543   5.679   5.069   4.595 -0.2897 -0.7392  0.0152
14684TIP3    H265544   5.539   5.072   4.654 -0.0903 -0.1171  0.4584
14685TIP3   OH265545   1.218   1.362   0.341  0.1318 -0.2987  0.4300
14685TIP3    H165546   1.127   1.341   0.359 -0.8805  2.7236 -0.8442
14685TIP3    H265547   1.254   1.389   0.426 -0.2266 -1.1827  0.8692
14686TIP3   OH265548   0.255   6.203   1.405 -0.2691 -0.0404 -0.5962
14686TIP3    H165549   0.303   6.237   1.481 -0.2923  1.4319 -1.2406
14686TIP3    H265550   0.321   6.197   1.336 -0.1761 -1.6805 -0.3990
14687TIP3   OH265551   0.628   1.611  11.670 -0.5671  0.1699  0.3019
14687TIP3    H165552   0.699   1.650  11.720 -1.5580  1.4625  0.7163
14687TIP3    H265553   0.624   1.520  11.701  0.6400  0.1924  0.5397
14688TIP3   OH265554   5.842   1.581  16.910 -0.0516  0.0453 -0.2094
14688TIP3    H165555   5.760   1.533  16.898 -0.7908  0.8131  1.5547
14688TIP3    H265556   5.855   1.582  17.005  2.4539 -0.7832 -0.5188
14689TIP3   OH265557   2.489   5.931  12.243  0.5527 -0.4711  0.1593
14689TIP3    H165558   2.516   5.841  12.226  0.6269 -0.1345 -1.6611
14689TIP3    H265559   2.463   5.965  12.157 -1.5289  0.5820  1.1627
14690TIP3   OH265560   2.711   0.874   4.503  0.4269 -0.3808 -0.1713
14690TIP3    H165561   2.621   0.853   4.479  0.8154 -1.0033 -1.1016
14690TIP3    H265562   2.764   0.808   4.458  1.2566 -0.8260  1.4218
14691TIP3   OH265563   0.623   4.423  15.472 -0.3419 -0.2644 -0.0363
14691TIP3    H165564   0.671   4.347  15.437 -2.3015 -1.9334  0.7920
14691TIP3    H265565   0.692   4.483  15.501  1.2697 -1.0885 -2.0009
14692TIP3   OH265566   3.579   6.514   1.835  0.1531 -0.5419 -0.3450
14692TIP3    H165567   3.512   6.480   1.895 -0.2224 -0.8168 -0.9174
14692TIP3    H265568   3.566   6.609   1.837  0.5293 -0.5077  0.4608
14693TIP3   OH265569   5.805   3.797  13.565  0.8437  0.1942 -0.8427
14693TIP3    H165570   5.827   3.880  13.523  0.7845  0.3789 -0.5081
14693TIP3    H265571   5.734   3.761  13.512 -2.3738  2.5591  1.6894
14694TIP3   OH265572   2.507   3.767  16.331  0.0729 -0.3065 -0.2179
14694TIP3    H165573   2.470   3.843  16.286  1.2030 -0.3285 -1.2188
14694TIP3    H265574   2.559   3.722  16.265  0.4260 -1.2692  0.6863
14695TIP3   OH265575   3.580   6.007  17.143 -0.0354  0.1451 -0.6063
14695TIP3    H165576   3.570   5.953  17.065 -1.2213 -0.2497 -0.1855
14695TIP3    H265577   3.605   5.946  17.213  1.4977  0.5621 -0.7606
14696TIP3   OH265578   4.768   3.178   3.898  0.0448  0.5948 -0.5715
14696TIP3    H165579   4.689   3.232   3.906  1.3578  2.4904  0.0159
14696TIP3    H265580   4.752   3.123   3.822 -1.4520  1.6374 -1.0312
14697TIP3   OH265581   4.229   1.111   1.263 -0.4744 -0.3240  0.1401
14697TIP3    H165582   4.298   1.173   1.289  0.2808 -1.1134  0.0476
14697TIP3    H265583   4.182   1.093   1.345  0.1761 -0.6875  0.4419
14698TIP3   OH265584   6.623   3.966  14.530 -0.3574 -0.4135  0.6344
14698TIP3    H165585   6.537   3.964  14.489 -0.1418 -0.2048  0.1740
14698TIP3    H265586   6.646   3.874  14.541 -0.2871 -0.4698  0.0198
14699TIP3   OH265587   1.057   0.662  12.260  0.0137  0.2902  0.2024
14699TIP3    H165588   1.021   0.699  12.340 -0.8182 -1.0856  0.4707
14699TIP3    H265589   1.024   0.572  12.257 -0.3678  0.4553 -1.9147
14700TIP3   OH265590   4.740   6.487  12.316 -0.5660 -0.0364 -0.2488
14700TIP3    H165591   4.647   6.497  12.335 -0.6102 -0.7866 -0.0636
14700TIP3    H265592   4.776   6.443  12.393 -0.3076 -0.9337 -0.8651
14701TIP3   OH265593   1.711   4.384  13.554 -0.3936 -0.1993  0.4336
14701TIP3    H165594   1.734   4.412  13.642  1.0516  1.2982 -0.3861
14701TIP3    H265595   1.677   4.463  13.512  0.3852 -0.5270 -0.8318
14702TIP3   OH265596   6.180   5.762  10.833 -0.4452  0.0952  0.7159
14702TIP3    H165597   6.255   5.766  10.774 -0.0044  1.3192  1.3443
14702TIP3    H265598   6.167   5.669  10.850  0.5398 -0.1547  0.0989
14703TIP3   OH265599   2.787   4.699  17.218 -0.0139 -0.4591 -0.2917
14703TIP3    H165600   2.879   4.705  17.240 -0.1321 -0.3280  0.1659
14703TIP3    H265601   2.746   4.659  17.295 -0.6437  1.3175  0.3252
14704TIP3   OH265602   0.152   0.436  14.232 -0.0336 -0.1937  0.0252
14704TIP3    H165603   0.208   0.360  14.248 -0.4175 -0.5072 -0.1111
14704TIP3    H265604   0.212   0.506  14.207  0.1101 -1.0672 -2.1037
14705TIP3   OH265605   2.897   0.216  11.379 -0.2673 -0.6001 -0.0797
14705TIP3    H165606   2.921   0.187  11.467  1.5642  0.1929 -0.3098
14705TIP3    H265607   2.838   0.147  11.347  1.5656 -2.5260  0.5550
14706TIP3   OH265608   2.943   2.538   4.783  0.0735 -0.6207  0.1010
14706TIP3    H165609   2.991   2.515   4.703  0.0729 -1.8501  0.4447
14706TIP3    H265610   2.956   2.463   4.841 -1.4062 -0.5093  0.5929
14707TIP3   OH265611   3.518   3.569  12.163  0.6249 -0.5346  0.2915
14707TIP3    H165612   3.523   3.526  12.249  0.1312  0.6186  0.9152
14707TIP3    H265613   3.470   3.650  12.181  4.7371  2.1027 -0.1236
14708TIP3   OH265614   5.590   6.463  15.390  0.4152 -0.2245 -0.6527
14708TIP3    H165615   5.526   6.535  15.392 -0.4207 -0.9585 -0.2518
14708TIP3    H265616   5.660   6.494  15.334  1.8990  2.4524  2.5535
14709TIP3   OH265617   1.521   4.273  11.775  0.1221 -0.5791 -0.0272
14709TIP3    H165618   1.524   4.192  11.825  0.1102 -0.4020  0.2667
14709TIP3    H265619   1.521   4.246  11.683 -0.4747 -0.9350  0.0700
14710TIP3   OH265620   4.205   0.761  11.553 -0.2011 -0.3684  0.0021
14710TIP3    H165621   4.138   0.696  11.576  0.0520 -1.2670 -1.7489
14710TIP3    H265622   4.286   0.725  11.589  0.0895 -1.4814 -1.6992
14711TIP3   OH265623   6.152   5.710   2.327  0.2216 -1.0958 -0.0878
14711TIP3    H165624   6.064   5.717   2.364 -0.1139  0.0062 -1.0784
14711TIP3    H265625   6.143   5.649   2.254  0.2218 -0.7254 -0.3938
14712TIP3   OH265626   1.943   2.866  17.285  0.0397 -0.5601 -0.6705
14712TIP3    H165627   2.030   2.896  17.261  0.2098 -0.2215  0.3469
14712TIP3    H265628   1.893   2.946  17.299 -0.8350 -0.7402 -2.6311
14713TIP3   OH265629   5.306   5.013  11.517  0.0752 -0.2011 -0.1134
14713TIP3    H165630   5.322   4.920  11.499  2.0251 -0.0389  0.6220
14713TIP3    H265631   5.354   5.059  11.448  0.8172  0.2726  0.6985
14714TIP3   OH265632   5.386   0.262   3.221  0.5649 -0.0913 -0.0607
14714TIP3    H165633   5.304   0.312   3.222  0.3769 -0.3197 -2.0520
14714TIP3    H265634   5.372   0.191   3.284 -0.5618  0.2028  0.0302
14715TIP3   OH265635   0.159   5.538   6.812 -0.1713 -0.0230  0.1106
14715TIP3    H165636   0.243   5.515   6.851  0.9510  1.3782 -1.3774
14715TIP3    H265637   0.144   5.629   6.839  0.0170  0.5479 -1.6208
14716TIP3   OH265638   2.451   6.620   3.078 -0.4946  0.0339  0.5505
14716TIP3    H165639   2.503   6.689   3.036 -0.2736 -0.6547 -0.3081
14716TIP3    H265640   2.372   6.614   3.024 -0.3136 -0.6961  0.3677
14717TIP3   OH265641   3.510   0.538   3.479  0.2157 -0.0888  0.7340
14717TIP3    H165642   3.426   0.578   3.457 -0.1573 -1.2476  0.0266
14717TIP3    H265643   3.510   0.534   3.575  0.6649  2.4397  0.8639
14718TIP3   OH265644   6.797   5.158   6.096  0.1554  0.1016  0.4427
14718TIP3    H165645   6.873   5.125   6.145  0.8151 -0.3693 -0.8525
14718TIP3    H265646   6.813   5.252   6.087  0.0390  0.1854  1.1163
14719TIP3   OH265647   0.634   6.629   4.064  0.0744 -0.1680  0.3162
14719TIP3    H165648   0.634   6.536   4.041  0.9821  0.2723 -1.6038
14719TIP3    H265649   0.681   6.633   4.147  0.4480 -1.3804  0.1739
14720TIP3   OH265650   3.272   3.086  11.210 -0.0844  0.3052  0.7808
14720TIP3    H165651   3.324   3.006  11.211  1.0561  0.9741 -1.2249
14720TIP3    H265652   3.191   3.063  11.254  0.3212 -1.9048  0.4074
14721TIP3   OH265653   2.959   1.222   1.658 -0.2156 -0.5312  0.8145
14721TIP3    H165654   2.925   1.263   1.738  1.6704  0.4192  1.1668
14721TIP3    H265655   3.004   1.144   1.688  0.6706 -0.0652  0.7058
14722TIP3   OH265656   3.241   6.254  13.369 -0.1995  0.5472 -0.5297
14722TIP3    H165657   3.187   6.267  13.447  1.0408 -2.0912  0.8208
14722TIP3    H265658   3.326   6.291  13.392  0.6428 -1.6293  0.0149
14723TIP3   OH265659   5.559   4.812   1.177 -0.3036  0.1809  0.2102
14723TIP3    H165660   5.476   4.811   1.130 -0.2786  0.1173  0.1674
14723TIP3    H265661   5.556   4.735   1.234 -0.5649  0.5600  0.7169
14724TIP3   OH265662   4.987   6.264  11.445  1.1340  0.1929 -0.0111
14724TIP3    H165663   4.896   6.234  11.452  1.4001 -0.4690  0.6985
14724TIP3    H265664   4.983   6.357  11.467  0.5019  0.3700 -0.8437
14725TIP3   OH265665   1.034   2.314  15.160  0.3250 -0.5901  0.4091
14725TIP3    H165666   1.017   2.290  15.069  2.2991  1.9019 -0.6799
14725TIP3    H265667   1.085   2.240  15.194  0.8165 -0.9034 -0.9477
14726TIP3   OH265668   6.547   1.409   0.413 -0.0467 -0.8397  0.4756
14726TIP3    H165669   6.617   1.415   0.477 -0.5164  0.3585  0.9112
14726TIP3    H265670   6.580   1.351   0.345  1.7942  0.5560  0.1461
14727TIP3   OH265671   1.254   2.524  15.569 -1.2994  0.0885  0.7393
14727TIP3    H165672   1.210   2.441  15.588 -1.0818  0.1510  1.5194
14727TIP3    H265673   1.183   2.585  15.549 -1.5167 -0.0353  1.1328
14728TIP3   OH265674   5.996   3.406   3.655  0.3491  0.0298 -0.7272
14728TIP3    H165675   6.065   3.460   3.693 -0.8131  0.5430  0.7202
14728TIP3    H265676   6.042   3.342   3.601  1.9609  0.2130  0.4002
14729TIP3   OH265677   2.705   5.832   5.017  0.6081  0.3316 -0.4833
14729TIP3    H165678   2.630   5.797   4.968  1.4785 -0.1230 -1.4970
14729TIP3    H265679   2.777   5.772   4.997  1.0878  0.3963  1.0044
14730TIP3   OH265680   2.923   0.680   2.432 -0.9864 -0.1325  0.3978
14730TIP3    H165681   2.951   0.771   2.441 -0.1234 -0.2195 -1.1324
14730TIP3    H265682   2.847   0.672   2.489 -0.1814  1.1525  1.6602
14731TIP3   OH265683   5.213   1.930   4.790 -1.0186 -0.2542 -0.5188
14731TIP3    H165684   5.148   1.978   4.842 -0.7908  1.1773 -1.5031
14731TIP3    H265685   5.230   1.988   4.715  1.8980 -0.2796  0.0654
14732TIP3   OH265686   0.207   2.060  10.773 -0.2570 -0.4509  0.0594
14732TIP3    H165687   0.222   1.979  10.724 -1.3915  0.5429 -1.9904
14732TIP3    H265688   0.236   2.130  10.714 -0.0652  0.7089  1.4763
14733TIP3   OH265689   5.964   3.481   4.351 -0.0177  0.6669 -0.4628
14733TIP3    H165690   6.056   3.455   4.351 -0.2430 -0.1623 -0.4345
14733TIP3    H265691   5.917   3.401   4.378 -0.5944  1.5747  1.3033
14734TIP3   OH265692   5.866   4.184  15.912  0.6347  0.2752  0.4755
14734TIP3    H165693   5.851   4.122  15.840 -0.1895 -1.9051  2.4451
14734TIP3    H265694   5.785   4.236  15.916  1.3122  1.4981 -1.1566
14735TIP3   OH265695   1.595   5.948  16.665  0.4476 -0.5440  0.0227
14735TIP3    H165696   1.579   5.863  16.623  0.9267 -0.1257 -1.0132
14735TIP3    H265697   1.622   6.006  16.594 -0.4432  0.6436  0.6462
14736TIP3   OH265698   1.159   0.498  16.159 -0.3361 -0.4585  0.0407
14736TIP3    H165699   1.067   0.493  16.134 -0.3580 -0.8687  0.1941
14736TIP3    H265700   1.174   0.590  16.179 -0.8716 -0.4964  0.6163
14737TIP3   OH265701   2.973   3.615   4.710 -0.3433 -0.3790  0.3690
14737TIP3    H165702   2.908   3.558   4.668  0.7614 -1.2820 -0.1531
14737TIP3    H265703   2.945   3.704   4.688 -0.5751 -0.8018 -1.0871
14738TIP3   OH265704   2.814   5.813  13.346 -0.2150  0.0071  0.2542
14738TIP3    H165705   2.873   5.745  13.378 -1.2783 -0.5233  1.1290
14738TIP3    H265706   2.749   5.767  13.294  0.1931  0.6033 -0.7914
14739TIP3   OH265707   4.896   2.704   6.176  0.1550  0.2618 -0.2811
14739TIP3    H165708   4.841   2.638   6.134 -0.5616  0.1297  0.8348
14739TIP3    H265709   4.979   2.659   6.193 -0.8375 -0.8230  1.8181
14740TIP3   OH265710   1.592   3.183   2.153 -0.9009  0.1160  0.1734
14740TIP3    H165711   1.536   3.252   2.118  0.2443  0.7602 -0.4043
14740TIP3    H265712   1.610   3.210   2.243 -0.8991  0.2889  0.1211
14741TIP3   OH265713   6.442   3.232  10.830  0.4152  0.0673  0.4419
14741TIP3    H165714   6.381   3.203  10.763  2.4093 -0.0870 -1.3719
14741TIP3    H265715   6.425   3.326  10.840 -1.5141 -0.3779  1.4843
14742TIP3   OH265716   6.743   6.574  13.587  0.2185  0.1823 -0.2179
14742TIP3    H165717   6.788   6.647  13.544 -0.8761 -0.3454 -2.3160
14742TIP3    H265718   6.688   6.616  13.653  0.8337  1.1261 -0.2930
14743TIP3   OH265719   4.804   0.569  10.913 -0.3879  0.1506 -0.4111
14743TIP3    H165720   4.749   0.637  10.875 -1.2172  1.0740  2.3539
14743TIP3    H265721   4.783   0.490  10.862 -0.5451  1.5864 -2.6346
14744TIP3   OH265722   4.654   3.923   3.400 -0.0687  0.0235  0.0217
14744TIP3    H165723   4.615   4.010   3.395  0.6112  0.3364  0.0853
14744TIP3    H265724   4.704   3.915   3.319  0.5406  0.0202  0.3977
14745TIP3   OH265725   6.498   0.858   3.820 -0.3141 -0.0650 -0.4100
14745TIP3    H165726   6.474   0.853   3.728  0.5605 -0.6926 -0.6128
14745TIP3    H265727   6.502   0.766   3.849  1.5356  0.0114 -0.3259
14746TIP3   OH265728   4.037   6.802  10.694  0.0466 -0.3349  0.4586
14746TIP3    H165729   4.046   6.897  10.687 -0.6099 -0.3390 -0.5300
14746TIP3    H265730   3.954   6.789  10.741 -1.1339 -0.4398 -1.6159
14747TIP3   OH265731   4.324   0.142   5.483  0.4186  0.4649 -0.3228
14747TIP3    H165732   4.356   0.068   5.535  1.3443  0.0196 -1.5027
14747TIP3    H265733   4.247   0.173   5.531  0.1301 -1.1318  0.2892
14748TIP3   OH265734   3.188   6.522   1.825  0.4907  0.0392  0.2643
14748TIP3    H165735   3.103   6.529   1.867  0.6428 -1.2294  0.8058
14748TIP3    H265736   3.234   6.602   1.851 -0.9974  1.3957 -1.1395
14749TIP3   OH265737   5.356   6.756  10.526 -0.2917 -0.4270 -0.0389
14749TIP3    H165738   5.382   6.840  10.565 -2.5401  0.6641 -0.8270
14749TIP3    H265739   5.329   6.703  10.601 -1.8966  0.6699  0.1736
14750TIP3   OH265740   2.388   3.695  13.818 -1.0350 -0.0385 -0.0945
14750TIP3    H165741   2.379   3.659  13.730 -2.5717 -0.9134  0.4015
14750TIP3    H265742   2.303   3.680  13.859 -0.7930  1.6291  1.0781
14751TIP3   OH265743   5.743   6.423  12.591  0.1247  0.1600 -0.3326
14751TIP3    H165744   5.708   6.466  12.513  0.4549 -0.7023 -0.9649
14751TIP3    H265745   5.725   6.330  12.576  1.2627 -0.1241  0.0668
14752TIP3   OH265746   1.768   5.771   4.678 -0.2448  0.2881  0.3456
14752TIP3    H165747   1.856   5.769   4.642  0.3608  1.7427  1.6815
14752TIP3    H265748   1.748   5.864   4.687 -1.5004 -0.0374  1.0275
14753TIP3   OH265749   0.084   3.612  13.924 -0.0676  0.4339  0.1441
14753TIP3    H165750   0.015   3.559  13.964  0.9601 -0.4713  0.7188
14753TIP3    H265751   0.109   3.562  13.846  0.5836  0.3058  0.4382
14754TIP3   OH265752   2.323   3.550  15.068 -0.1812 -0.1412  0.2261
14754TIP3    H165753   2.249   3.565  15.009  0.3064  0.1206 -0.3303
14754TIP3    H265754   2.364   3.637  15.077  0.8982 -0.5514 -0.6137
14755TIP3   OH265755   3.914   5.449   4.301  0.7486  0.8454  0.2336
14755TIP3    H165756   3.963   5.394   4.362 -0.8305 -0.0068  0.7692
14755TIP3    H265757   3.884   5.523   4.353 -1.3545 -0.3283  0.7526
14756TIP3   OH265758   2.765   5.839  15.421 -0.3201  0.0371  0.0414
14756TIP3    H165759   2.832   5.891  15.376  0.7668 -1.3112  0.0997
14756TIP3    H265760   2.809   5.758  15.446 -1.9210 -0.7933  0.2457
14757TIP3   OH265761   5.614   2.255  10.737 -0.5103 -0.5794 -0.2719
14757TIP3    H165762   5.648   2.329  10.687 -0.8515 -0.3821 -0.2104
14757TIP3    H265763   5.519   2.263  10.731 -0.5860 -2.5491 -2.5535
14758TIP3   OH265764   5.912   6.747  14.372  0.6288 -0.1680 -0.5123
14758TIP3    H165765   5.925   6.690  14.296  0.7164  0.4286 -0.9492
14758TIP3    H265766   6.001   6.766  14.403  0.6306  0.3913 -0.8610
14759TIP3   OH265767   1.138   5.011  15.186  0.2943  0.1435  0.0121
14759TIP3    H165768   1.053   5.035  15.148  0.7483 -0.0329 -1.1449
14759TIP3    H265769   1.121   5.002  15.280 -1.0582 -0.2862 -0.2666
14760TIP3   OH265770   2.993   0.029  14.240 -0.6784  0.6138  0.2693
14760TIP3    H165771   2.937  -0.039  14.278  0.5446 -0.0362  0.9400
14760TIP3    H265772   3.010  -0.001  14.151 -0.0161 -0.0482  0.6124
14761TIP3   OH265773   4.417   4.381   1.720 -0.2675 -0.3100 -0.4675
14761TIP3    H165774   4.489   4.336   1.676  0.7041 -0.0028  0.7391
14761TIP3    H265775   4.338   4.353   1.674  0.5044 -1.6882 -0.9952
14762TIP3   OH265776   6.054   0.018   4.809 -0.7985 -0.1679  0.0628
14762TIP3    H165777   6.055   0.074   4.886  1.9046 -0.3177  0.1675
14762TIP3    H265778   6.071   0.077   4.736 -1.6493 -0.2937 -0.2448
14763TIP3   OH265779   4.228   3.776  16.790  0.0403  0.4040 -0.1404
14763TIP3    H165780   4.223   3.805  16.699  0.8720 -0.1766 -0.3775
14763TIP3    H265781   4.294   3.832  16.830  0.4269 -0.0339 -0.1668
14764TIP3   OH265782   4.119   2.443   2.005  0.3888  0.7122  0.5437
14764TIP3    H165783   4.141   2.512   2.068  0.0963  2.0993 -0.8453
14764TIP3    H265784   4.167   2.467   1.926  0.3796 -0.7607  0.0724
14765TIP3   OH265785   4.137   0.335   3.416 -0.0863 -0.6081  0.0826
14765TIP3    H165786   4.106   0.425   3.406  0.5520 -0.2528  1.2770
14765TIP3    H265787   4.214   0.329   3.359 -1.5475 -1.1389 -1.9279
14766TIP3   OH265788   3.169   5.326  10.704 -0.7047 -0.0243  0.1599
14766TIP3    H165789   3.229   5.262  10.666 -3.1647 -1.0162 -2.1926
14766TIP3    H265790   3.121   5.277  10.771 -0.0117  0.3597  0.9490
14767TIP3   OH265791   6.704   0.115   1.102  0.7525 -0.7672 -0.0839
14767TIP3    H165792   6.709   0.156   1.188  0.5556 -0.8781 -0.0208
14767TIP3    H265793   6.707   0.021   1.119  3.3680 -0.7658 -0.3522
14768TIP3   OH265794   4.194   2.257   4.002  0.0387  0.6109  0.0940
14768TIP3    H165795   4.240   2.176   4.023  0.7968  1.0223  0.0333
14768TIP3    H265796   4.227   2.282   3.916 -1.7444 -0.1156 -0.8143
14769TIP3   OH265797   5.389   1.601   3.878 -0.4268  0.4875 -0.0942
14769TIP3    H165798   5.299   1.586   3.849  0.4697 -0.0447 -2.7411
14769TIP3    H265799   5.392   1.695   3.897 -1.6017  0.4661  0.2275
14770TIP3   OH265800   2.674   4.094   6.241 -0.1783 -0.3516  0.3286
14770TIP3    H165801   2.688   4.175   6.193 -0.3128 -1.5088 -1.7130
14770TIP3    H265802   2.625   4.121   6.319  1.0375  1.7115  0.4168
14771TIP3   OH265803   3.175   2.621  16.767  0.0521  0.2920 -0.6010
14771TIP3    H165804   3.241   2.554  16.783 -0.8053 -0.2937  0.5470
14771TIP3    H265805   3.140   2.600  16.680  0.1628 -0.4103 -0.4745
14772TIP3   OH265806   0.677   5.004  15.971  0.3199  0.0680  0.6005
14772TIP3    H165807   0.737   4.948  15.921  1.3455  1.9498 -0.3345
14772TIP3    H265808   0.590   4.985  15.934  0.9264  0.5788 -1.1239
14773TIP3   OH265809   0.766   0.414  12.463 -0.4814  0.6405  0.2407
14773TIP3    H165810   0.804   0.327  12.476 -0.6535  0.5656  0.2538
14773TIP3    H265811   0.708   0.403  12.388  0.7614  1.1500 -0.8059
14774TIP3   OH265812   6.229   4.637  15.773  0.0731 -0.2536 -0.2831
14774TIP3    H165813   6.171   4.680  15.710 -0.7682  0.8718  1.2146
14774TIP3    H265814   6.281   4.708  15.811  2.0045 -1.1776 -1.1528
14775TIP3   OH265815   3.582   1.211  12.853 -0.1717 -0.2962  0.6707
14775TIP3    H165816   3.618   1.203  12.765 -0.7825  0.5798  0.3412
14775TIP3    H265817   3.496   1.169  12.848  0.2313 -1.2003  1.1267
14776TIP3   OH265818   5.025   6.588  10.297  0.7933  0.0281  0.0604
14776TIP3    H165819   5.062   6.515  10.247  0.9284  0.0116  0.1847
14776TIP3    H265820   5.023   6.558  10.388  2.2724  0.7264  0.3438
14777TIP3   OH265821   3.906   3.351   3.597  0.9746  0.1407 -0.0315
14777TIP3    H165822   3.813   3.351   3.615  0.9391  0.5235 -0.2001
14777TIP3    H265823   3.913   3.321   3.506  1.0080  0.2108 -0.0525
14778TIP3   OH265824   5.113   3.341   3.017  0.1219 -0.5066  0.0291
14778TIP3    H165825   5.208   3.349   3.013  0.0331 -0.1338 -4.2353
14778TIP3    H265826   5.096   3.250   2.994 -0.5167 -1.4943  4.0548
14779TIP3   OH265827   0.902   5.854  13.282 -0.3456 -0.4128  0.3676
14779TIP3    H165828   0.882   5.796  13.208  0.6105 -0.9554  0.5363
14779TIP3    H265829   0.987   5.892  13.261 -0.6584  0.4399  0.5759
14780TIP3   OH265830   4.797   4.717  13.676  0.2603  0.4644 -0.0415
14780TIP3    H165831   4.703   4.709  13.689 -0.1935  3.3150 -1.2799
14780TIP3    H265832   4.807   4.733  13.582  2.2149 -2.7674 -0.4367
14781TIP3   OH265833   2.081   3.813  16.077 -0.2181  0.3751  0.0923
14781TIP3    H165834   2.129   3.893  16.056  0.2983 -0.3004 -1.3609
14781TIP3    H265835   2.149   3.750  16.101 -0.4577 -0.2859 -0.9722
14782TIP3   OH265836   4.004   1.640  17.255 -0.1295 -0.0409 -0.5890
14782TIP3    H165837   3.937   1.593  17.306 -0.4844  0.3552 -0.6890
14782TIP3    H265838   4.029   1.578  17.186 -1.3752  0.3103 -1.3751
14783TIP3   OH265839   6.278   3.373   6.076  0.2660  0.4307  0.0946
14783TIP3    H165840   6.218   3.374   6.001  0.4798 -1.1229 -0.1248
14783TIP3    H265841   6.233   3.423   6.144 -0.3502  1.0503 -0.7642
14784TIP3   OH265842   0.930   5.166   2.452  0.8425  0.1124  0.2114
14784TIP3    H165843   0.995   5.156   2.383  0.2035 -0.7274 -0.2829
14784TIP3    H265844   0.918   5.077   2.486 -0.6434  0.1177 -0.2646
14785TIP3   OH265845   2.566   0.833   1.464 -0.4101 -0.4619 -0.2163
14785TIP3    H165846   2.500   0.834   1.534  0.0044  1.5978  0.1845
14785TIP3    H265847   2.517   0.854   1.385 -0.2886  0.8892  0.0537
14786TIP3   OH265848   5.516   4.901  13.028  0.1582 -0.6415 -0.4446
14786TIP3    H165849   5.518   4.808  13.008  0.4651 -0.5639 -0.7696
14786TIP3    H265850   5.493   4.943  12.945 -0.7823 -0.4844 -0.1242
14787TIP3   OH265851   4.675   0.073   5.318  0.3859 -0.4028  0.0634
14787TIP3    H165852   4.603   0.116   5.272  1.8923  2.1185 -0.0776
14787TIP3    H265853   4.642  -0.014   5.340 -2.5951  0.6171 -0.1879
14788TIP3   OH265854   3.932   1.717   5.768  0.2141  0.0338 -0.2022
14788TIP3    H165855   3.850   1.762   5.747  0.2581  0.2797  0.1439
14788TIP3    H265856   3.954   1.667   5.689 -0.8668 -0.9323  0.0931
14789TIP3   OH265857   5.198   6.719  15.238  0.4392  0.8490 -0.0238
14789TIP3    H165858   5.143   6.742  15.163  0.3309 -0.3285 -0.3289
14789TIP3    H265859   5.222   6.802  15.278  0.8328  1.5217 -1.6212
14790TIP3   OH265860   5.745   1.946  12.336 -0.3225  0.1259 -0.4293
14790TIP3    H165861   5.832   1.981  12.318 -0.0507 -0.9696 -1.2954
14790TIP3    H265862   5.686   2.021  12.325  0.2570  0.3563 -2.1626
14791TIP3   OH265863   6.489   6.812  11.459 -0.3544  0.0991 -0.1438
14791TIP3    H165864   6.583   6.815  11.477 -0.2336  0.5484 -0.8048
14791TIP3    H265865   6.483   6.798  11.364 -0.9175  2.6329 -0.5378
14792TIP3   OH265866   6.371   5.023   5.026  0.1461 -0.4655 -0.4656
14792TIP3    H165867   6.411   4.958   5.084  0.7465 -0.1956 -0.5830
14792TIP3    H265868   6.368   4.980   4.940 -0.5185 -0.7720 -0.2953
14793TIP3   OH265869   3.858   1.166   1.889  0.2285  0.4126  0.2474
14793TIP3    H165870   3.776   1.213   1.879  0.2033  0.1179 -0.8801
14793TIP3    H265871   3.835   1.073   1.879  0.1418  0.0452  3.2349
14794TIP3   OH265872   2.131   2.795  12.320  0.0948  0.1856 -0.3376
14794TIP3    H165873   2.148   2.703  12.342  0.6126  0.2710 -0.3841
14794TIP3    H265874   2.197   2.845  12.368 -0.0717  0.5227 -0.4565
14795TIP3   OH265875   1.996   2.951  11.154 -0.1257  0.5343 -0.2797
14795TIP3    H165876   2.019   2.999  11.075 -0.3792 -0.6971 -1.1296
14795TIP3    H265877   2.053   2.874  11.153 -0.9601 -0.1030  0.0947
14796TIP3   OH265878   1.240   0.308  11.407 -0.1311 -0.5894 -0.2826
14796TIP3    H165879   1.323   0.270  11.437  0.6217  0.5888 -0.8007
14796TIP3    H265880   1.266   0.392  11.367 -1.4898 -0.5808 -1.1657
14797TIP3   OH265881   3.191   0.654  15.676  0.3787  0.4345 -0.2693
14797TIP3    H165882   3.154   0.629  15.591 -1.1084 -1.9598  1.0226
14797TIP3    H265883   3.159   0.742  15.692 -0.6804  0.2676 -1.4448
14798TIP3   OH265884   0.673   5.335  16.847  0.1878 -0.3017 -0.3675
14798TIP3    H165885   0.676   5.252  16.800 -0.4807  0.4882 -1.8110
14798TIP3    H265886   0.700   5.401  16.783 -2.5079  1.0169 -0.2279
14799TIP3   OH265887   3.616   0.982   0.441  0.2286 -0.1635 -0.1997
14799TIP3    H165888   3.625   1.010   0.532  1.5027 -0.4714 -0.2129
14799TIP3    H265889   3.657   1.053   0.390 -2.1877  0.9351 -0.6872
14800TIP3   OH265890   5.660   3.412  16.448  0.0179 -0.0646 -0.3291
14800TIP3    H165891   5.663   3.340  16.511  2.7874  1.7979  1.8270
14800TIP3    H265892   5.752   3.435  16.434 -0.7589  2.7128 -1.2941
14801TIP3   OH265893   2.280   2.788  12.057  0.1841  0.0473  0.2652
14801TIP3    H165894   2.246   2.723  12.118  0.6184 -0.9345 -0.5298
14801TIP3    H265895   2.208   2.849  12.044 -0.4598 -0.6732  0.4625
14802TIP3   OH265896   3.382   3.703  14.031 -0.0588  0.5911  0.1044
14802TIP3    H165897   3.439   3.652  13.973  0.7739  1.3390  0.2347
14802TIP3    H265898   3.305   3.722  13.978  0.0045 -0.0711 -0.2285
14803TIP3   OH265899   3.410   6.319  15.129  0.7280  0.1242  0.7694
14803TIP3    H165900   3.348   6.267  15.078  1.1196 -2.0175  2.3867
14803TIP3    H265901   3.400   6.408  15.096 -0.7336 -0.7777 -1.3576
14804TIP3   OH265902   4.984   0.158  13.119 -0.2995 -0.2894 -0.1470
14804TIP3    H165903   5.008   0.084  13.174 -1.9845 -1.5913 -1.0903
14804TIP3    H265904   5.050   0.160  13.050  0.2882 -0.3127  0.4176
14805TIP3   OH265905   3.096   1.079   5.928  0.2377  0.1598  0.4818
14805TIP3    H165906   3.119   0.987   5.937  1.0384  0.3542  0.4211
14805TIP3    H265907   3.150   1.124   5.992  2.4765  1.0033 -1.9072
14806TIP3   OH265908   1.018   0.225  14.039 -0.6665  0.2423 -0.2118
14806TIP3    H165909   0.925   0.207  14.024 -0.0243 -1.9521 -1.6711
14806TIP3    H265910   1.036   0.304  13.987 -2.3131  2.3385  2.2541
14807TIP3   OH265911   1.134   4.287  13.217  0.2278  0.0281 -0.2172
14807TIP3    H165912   1.075   4.338  13.161  0.3264  1.5584  1.0646
14807TIP3    H265913   1.134   4.333  13.301  2.2861 -0.6574  0.1762
14808TIP3   OH265914   5.573   4.312  14.967 -0.1383  0.1822 -0.7482
14808TIP3    H165915   5.593   4.223  14.937 -1.1602  0.2620 -1.6563
14808TIP3    H265916   5.490   4.303  15.014 -1.1567  0.9579 -2.3683
14809TIP3   OH265917   6.397   3.660   2.508 -0.0177 -0.4008 -0.0390
14809TIP3    H165918   6.487   3.693   2.500 -0.8426  1.8298 -0.5260
14809TIP3    H265919   6.380   3.658   2.602 -0.8990  3.3952 -0.0367
14810TIP3   OH265920   3.472   5.941   3.013  0.1988  0.3207 -0.2785
14810TIP3    H165921   3.550   5.992   3.034  0.1214  0.9531 -1.4973
14810TIP3    H265922   3.424   5.995   2.949 -1.5693  0.2471  0.9349
14811TIP3   OH265923   3.221   1.475   6.710  0.2006  0.3566  0.2342
14811TIP3    H165924   3.289   1.535   6.740 -0.7665  0.7859  1.6288
14811TIP3    H265925   3.139   1.525   6.716 -0.2761 -0.2430 -1.1350
14812TIP3   OH265926   3.246   0.612   2.677  0.6895 -0.1920  0.2716
14812TIP3    H165927   3.170   0.664   2.703  0.6146 -0.2484  0.1650
14812TIP3    H265928   3.283   0.581   2.760  1.4536  1.0450  0.4044
14813TIP3   OH265929   4.494   2.373  13.004  0.7406  0.1545 -0.0437
14813TIP3    H165930   4.448   2.297  12.968 -0.9044  0.3549  1.6077
14813TIP3    H265931   4.558   2.396  12.936 -0.7730 -0.8481 -1.8506
14814TIP3   OH265932   1.545   1.822  14.167  0.6137 -0.1456  0.2160
14814TIP3    H165933   1.497   1.743  14.191 -0.9648  0.1632 -1.7670
14814TIP3    H265934   1.524   1.836  14.075  0.6939  2.6818  0.5741
14815TIP3   OH265935   2.850   0.707  14.102 -0.2476  0.2944  0.3744
14815TIP3    H165936   2.942   0.699  14.130  0.1308 -0.7406 -1.0733
14815TIP3    H265937   2.807   0.630  14.141  0.0267 -0.5064 -0.8651
14816TIP3   OH265938   0.203   1.233  13.357 -0.0798 -0.3565  0.1015
14816TIP3    H165939   0.264   1.213  13.428  0.1166 -0.6476 -0.1493
14816TIP3    H265940   0.150   1.305  13.391  0.9747  0.4786  0.0090
14817TIP3   OH265941   1.276   2.158   2.047  0.0783  0.3047  0.5096
14817TIP3    H165942   1.312   2.168   2.135 -1.7211  1.0957  1.1748
14817TIP3    H265943   1.187   2.193   2.053 -0.0888  0.3133 -1.6096
14818TIP3   OH265944   2.441   2.182   1.140  0.2826  0.1363  0.0241
14818TIP3    H165945   2.469   2.195   1.049 -1.3106  0.2786 -0.4513
14818TIP3    H265946   2.464   2.091   1.159  2.4273  0.6689  0.1407
14819TIP3   OH265947   2.960   0.618   2.009 -0.2053  0.0983 -0.0509
14819TIP3    H165948   3.039   0.567   1.990 -0.1908  0.0846  0.0448
14819TIP3    H265949   2.891   0.552   2.018 -0.1698  0.0869  0.1614
14820TIP3   OH265950   6.770   0.136  16.732 -0.0231  0.1644 -0.0725
14820TIP3    H165951   6.854   0.099  16.762 -0.1478  1.0220  1.3774
14820TIP3    H265952   6.709   0.062  16.736  0.2482 -0.0279  0.6410
14821TIP3   OH265953   3.089   1.917   5.085 -0.0804 -0.5023 -0.4030
14821TIP3    H165954   3.049   1.962   5.011  2.4188  0.6746 -1.1099
14821TIP3    H265955   3.018   1.867   5.125 -2.0470  0.9405 -2.0070
14822TIP3   OH265956   4.002   0.933  10.724 -0.5508  0.4073  0.0240
14822TIP3    H165957   4.053   0.941  10.644  0.0975 -0.1044  0.3822
14822TIP3    H265958   3.922   0.888  10.698 -0.2432  0.0490 -0.2918
14823TIP3   OH265959   4.397   1.816  13.423 -0.3027  0.1001 -0.3951
14823TIP3    H165960   4.320   1.828  13.368 -0.7418 -1.9575 -0.2839
14823TIP3    H265961   4.365   1.767  13.498  1.3536 -2.1474 -1.0763
14824TIP3   OH265962   0.812   1.690  12.716 -0.2314  0.3165  0.3991
14824TIP3    H165963   0.906   1.693  12.701  0.1384 -2.6691  1.7576
14824TIP3    H265964   0.787   1.781  12.728  2.7287  1.0476  1.4684
14825TIP3   OH265965   4.666   5.726   0.160 -0.1075  0.0157  0.3703
14825TIP3    H165966   4.574   5.703   0.149  0.4898 -1.4821 -1.8685
14825TIP3    H265967   4.672   5.817   0.134 -0.9375  0.0591  0.3448
14826TIP3   OH265968   0.848   5.015   3.688 -0.4324  0.1348 -0.6789
14826TIP3    H165969   0.764   4.973   3.667 -0.2141  0.2825 -1.8870
14826TIP3    H265970   0.893   4.952   3.744  0.3219 -1.7281 -3.3079
14827TIP3   OH265971   5.371   3.366  13.076 -0.3475 -0.7604  0.0042
14827TIP3    H165972   5.425   3.287  13.071  1.5858  0.6575 -2.7157
14827TIP3    H265973   5.406   3.414  13.151  0.3966 -1.1430 -0.0894
14828TIP3   OH265974   5.553   2.143   2.975 -0.3060 -0.2441 -0.1494
14828TIP3    H165975   5.459   2.129   2.965 -0.2470 -0.4810 -0.3858
14828TIP3    H265976   5.562   2.236   2.997 -0.8564 -1.0532  3.8445
14829TIP3   OH265977   0.552   0.800  13.913  0.1753 -0.1041 -0.4238
14829TIP3    H165978   0.603   0.832  13.838 -1.1054  0.0745 -1.2341
14829TIP3    H265979   0.617   0.787  13.982  0.8029  3.8651 -0.1577
14830TIP3   OH265980   3.601   3.564  13.943  0.7532 -0.4865 -0.1091
14830TIP3    H165981   3.653   3.489  13.971 -1.7347 -1.2537  2.6744
14830TIP3    H265982   3.665   3.636  13.939  2.8861 -2.3652 -1.4032
14831TIP3   OH265983   6.473   4.838  13.967  0.5154 -0.2513 -0.2350
14831TIP3    H165984   6.560   4.842  14.007 -0.2040  3.1229  1.1009
14831TIP3    H265985   6.416   4.885  14.028 -1.5777  0.6598 -2.8102
14832TIP3   OH265986   2.660   4.326  14.909  0.1933 -0.1218  0.3919
14832TIP3    H165987   2.734   4.266  14.898  0.5889  0.1530  1.5008
14832TIP3    H265988   2.669   4.388  14.837  1.2349  0.1008  0.7051
14833TIP3   OH265989   4.169   3.684   5.589 -0.1890 -0.2461  0.0344
14833TIP3    H165990   4.100   3.626   5.621  1.0665 -1.4280  0.6518
14833TIP3    H265991   4.207   3.721   5.669  2.2930 -2.4378 -0.0575
14834TIP3   OH265992   4.016   5.421  13.372 -0.4604 -0.3636 -0.8581
14834TIP3    H165993   4.058   5.367  13.439 -0.7288 -0.9530 -1.1598
14834TIP3    H265994   3.965   5.485  13.422  0.2245 -0.0958 -0.4984
14835TIP3   OH265995   5.131   0.387   1.858  0.7351  0.1019  0.0192
14835TIP3    H165996   5.181   0.323   1.807  1.0221 -0.7732  1.4069
14835TIP3    H265997   5.194   0.422   1.921  0.1662  0.6307  0.3005
14836TIP3   OH265998   1.093   5.454  15.734 -0.1490  0.2695  0.2911
14836TIP3    H165999   1.059   5.432  15.821  1.0399  0.8812  0.9241
14836TIP3    H266000   1.181   5.416  15.732 -0.3316 -0.0986 -0.8025
14837TIP3   OH266001   2.547   0.841   3.358  0.4174  0.0285 -0.2004
14837TIP3    H166002   2.488   0.916   3.363  0.6588  0.4587 -3.2574
14837TIP3    H266003   2.493   0.770   3.321  0.8364 -0.6318  0.4309
14838TIP3   OH266004   1.228   5.965   4.086 -0.6288 -0.1643  0.3054
14838TIP3    H166005   1.288   5.893   4.066 -0.4193  0.3701 -1.1008
14838TIP3    H266006   1.269   6.011   4.159  1.3323  0.8717 -1.3604
14839TIP3   OH266007   5.596   4.221   0.327 -0.4865 -0.1699  0.3581
14839TIP3    H166008   5.690   4.208   0.341 -0.2461  0.2210 -0.8937
14839TIP3    H266009   5.582   4.314   0.345 -0.7887 -0.3933  1.3351
14840TIP3   OH266010   4.751   3.282   6.189  0.0781  0.0207 -0.4747
14840TIP3    H166011   4.811   3.207   6.194 -2.8398 -2.3206  0.9749
14840TIP3    H266012   4.692   3.270   6.263 -2.1590  2.2685 -1.8317
14841TIP3   OH266013   3.668   4.799  16.762  0.0437 -0.1954  0.1316
14841TIP3    H166014   3.688   4.888  16.735 -1.3069 -0.0836 -0.5231
14841TIP3    H266015   3.754   4.756  16.768  0.8614  1.6005  2.1520
14842TIP3   OH266016   3.875   6.271  12.587  0.2435 -0.6557 -0.1194
14842TIP3    H166017   3.964   6.286  12.555  0.5819 -0.5281  0.8666
14842TIP3    H266018   3.852   6.350  12.636  0.0527 -1.1774  0.6540
14843TIP3   OH266019   3.475   3.120  13.861 -0.0184  0.3969 -0.2158
14843TIP3    H166020   3.543   3.070  13.815 -0.2727 -0.5695  0.4536
14843TIP3    H266021   3.442   3.181  13.795  0.9627  0.3437 -0.7686
14844TIP3   OH266022   2.385   6.696   0.465 -0.2569  0.5918 -0.0116
14844TIP3    H166023   2.340   6.755   0.405 -0.2236 -0.2996 -0.9374
14844TIP3    H266024   2.463   6.667   0.416  0.7532  1.2954  1.1674
14845TIP3   OH266025   4.763   0.147  13.643  0.1164 -0.0682  0.5406
14845TIP3    H166026   4.708   0.071  13.627  2.0476 -1.5221  0.5875
14845TIP3    H266027   4.838   0.112  13.692  1.9371  1.5176 -1.0264
14846TIP3   OH266028   4.608   0.759   0.813  0.0608 -0.0370 -0.4229
14846TIP3    H166029   4.702   0.745   0.827  0.1942  0.6710 -0.5646
14846TIP3    H266030   4.601   0.853   0.797 -0.7878  0.0479  0.4516
14847TIP3   OH266031   6.513   0.271  12.267  0.7657  0.3685  0.2128
14847TIP3    H166032   6.562   0.349  12.242 -0.5630  0.6740 -1.5417
14847TIP3    H266033   6.429   0.303  12.297 -0.0438 -0.3854 -1.1660
14848TIP3   OH266034   0.000   1.910   4.469  0.3970  0.2158  0.2209
14848TIP3    H166035  -0.087   1.922   4.431 -0.9932 -5.1901  1.2609
14848TIP3    H266036  -0.015   1.907   4.563  1.5562 -1.6186  0.3663
14849TIP3   OH266037   1.541   3.298   1.092  0.1776 -0.2968  0.0357
14849TIP3    H166038   1.634   3.299   1.067 -0.5704 -0.5421 -2.9518
14849TIP3    H266039   1.511   3.210   1.069 -1.1277  0.2378 -0.3657
14850TIP3   OH266040   6.716   6.378   3.419  0.6525 -0.0114 -0.1832
14850TIP3    H166041   6.729   6.382   3.513  0.4589  0.9625 -0.1925
14850TIP3    H266042   6.703   6.284   3.401  0.2314 -0.1553  0.8138
14851TIP3   OH266043   5.070   0.276  12.535  0.2026  0.3660 -0.4896
14851TIP3    H166044   5.012   0.318  12.471 -1.2380 -0.1749  0.4326
14851TIP3    H266045   5.080   0.342  12.604 -3.1857 -1.1889  1.6395
14852TIP3   OH266046   3.629   5.412   1.604 -0.5346  0.2522  0.5783
14852TIP3    H166047   3.700   5.421   1.667 -0.0982 -1.1278  0.3048
14852TIP3    H266048   3.554   5.386   1.657 -0.0066 -1.5506  0.4649
14853TIP3   OH266049   2.872   1.781  12.433 -0.4653  0.2588 -0.7682
14853TIP3    H166050   2.921   1.712  12.389  0.2372 -0.8021  1.5874
14853TIP3    H266051   2.872   1.854  12.372  2.4314 -0.3773 -1.5876
14854TIP3   OH266052   4.839   5.350   3.456 -0.4562 -0.0593 -0.0257
14854TIP3    H166053   4.920   5.388   3.421  0.9523 -1.7359  1.2846
14854TIP3    H266054   4.815   5.409   3.528  0.3138 -0.2265  0.3827
14855TIP3   OH266055   1.705   0.637  14.804 -0.4311 -0.2200  0.1343
14855TIP3    H166056   1.717   0.701  14.873 -0.9890  0.2176 -0.1723
14855TIP3    H266057   1.622   0.595  14.823  0.3254 -1.4336  0.7968
14856TIP3   OH266058   2.064   4.611  11.420 -0.3382  0.1296  0.6389
14856TIP3    H166059   1.974   4.613  11.387 -0.2593  1.2998  0.4794
14856TIP3    H266060   2.111   4.556  11.357 -1.2277 -1.6432  1.4849
14857TIP3   OH266061   3.321   3.808   3.206 -0.6472  0.0020  0.5610
14857TIP3    H166062   3.309   3.752   3.130  1.1564 -1.5443  1.3696
14857TIP3    H266063   3.266   3.768   3.274 -0.1179 -0.2335  0.8545
14858TIP3   OH266064   0.212   6.092  13.812  0.9453 -0.1572 -0.0487
14858TIP3    H166065   0.187   6.061  13.725 -0.1967  2.9800 -0.9077
14858TIP3    H266066   0.148   6.053  13.871  0.7452 -1.0062 -0.8315
14859TIP3   OH266067   5.237   3.141   2.173  0.2161 -0.3708 -0.3832
14859TIP3    H166068   5.179   3.089   2.118  0.5473 -0.5633 -0.5553
14859TIP3    H266069   5.191   3.224   2.185 -0.9482 -1.1926  1.0429
14860TIP3   OH266070   6.665   3.479  16.148  0.3440 -0.1305  0.2358
14860TIP3    H166071   6.601   3.431  16.200 -0.3898 -0.4446 -0.9378
14860TIP3    H266072   6.613   3.523  16.081  1.5860 -3.0934 -2.8607
14861TIP3   OH266073   3.430   0.994   6.420  0.0050 -0.4630  0.4166
14861TIP3    H166074   3.520   0.963   6.416 -0.0779 -0.7410  0.7177
14861TIP3    H266075   3.436   1.082   6.458  0.2099 -0.2175 -0.1669
14862TIP3   OH266076   4.651   0.640  11.154 -0.0581  0.3975  0.4243
14862TIP3    H166077   4.562   0.642  11.118 -0.1319  0.5871  0.6132
14862TIP3    H266078   4.707   0.658  11.079 -0.2709  1.7906  0.5818
14863TIP3   OH266079   3.167   1.867   3.980 -0.5142 -0.4490 -0.0095
14863TIP3    H166080   3.261   1.864   3.964 -0.4956 -0.0552  0.0312
14863TIP3    H266081   3.139   1.775   3.974 -0.1424 -0.5580 -0.0942
14864TIP3   OH266082   3.425   3.292   1.214 -0.1189 -0.4490 -0.4013
14864TIP3    H166083   3.395   3.369   1.262 -2.5551 -0.3283 -2.0393
14864TIP3    H266084   3.521   3.298   1.215 -0.2851  2.5245 -0.4313
14865TIP3   OH266085   1.063   1.467  11.395 -0.4637  0.2098 -0.3540
14865TIP3    H166086   1.104   1.549  11.422  0.2123 -0.5798  1.0521
14865TIP3    H266087   0.970   1.480  11.414 -0.4348  0.8272 -0.6077
14866TIP3   OH266088   6.008   3.916   5.940 -0.5328  0.1566  0.0140
14866TIP3    H166089   6.011   3.911   5.844  0.8657 -0.0803  0.0598
14866TIP3    H266090   6.061   3.993   5.961  0.6689 -0.8166  0.6678
14867TIP3   OH266091   5.670   5.599   1.277 -0.1631  0.6686 -0.3933
14867TIP3    H166092   5.655   5.689   1.245  0.6336  0.2019 -2.1462
14867TIP3    H266093   5.604   5.587   1.345 -0.8675  2.2870 -0.7583
14868TIP3   OH266094   4.969   6.210  11.785 -0.3418  0.0008  0.5239
14868TIP3    H166095   4.953   6.233  11.694 -2.8924 -0.1280  0.9038
14868TIP3    H266096   5.005   6.121  11.781  1.3616  0.6910 -0.4229
14869TIP3   OH266097   0.351   4.810  15.265  0.6524 -0.1278 -0.0711
14869TIP3    H166098   0.440   4.779  15.245  0.3303 -0.0021 -1.7373
14869TIP3    H266099   0.310   4.823  15.180 -0.5941  0.9339  0.6649
14870TIP3   OH266100   5.105   4.933  14.660  0.9159  0.3675  0.2224
14870TIP3    H166101   5.125   5.023  14.636  1.2152  0.6020  1.3372
14870TIP3    H266102   5.173   4.909  14.724 -0.4942  0.1209  1.6688
14871TIP3   OH266103   0.750   0.365  13.122  0.6589 -0.3651 -0.1039
14871TIP3    H166104   0.667   0.334  13.157 -0.6810  1.0827 -1.8518
14871TIP3    H266105   0.773   0.441  13.175  0.8085 -0.7001  0.3093
14872TIP3   OH266106   5.924   5.193  13.174  0.1187  0.1142 -0.1980
14872TIP3    H166107   5.829   5.180  13.180  0.1191  0.2651  0.1370
14872TIP3    H266108   5.939   5.215  13.083 -0.1807  0.1702 -0.2361
14873TIP3   OH266109   0.679   4.270  14.206  0.1597  0.0708 -0.0441
14873TIP3    H166110   0.633   4.298  14.127 -0.0728  1.9377  0.7299
14873TIP3    H266111   0.760   4.231  14.174  0.1450  0.9631 -1.1848
14874TIP3   OH266112   5.221   3.739  11.405  0.8164  0.5530 -0.4737
14874TIP3    H166113   5.257   3.653  11.388 -0.5741 -0.0030 -0.6666
14874TIP3    H266114   5.296   3.799  11.398  1.4580 -0.4187 -2.0994
14875TIP3   OH266115   1.305   1.401  14.313 -0.3528  0.2278  0.0223
14875TIP3    H166116   1.363   1.326  14.326 -0.4384  0.5586  2.4043
14875TIP3    H266117   1.238   1.369  14.253  0.3863 -1.1722 -0.0757
14876TIP3   OH266118   4.260   2.019  14.253  0.0112 -0.4521  0.3609
14876TIP3    H166119   4.305   2.103  14.257  0.7266 -0.7791 -0.6521
14876TIP3    H266120   4.167   2.041  14.259  0.2440  0.3129  1.2632
14877TIP3   OH266121   5.966   4.223  13.782 -0.7216  0.2830 -0.4012
14877TIP3    H166122   6.039   4.227  13.721 -0.1885 -1.3727  0.1170
14877TIP3    H266123   5.993   4.159  13.848 -1.8489  1.0546  0.8308
14878TIP3   OH266124   6.599   1.523  16.236 -0.4303  0.1328  0.1883
14878TIP3    H166125   6.675   1.574  16.209  0.3405 -0.4677  1.2204
14878TIP3    H266126   6.626   1.432  16.225 -1.4848 -0.0835 -0.7556
14879TIP3   OH266127   1.451   1.835  15.622 -0.2886 -0.5771 -0.2789
14879TIP3    H166128   1.465   1.901  15.554  0.3012 -0.3035  0.1063
14879TIP3    H266129   1.374   1.867  15.670  1.0659  0.7870  1.0395
14880TIP3   OH266130   3.680   0.315  16.262 -0.1375 -0.8781 -0.2066
14880TIP3    H166131   3.774   0.309  16.279  0.1429  1.5273 -0.6666
14880TIP3    H266132   3.675   0.346  16.171 -1.3831 -1.1866 -0.2489
14881TIP3   OH266133   1.849   4.722  16.909 -0.2587  0.3706 -0.2651
14881TIP3    H166134   1.853   4.727  16.813 -2.1082  0.3632 -0.3502
14881TIP3    H266135   1.941   4.717  16.936  0.2390 -3.8286 -2.2945
14882TIP3   OH266136   2.774   5.913   5.279  0.4100  0.3407 -0.7148
14882TIP3    H166137   2.840   5.982   5.287  0.6785  0.3439 -2.8248
14882TIP3    H266138   2.787   5.877   5.192 -1.5546 -0.5308 -0.6656
14883TIP3   OH266139   6.138   2.082  14.253  0.2824  0.0814  0.0701
14883TIP3    H166140   6.077   2.008  14.250 -1.1763  1.2448  0.6834
14883TIP3    H266141   6.088   2.152  14.294  1.7642  1.3212 -0.2329
14884TIP3   OH266142   3.945   3.975   1.892  0.0691 -0.2516 -0.5533
14884TIP3    H166143   3.992   4.056   1.873 -0.2940  0.2893  0.8059
14884TIP3    H266144   3.926   3.938   1.806  1.5394  0.3484 -1.1541
14885TIP3   OH266145   5.944   2.003   2.391  0.4039  0.6083  0.0812
14885TIP3    H166146   5.998   2.072   2.351  0.6176  0.8474  0.7828
14885TIP3    H266147   5.985   1.922   2.362 -0.3739  0.7466 -1.4891
14886TIP3   OH266148   2.598   0.853  16.124 -0.4124 -0.2608  0.2770
14886TIP3    H166149   2.514   0.827  16.086 -0.2363 -2.4538  1.3126
14886TIP3    H266150   2.621   0.934  16.078 -2.7610  0.0182 -0.4849
14887TIP3   OH266151   2.669   0.541  11.544  0.3419  0.0359 -0.8066
14887TIP3    H166152   2.692   0.634  11.532 -0.9152  0.3551 -0.7966
14887TIP3    H266153   2.644   0.512  11.456  1.7679 -0.6003 -1.0244
14888TIP3   OH266154   6.262   1.711  12.466  0.0401  0.2171 -0.2359
14888TIP3    H166155   6.319   1.720  12.389 -0.2284  1.9904 -0.2571
14888TIP3    H266156   6.321   1.721  12.540 -0.1179  1.3586 -0.2524
14889TIP3   OH266157   4.264   6.222  16.338  0.8578 -0.4495 -0.0396
14889TIP3    H166158   4.302   6.189  16.420  0.8211  0.8603  0.5104
14889TIP3    H266159   4.319   6.296  16.314 -0.1330  0.2024 -0.3149
14890TIP3   OH266160   1.855   5.759   0.254  0.4496  0.7962  0.8893
14890TIP3    H166161   1.776   5.812   0.250 -0.7435 -0.9399  0.7918
14890TIP3    H266162   1.873   5.737   0.163  1.5147  1.8399  0.8377
14891TIP3   OH266163   4.618   4.008   4.373 -0.2464 -0.5710 -0.3738
14891TIP3    H166164   4.586   3.980   4.458  1.1171  0.4282  0.4999
14891TIP3    H266165   4.572   4.091   4.356 -1.9014 -1.6799 -1.4905
14892TIP3   OH266166   6.109   0.386  13.247  0.5990 -0.0097  0.2611
14892TIP3    H166167   6.057   0.337  13.184 -1.7580 -1.2068  3.0387
14892TIP3    H266168   6.099   0.478  13.220 -0.3307 -0.4952 -1.1044
14893TIP3   OH266169   0.330   4.203   0.668 -0.1915  0.2708 -0.1023
14893TIP3    H166170   0.344   4.112   0.696 -0.0980  0.7354  1.3926
14893TIP3    H266171   0.246   4.200   0.621  0.5722 -0.8688 -1.4096
14894TIP3   OH266172   5.894   2.216   6.133  0.3536 -0.7482 -0.5840
14894TIP3    H166173   5.850   2.131   6.139 -0.7015 -0.3101 -1.6965
14894TIP3    H266174   5.950   2.220   6.210 -0.5162 -1.9273  0.1330
14895TIP3   OH266175   4.055   6.472  15.655 -0.1065 -0.0732  0.3968
14895TIP3    H166176   3.961   6.453  15.652  0.1105 -1.4237  1.3098
14895TIP3    H266177   4.086   6.423  15.732  1.1315  1.3012  0.7879
14896TIP3   OH266178   5.569   3.441   4.850  0.0811 -0.0961 -0.3711
14896TIP3    H166179   5.490   3.389   4.834  0.6350 -0.8006 -0.8721
14896TIP3    H266180   5.640   3.386   4.818  0.7283  0.7514 -0.4043
14897TIP3   OH266181   1.019   1.980   3.981  0.4709 -0.5719  0.2220
14897TIP3    H166182   1.098   1.994   3.928 -0.8594 -2.1654 -2.2656
14897TIP3    H266183   0.962   2.054   3.960  0.1546 -0.9219 -0.1473
14898TIP3   OH266184   0.474   6.464  16.146 -0.0494 -1.0986  0.2244
14898TIP3    H166185   0.481   6.453  16.051 -0.2038 -0.6340  0.1607
14898TIP3    H266186   0.543   6.526  16.168 -0.3144 -0.8508  0.3541
14899TIP3   OH266187   6.558   3.013   4.752 -0.1589 -0.0099 -0.1059
14899TIP3    H166188   6.529   3.070   4.823  0.6035  0.3806 -0.1032
14899TIP3    H266189   6.518   3.050   4.673  0.3478  0.5584 -0.1080
14900TIP3   OH266190   6.562   4.490  12.956 -0.2678  0.1132 -0.0493
14900TIP3    H166191   6.473   4.460  12.974 -0.6639 -0.0295 -2.1470
14900TIP3    H266192   6.596   4.427  12.892  0.9479  0.8253 -0.1202
14901TIP3   OH266193   4.330   6.744   0.749 -0.3911 -0.1335 -0.0323
14901TIP3    H166194   4.395   6.756   0.818  0.0940  0.0999 -0.5248
14901TIP3    H266195   4.290   6.660   0.768  0.8537 -0.8158 -0.3772
14902TIP3   OH266196   5.946   1.758  14.520 -0.0451 -0.0767 -0.1777
14902TIP3    H166197   5.850   1.763  14.520 -0.0210  0.4664  0.4008
14902TIP3    H266198   5.973   1.830  14.576  0.6496 -1.2933  1.0809
14903TIP3   OH266199   3.139   0.993   1.722 -0.3454 -0.4698  0.3675
14903TIP3    H166200   3.180   0.922   1.770  0.7487  1.0077  1.6866
14903TIP3    H266201   3.195   1.005   1.644 -1.6121 -2.2706 -0.8520
14904TIP3   OH266202   0.901   3.682  11.789  0.0274  0.5008  0.2421
14904TIP3    H166203   0.902   3.715  11.699  0.4290  0.2377  0.1462
14904TIP3    H266204   0.874   3.590  11.781  0.3922  0.3815  0.3540
14905TIP3   OH266205   0.682   4.550  13.351  0.3795 -0.2783  0.3757
14905TIP3    H166206   0.680   4.631  13.402 -1.8008 -1.4230  2.1850
14905TIP3    H266207   0.643   4.573  13.267 -0.9544  0.3640  1.1653
14906TIP3   OH266208   2.353   2.926   5.301  0.0026 -0.3254 -0.2893
14906TIP3    H166209   2.388   2.944   5.213  0.0674  1.2782  0.0420
14906TIP3    H266210   2.272   2.978   5.304 -1.3624 -2.3841 -0.3121
14907TIP3   OH266211   4.904   6.345   0.492 -0.4462 -0.1914  0.4639
14907TIP3    H166212   4.986   6.298   0.509  0.2187  0.8932  0.2582
14907TIP3    H266213   4.931   6.426   0.449 -1.3793  1.5325  3.0071
14908TIP3   OH266214   2.710   5.994  10.616  0.1881 -0.2612 -0.6690
14908TIP3    H166215   2.799   5.988  10.652 -0.0330  0.0705 -0.0576
14908TIP3    H266216   2.681   6.082  10.638 -1.9745 -1.7830  3.1738
14909TIP3   OH266217   3.062   2.208  12.755 -0.2633  0.3898 -0.2839
14909TIP3    H166218   3.018   2.222  12.671  0.0257 -0.1895 -0.5313
14909TIP3    H266219   3.149   2.176  12.732 -1.3285 -3.1352  0.2637
14910TIP3   OH266220   1.948   4.259   4.045  0.0339  0.0342 -0.2767
14910TIP3    H166221   1.973   4.314   4.119  1.7626 -0.1905 -0.6807
14910TIP3    H266222   1.961   4.314   3.968  2.6770 -1.1693 -0.7665
14911TIP3   OH266223   5.791   0.653   0.487  0.1920  0.3564 -0.0785
14911TIP3    H166224   5.858   0.586   0.476 -0.2342 -0.0335 -0.3137
14911TIP3    H266225   5.824   0.710   0.556  0.4327 -0.2464  0.3008
14912TIP3   OH266226   6.300   0.222   2.546 -0.1945 -0.2877  0.0592
14912TIP3    H166227   6.304   0.127   2.560 -0.7711 -0.5465 -1.4956
14912TIP3    H266228   6.208   0.240   2.526 -0.0613  0.5922  0.1966
14913TIP3   OH266229   5.172   1.974   1.666 -0.4656  0.2166  0.1418
14913TIP3    H166230   5.102   2.013   1.719  0.1175  1.4384  0.0349
14913TIP3    H266231   5.167   2.020   1.582  0.2739  0.1050  0.0338
14914TIP3   OH266232   5.669   0.975   5.835  0.1245  0.0406  0.2011
14914TIP3    H166233   5.611   0.921   5.888  0.1088  1.5879  1.8019
14914TIP3    H266234   5.628   0.977   5.749 -0.7471 -1.1099  0.5744
14915TIP3   OH266235   0.267   4.508  17.089  0.0216 -0.0232  0.1358
14915TIP3    H166236   0.283   4.519  16.996  2.2821  0.9657  0.6007
14915TIP3    H266237   0.251   4.596  17.122  1.2162 -0.1051  0.9969
14916TIP3   OH266238   5.796   4.089  13.027  0.0589  0.2862 -0.3734
14916TIP3    H166239   5.870   4.090  13.087  0.2988  1.4060 -0.6781
14916TIP3    H266240   5.785   3.997  13.004  0.8720  0.0262  0.2624
14917TIP3   OH266241   6.247   6.218  11.655 -0.1222 -0.0817  0.3244
14917TIP3    H166242   6.330   6.207  11.609  0.9573  1.0340  1.9305
14917TIP3    H266243   6.246   6.147  11.719 -0.4874 -0.2028  0.1835
14918TIP3   OH266244   4.551   1.527  12.344  0.0169  0.4710 -0.0553
14918TIP3    H166245   4.520   1.577  12.269  1.0472  0.6448 -0.3842
14918TIP3    H266246   4.609   1.587  12.391 -0.0950  0.1438  0.5033
14919TIP3   OH266247   0.972   1.204  11.573 -0.5373 -0.2590  0.2580
14919TIP3    H166248   0.920   1.163  11.643 -0.4651 -0.8131 -0.0155
14919TIP3    H266249   0.913   1.271  11.537 -1.2709 -1.2784 -0.4338
14920TIP3   OH266250   5.192   2.684   5.129 -0.1965  0.7982  0.3764
14920TIP3    H166251   5.282   2.657   5.145  0.0764  1.7287  0.4822
14920TIP3    H266252   5.138   2.613   5.163  0.5372 -0.6000 -1.3205
14921TIP3   OH266253   5.040   6.500  10.576 -0.1541  0.4497 -0.3640
14921TIP3    H166254   5.132   6.486  10.598 -0.0776  0.8933 -0.3874
14921TIP3    H266255   5.001   6.413  10.575  0.3020  0.2501 -0.5116
14922TIP3   OH266256   1.055   2.872   2.629 -0.1496 -0.5977  0.1233
14922TIP3    H166257   0.979   2.886   2.572 -2.6677 -2.3609  2.9484
14922TIP3    H266258   1.076   2.959   2.663  0.8258  0.3304 -2.6803
14923TIP3   OH266259   0.563   3.053  16.312 -0.2914  0.1183 -0.1606
14923TIP3    H166260   0.533   3.081  16.399  0.1937  1.4739 -0.4192
14923TIP3    H266261   0.543   2.959  16.309 -0.9210  0.1973  1.1589
14924TIP3   OH266262   6.143   5.018  13.872 -0.3723  1.0197 -0.5231
14924TIP3    H166263   6.152   5.075  13.949  0.7698  1.9265 -1.3083
14924TIP3    H266264   6.207   4.949  13.885 -1.3825  0.1945  0.1653
14925TIP3   OH266265   5.879   2.900  11.036  0.0968 -0.0669  0.1496
14925TIP3    H166266   5.942   2.837  11.001  1.0316  0.9769 -0.0752
14925TIP3    H266267   5.801   2.888  10.983  0.9841  0.4170 -1.2933
14926TIP3   OH266268   5.303   0.957   6.584 -0.2453 -0.4250 -0.1247
14926TIP3    H166269   5.366   0.887   6.601  0.4493 -0.0200 -0.9444
14926TIP3    H266270   5.221   0.926   6.621  0.3749 -1.0880  0.7118
14927TIP3   OH266271   5.088   3.981  11.390 -0.0491  0.3030 -0.4604
14927TIP3    H166272   5.030   3.995  11.315 -1.3433  0.5456  0.5724
14927TIP3    H266273   5.093   3.886  11.398  0.0633  0.2756 -0.8281
14928TIP3   OH266274   0.960   5.148  12.447  0.7348  0.2954 -0.0610
14928TIP3    H166275   0.964   5.242  12.433  0.4338  0.5068  1.1718
14928TIP3    H266276   1.048   5.116  12.427  0.7781  0.7991 -0.6912
14929TIP3   OH266277   2.266   4.303   0.018  0.5125 -0.4520 -0.5876
14929TIP3    H166278   2.336   4.364   0.040  1.2897 -1.7920  0.7219
14929TIP3    H266279   2.187   4.356   0.019  0.9941  0.2594  1.9470
14930TIP3   OH266280   1.246   5.162  12.393 -0.1982 -0.4123  1.1259
14930TIP3    H166281   1.331   5.144  12.352 -1.6996 -1.5971 -1.6333
14930TIP3    H266282   1.264   5.162  12.487  3.1791  1.1204  0.5623
14931TIP3   OH266283   1.539   1.184  12.939  0.4011  0.6045 -0.4333
14931TIP3    H166284   1.629   1.161  12.963 -0.4583 -3.5583 -0.8590
14931TIP3    H266285   1.494   1.195  13.023  0.9221  1.1309 -0.2176
14932TIP3   OH266286   1.581   0.700   1.672  0.2439  0.0282  0.4730
14932TIP3    H166287   1.567   0.617   1.627  0.2845 -0.1331  0.7577
14932TIP3    H266288   1.515   0.759   1.635  1.2705  0.3278 -0.9012
14933TIP3   OH266289   0.314   2.413   3.151 -0.5543  0.0002  0.1121
14933TIP3    H166290   0.350   2.477   3.091  1.3789 -2.6877 -1.7381
14933TIP3    H266291   0.383   2.401   3.217 -0.3154 -1.1515 -0.3365
14934TIP3   OH266292   4.135   4.534   2.006  0.3961  0.3532 -0.0267
14934TIP3    H166293   4.047   4.497   2.012  0.6227  0.0649  1.8535
14934TIP3    H266294   4.139   4.598   2.077  1.8720 -0.0369  0.2602
14935TIP3   OH266295   1.788   3.269  13.662 -1.3037 -0.4913  0.2879
14935TIP3    H166296   1.851   3.318  13.715  0.3774 -1.3813 -0.8110
14935TIP3    H266297   1.805   3.177  13.684 -1.6295 -0.7807 -0.6397
14936TIP3   OH266298   6.475   1.225  14.728  0.0316  0.5099  0.3623
14936TIP3    H166299   6.546   1.180  14.773  0.2675  1.9377  1.4382
14936TIP3    H266300   6.435   1.280  14.795 -0.9290  1.0998 -0.6769
14937TIP3   OH266301   0.722   2.920  11.042 -0.2711  0.2354  0.3646
14937TIP3    H166302   0.671   2.848  11.077 -0.1075  1.1722  2.5966
14937TIP3    H266303   0.667   2.958  10.973 -0.6276 -1.5710 -0.3654
14938TIP3   OH266304   5.291   1.678  14.443 -0.1402  0.5278  0.8991
14938TIP3    H166305   5.234   1.604  14.465  1.1140 -0.6289  0.3111
14938TIP3    H266306   5.254   1.752  14.492 -0.8053 -0.7043  2.2884
14939TIP3   OH266307   0.517   2.794  16.262 -0.1385 -0.3577 -0.2486
14939TIP3    H166308   0.536   2.751  16.179  0.4028  0.5019 -0.5744
14939TIP3    H266309   0.571   2.747  16.326  0.1993 -0.3815 -0.5496
14940TIP3   OH266310   3.775   6.213  17.179 -0.4728  0.0205 -0.0326
14940TIP3    H166311   3.723   6.141  17.144 -0.6617 -0.9202  2.1561
14940TIP3    H266312   3.826   6.175  17.250  2.7076  1.0833 -1.6323
14941TIP3   OH266313   4.622   5.215   1.839  0.1690 -0.2985  0.0458
14941TIP3    H166314   4.534   5.196   1.871  0.1016 -0.8166 -0.4482
14941TIP3    H266315   4.626   5.175   1.752  0.7506  0.0802 -0.1050
14942TIP3   OH266316   3.431   2.045  12.155 -0.1327  0.1145  0.0652
14942TIP3    H166317   3.406   1.954  12.172 -1.4462  0.7607  1.6677
14942TIP3    H266318   3.407   2.059  12.063 -0.2878 -1.0228 -0.0772
14943TIP3   OH266319   3.366   1.271   4.282 -0.2202  0.0448 -0.2089
14943TIP3    H166320   3.445   1.284   4.333  0.6885 -0.7355 -1.3867
14943TIP3    H266321   3.364   1.177   4.264 -0.6458  0.2583 -1.3794
14944TIP3   OH266322   5.701   1.951   1.366  0.1545 -0.3168  0.3974
14944TIP3    H166323   5.673   1.897   1.292  1.4169 -0.0120 -0.3075
14944TIP3    H266324   5.712   1.889   1.438  0.2090 -0.7906 -0.0199
14945TIP3   OH266325   5.462   4.690  14.204 -0.1985 -0.1717 -0.0114
14945TIP3    H166326   5.440   4.632  14.276 -1.0000 -0.0951 -0.1875
14945TIP3    H266327   5.412   4.770  14.221  0.3492  0.2006 -0.1447
14946TIP3   OH266328   2.948   4.306  14.236 -0.2198 -0.3730 -0.1422
14946TIP3    H166329   2.981   4.251  14.165 -1.7917 -0.6913 -0.6683
14946TIP3    H266330   2.852   4.298  14.229 -0.4091 -0.0550  1.7250
14947TIP3   OH266331   3.420   0.236   5.699  0.2673 -0.0638 -0.1939
14947TIP3    H166332   3.472   0.263   5.775 -1.1339  2.4726 -0.0782
14947TIP3    H266333   3.459   0.284   5.626 -0.0665 -0.4360 -0.6162
14948TIP3   OH266334   1.280   1.886  12.242 -0.1365 -0.5608  0.1348
14948TIP3    H166335   1.266   1.828  12.167  0.7827 -0.2543 -0.2694
14948TIP3    H266336   1.206   1.947  12.239  0.9992  0.7772 -1.7584
14949TIP3   OH266337   3.801   2.283  16.137 -0.2817  0.1181 -0.2801
14949TIP3    H166338   3.795   2.245  16.224  0.2312  1.3283  0.3068
14949TIP3    H266339   3.892   2.314  16.130 -0.4108  0.3403 -1.1102
14950TIP3   OH266340   1.527   2.200  11.360 -0.3777  0.5904  0.1827
14950TIP3    H166341   1.588   2.143  11.406  2.1958  2.3801 -0.9422
14950TIP3    H266342   1.484   2.249  11.431 -0.5559 -0.6876  0.9803
14951TIP3   OH266343   5.623   2.055   3.319 -0.7366  0.0558 -0.0878
14951TIP3    H166344   5.621   1.973   3.369  0.9135  0.6125  0.9730
14951TIP3    H266345   5.558   2.111   3.361 -0.8610 -0.2244  0.0903
14952TIP3   OH266346   1.644   4.641   3.229 -0.4222 -0.3885  0.3653
14952TIP3    H166347   1.669   4.733   3.223 -0.4855 -0.4306 -0.6329
14952TIP3    H266348   1.564   4.635   3.176 -0.1297 -1.1148 -0.0075
14953TIP3   OH266349   1.009   6.466   1.759  0.1048  0.3638 -0.2898
14953TIP3    H166350   0.962   6.543   1.727 -0.6343 -0.6622 -1.7205
14953TIP3    H266351   0.954   6.392   1.733  0.9554 -0.6672  0.8027
14954TIP3   OH266352   4.728   5.203   0.699 -0.1479  0.1586 -0.3272
14954TIP3    H166353   4.774   5.261   0.759 -3.0844  1.3501  0.8885
14954TIP3    H266354   4.708   5.258   0.623 -0.0233 -0.1935 -0.6155
14955TIP3   OH266355   5.149   5.587  12.001  0.8103  0.1809  0.2045
14955TIP3    H166356   5.146   5.610  12.093  2.3686 -0.6219  0.4761
14955TIP3    H266357   5.109   5.662  11.956 -5.4082 -1.8158  1.8631
14956TIP3   OH266358   1.074   1.233   2.037 -0.9844 -0.7684 -0.2167
14956TIP3    H166359   1.071   1.189   1.953 -0.4127 -0.6134 -0.3234
14956TIP3    H266360   1.146   1.190   2.084 -1.0543 -0.6011  0.0428
14957TIP3   OH266361   5.159   5.298  13.737  0.1501  0.6034 -0.1043
14957TIP3    H166362   5.073   5.301  13.696 -0.0591 -0.9095  0.2035
14957TIP3    H266363   5.156   5.221  13.793  1.7664  0.4336 -0.2302
14958TIP3   OH266364   5.446   2.095  14.747  0.0642  0.1671  0.0131
14958TIP3    H166365   5.355   2.124  14.749 -0.0109 -0.0322 -0.5484
14958TIP3    H266366   5.451   2.037  14.671  0.2025 -1.3321  1.1487
14959TIP3   OH266367   4.029   5.977   3.895 -0.8601  0.8595 -0.3740
14959TIP3    H166368   3.999   6.023   3.817 -2.6116 -2.4164 -1.7300
14959TIP3    H266369   4.076   5.901   3.861  0.0646  0.4442  1.7695
14960TIP3   OH266370   0.099   4.114  13.905  0.3593 -0.6764  0.2306
14960TIP3    H166371   0.091   4.032  13.856 -0.6856  0.9019 -2.3346
14960TIP3    H266372   0.035   4.106  13.975 -0.3326 -1.7244 -0.4930
14961TIP3   OH266373   6.742   1.766   0.179 -0.2572  0.2428 -0.2244
14961TIP3    H166374   6.804   1.834   0.206 -0.9452  0.6303  0.4000
14961TIP3    H266375   6.687   1.751   0.256 -0.4244 -0.6723 -0.5130
14962TIP3   OH266376   0.483   1.144   0.844 -0.3043 -0.4335  0.4410
14962TIP3    H166377   0.574   1.113   0.851 -0.8796 -2.1793  0.3727
14962TIP3    H266378   0.447   1.094   0.771 -1.2247  0.4865  0.2720
14963TIP3   OH266379   3.247   4.315   1.596  0.2470 -0.5928 -0.3419
14963TIP3    H166380   3.210   4.278   1.676  0.2555  1.4890  0.6584
14963TIP3    H266381   3.340   4.292   1.599  0.2804 -0.3748  0.3365
14964TIP3   OH266382   2.858   1.122   5.085 -0.6954  0.4061  0.0217
14964TIP3    H166383   2.827   1.122   4.995 -0.4513  1.0179 -0.0646
14964TIP3    H266384   2.946   1.159   5.080 -0.3434 -0.3662  0.3950
14965TIP3   OH266385   2.033   4.903   3.285 -0.1614  0.1065  0.1062
14965TIP3    H166386   1.974   4.842   3.329 -1.0373  0.4987 -0.5080
14965TIP3    H266387   2.120   4.864   3.295 -0.2944  0.3541  2.4515
14966TIP3   OH266388   2.593   3.570   2.231  0.2188  0.1800 -0.2052
14966TIP3    H166389   2.573   3.641   2.170  0.7796  0.5603  0.0452
14966TIP3    H266390   2.584   3.610   2.318 -0.5109 -0.3420 -0.0355
14967TIP3   OH266391   2.794   6.706   3.121  0.2724 -0.4430 -0.2020
14967TIP3    H166392   2.730   6.643   3.087  0.4610 -0.9805  0.4214
14967TIP3    H266393   2.778   6.709   3.215  1.3803 -0.8493  0.0169
14968TIP3   OH266394   5.817   4.877   1.273  0.5767  0.1338  0.3237
14968TIP3    H166395   5.841   4.966   1.250 -1.1504  0.4707 -0.2158
14968TIP3    H266396   5.734   4.861   1.228  0.6918 -1.6305  0.6751
14969TIP3   OH266397   4.078   0.695  13.684  0.5420  0.1489 -0.6336
14969TIP3    H166398   4.080   0.609  13.641  1.4986 -0.4682  0.5926
14969TIP3    H266399   4.170   0.719  13.692  0.4033  0.0088  1.5191
14970TIP3   OH266400   5.187   3.699   3.320 -0.2137  0.4164  0.6052
14970TIP3    H166401   5.240   3.635   3.272  0.2002  1.7275 -0.7598
14970TIP3    H266402   5.223   3.698   3.409  1.1534  0.2317  0.0682
14971TIP3   OH266403   4.189   3.268  15.598 -0.1095  0.0139 -0.5305
14971TIP3    H166404   4.262   3.232  15.546 -0.1829 -0.7024 -0.1460
14971TIP3    H266405   4.224   3.274  15.687 -0.1359  0.8083 -0.5663
14972TIP3   OH266406   2.264   4.028  15.910 -0.1472 -0.5171 -0.3937
14972TIP3    H166407   2.323   4.081  15.964  1.0002 -1.3964 -0.7816
14972TIP3    H266408   2.310   4.018  15.827 -2.0300  1.0912 -1.6880
14973TIP3   OH266409   2.585   6.207  14.232 -0.1962  0.0259  0.0779
14973TIP3    H166410   2.543   6.286  14.265  0.3511  0.4312 -0.1714
14973TIP3    H266411   2.516   6.141  14.228 -0.5310  0.3339  0.8264
14974TIP3   OH266412   0.736   4.599   2.649 -0.0864  0.7622  0.2306
14974TIP3    H166413   0.657   4.549   2.631  0.5547  0.4365 -1.8186
14974TIP3    H266414   0.804   4.533   2.664 -0.1905  1.0375  2.0485
14975TIP3   OH266415   1.425   4.915  16.419 -0.8619  0.6954 -0.0330
14975TIP3    H166416   1.428   4.901  16.324 -4.7025 -0.0076 -0.1208
14975TIP3    H266417   1.408   4.828  16.455  0.8103  0.9136  1.3685
14976TIP3   OH266418   1.281   5.927  12.288  0.5084  0.2112 -0.1100
14976TIP3    H166419   1.289   5.871  12.365  0.2560  0.7331  0.2965
14976TIP3    H266420   1.364   5.916  12.242  0.3803 -0.6581 -0.1421
14977TIP3   OH266421   2.946   0.222   5.768 -0.0392  0.4890  0.0659
14977TIP3    H166422   2.985   0.208   5.682  0.5761  1.2901  0.2081
14977TIP3    H266423   3.020   0.227   5.828 -0.4946 -0.7296  0.7474
14978TIP3   OH266424   0.108   1.738   4.017  0.5634  0.0552  0.2115
14978TIP3    H166425   0.133   1.811   4.075  0.4701  0.2072  0.0620
14978TIP3    H266426   0.167   1.747   3.942  0.9998 -0.4228  0.5020
14979TIP3   OH266427   1.631   6.525  16.096 -0.2884 -0.7487  0.5364
14979TIP3    H166428   1.569   6.594  16.119  1.9241  2.3649 -2.2218
14979TIP3    H266429   1.585   6.472  16.031 -0.6328  0.6045 -0.3453
14980TIP3   OH266430   0.282   5.140   6.713  0.2623 -0.0770  0.6761
14980TIP3    H166431   0.334   5.191   6.776 -0.8604  1.4367  0.3957
14980TIP3    H266432   0.334   5.142   6.633  0.1227  0.8359  0.5971
14981TIP3   OH266433   2.752   1.854   5.769 -0.4040 -0.0468  0.2325
14981TIP3    H166434   2.806   1.824   5.842 -1.6066 -0.1634  1.0869
14981TIP3    H266435   2.716   1.774   5.730  0.3183  0.0078 -0.5588
14982TIP3   OH266436   2.293   0.971   1.044 -0.5343  0.0890  0.3520
14982TIP3    H166437   2.206   0.932   1.048 -0.7998  0.5194 -0.9590
14982TIP3    H266438   2.297   1.011   0.957  2.3003 -3.0815 -1.0878
14983TIP3   OH266439   1.131   2.699   4.100 -0.5186  0.6760  0.0115
14983TIP3    H166440   1.159   2.699   4.009 -0.1108 -0.2474  0.1327
14983TIP3    H266441   1.207   2.731   4.149  0.6659 -2.5811  0.4239
14984TIP3   OH266442   6.160   0.626  15.222  0.0246 -0.1674 -0.4743
14984TIP3    H166443   6.080   0.676  15.236  1.0224  0.8582  1.8013
14984TIP3    H266444   6.151   0.591  15.134 -1.8477  1.9091 -1.1471
14985TIP3   OH266445   0.058   0.289   5.684 -0.2948 -0.3591  0.0746
14985TIP3    H166446   0.035   0.372   5.642  0.7557  0.1081  0.4016
14985TIP3    H266447  -0.004   0.226   5.649 -1.1236  0.5740 -0.1570
14986TIP3   OH266448   2.132   4.253  15.032 -0.3145  0.0882 -0.2552
14986TIP3    H166449   2.063   4.291  15.085  0.8109  0.0882  1.2517
14986TIP3    H266450   2.202   4.319  15.032  0.5939 -0.8528  0.1828
14987TIP3   OH266451   5.846   4.081   1.430 -0.4332  0.3653  0.0958
14987TIP3    H166452   5.903   4.043   1.364  0.1116  0.3675  0.5640
14987TIP3    H266453   5.810   4.005   1.477 -1.4472  0.3295 -0.7163
14988TIP3   OH266454   4.146   6.271  13.645 -0.5387 -0.2912 -0.1499
14988TIP3    H166455   4.209   6.327  13.691  0.5379 -0.5899 -1.2194
14988TIP3    H266456   4.179   6.182  13.656 -1.1919 -0.5288 -0.0798
14989TIP3   OH266457   0.556   3.631   6.534 -0.6725 -0.1079  0.3190
14989TIP3    H166458   0.481   3.598   6.483  1.1052 -2.5777 -0.8319
14989TIP3    H266459   0.528   3.625   6.625 -1.0835 -3.3931  0.0590
14990TIP3   OH266460   4.993   0.681  13.962 -0.2962 -0.1312  0.5037
14990TIP3    H166461   5.052   0.755  13.977 -0.6537 -0.1223  2.0447
14990TIP3    H266462   4.989   0.637  14.047 -1.7120 -0.7173  0.1478
14991TIP3   OH266463   0.337   1.851  16.099 -0.2433 -0.1759 -0.1650
14991TIP3    H166464   0.295   1.863  16.184 -1.0479  1.9320 -0.8301
14991TIP3    H266465   0.266   1.826  16.040  0.6310 -3.7147  0.1447
14992TIP3   OH266466   0.190   6.218   6.617 -0.0815 -0.6892 -0.4652
14992TIP3    H166467   0.200   6.137   6.567  1.9449 -1.2780  0.8353
14992TIP3    H266468   0.276   6.232   6.657 -0.8752  1.2398  0.6228
14993TIP3   OH266469   1.551   0.018  16.120  0.0935 -0.0469  0.0850
14993TIP3    H166470   1.607  -0.003  16.045 -2.0304 -0.1243 -1.5226
14993TIP3    H266471   1.467   0.040  16.081 -1.9178 -2.9100  2.5811
14994TIP3   OH266472   6.611   3.071  12.946  0.6737 -0.1801  0.5471
14994TIP3    H166473   6.643   3.151  12.989  0.5721 -0.1665  0.5975
14994TIP3    H266474   6.602   3.095  12.854  3.1931 -0.8925  0.0739
14995TIP3   OH266475   6.633   6.173  12.204  0.0855  0.2106  0.7020
14995TIP3    H166476   6.698   6.203  12.267  0.8700 -2.2761  1.1240
14995TIP3    H266477   6.550   6.208  12.236  0.7687  0.6966  1.9648
14996TIP3   OH266478   2.518   6.817  11.592  0.5644  0.4894 -0.1218
14996TIP3    H166479   2.514   6.880  11.520 -0.5827 -2.2634 -2.5924
14996TIP3    H266480   2.612   6.808  11.610  0.8174  1.8177 -0.7098
14997TIP3   OH266481   3.457   5.407  16.544 -0.3243  0.2869 -0.0531
14997TIP3    H166482   3.426   5.441  16.460  2.4725 -1.4708 -1.9152
14997TIP3    H266483   3.397   5.335  16.565  0.7132 -1.2517 -2.1637
14998TIP3   OH266484   6.008   4.673   6.194 -0.4643 -0.1225 -0.6935
14998TIP3    H166485   5.935   4.683   6.133  0.3625  0.2615 -1.6364
14998TIP3    H266486   6.052   4.758   6.193  1.1510 -0.9415 -1.6575
14999TIP3   OH266487   2.777   4.176  15.215  0.0371 -0.1775  0.4438
14999TIP3    H166488   2.751   4.113  15.147 -0.9888  2.3396 -1.5897
14999TIP3    H266489   2.758   4.132  15.297 -4.1516 -1.1590 -0.9480
15000TIP3   OH266490   0.057   6.002  14.022  0.2813  0.0223  0.0506
15000TIP3    H166491   0.091   6.085  14.056  1.3054  0.3576 -1.7329
15000TIP3    H266492   0.124   5.938  14.043  0.1889 -0.0676  0.0723
15001TIP3   OH266493   2.277   3.830   3.053  0.3725 -0.2572  0.1387
15001TIP3    H166494   2.362   3.869   3.070  0.0472  0.7012 -0.4220
15001TIP3    H266495   2.289   3.779   2.973 -0.2757  2.1569 -1.5565
15002TIP3   OH266496   4.346   0.646  11.349 -1.0391  0.8513  0.3173
15002TIP3    H166497   4.285   0.674  11.417 -0.2258  0.5290  1.1894
15002TIP3    H266498   4.312   0.562  11.319 -0.2828 -0.0152  1.7891
15003TIP3   OH266499   3.099   5.420  14.481 -0.2461  0.1164  0.1612
15003TIP3    H166500   3.143   5.487  14.534  0.2698  0.6013 -0.8587
15003TIP3    H266501   3.091   5.459  14.395 -1.3967 -0.5359 -0.0416
15004TIP3   OH266502   5.577   1.490  15.530 -0.2015  0.5510  0.0016
15004TIP3    H166503   5.598   1.562  15.471  1.4605  0.5542  0.5839
15004TIP3    H266504   5.548   1.532  15.611 -1.9663  0.5444 -0.5937
15005TIP3   OH266505   1.327   4.240  17.158 -0.2515 -0.4611  0.6834
15005TIP3    H166506   1.251   4.276  17.203 -0.5362  1.5398 -1.3385
15005TIP3    H266507   1.294   4.210  17.074  1.0087 -0.4207  0.1561
15006TIP3   OH266508   1.753   5.902   6.640 -0.5594  0.3696 -0.5026
15006TIP3    H166509   1.737   5.859   6.724 -1.6724  1.9724  0.1457
15006TIP3    H266510   1.818   5.848   6.596  0.9494  0.1557  1.9221
15007TIP3   OH266511   5.754   6.501   0.989 -0.2314  0.2891  0.3890
15007TIP3    H166512   5.789   6.434   0.930 -0.8121 -0.8675  1.3374
15007TIP3    H266513   5.659   6.495   0.980 -0.3611 -0.3900  1.9428
15008TIP3   OH266514   2.194   4.762  11.139  0.0897 -0.3981 -0.3073
15008TIP3    H166515   2.260   4.822  11.174 -0.5108  0.2042 -0.2003
15008TIP3    H266516   2.222   4.676  11.169  1.5563 -0.3111 -1.3494
15009TIP3   OH266517   1.939   5.810  15.638  0.4784  0.3171  0.6007
15009TIP3    H166518   2.030   5.794  15.661  0.7559 -0.0297 -0.7120
15009TIP3    H266519   1.915   5.738  15.580 -1.4631 -1.0840  3.0459
15010TIP3   OH266520   2.159   2.570  14.517 -0.0020 -0.7442  0.3116
15010TIP3    H166521   2.149   2.514  14.440 -0.3590  1.9475 -1.6817
15010TIP3    H266522   2.230   2.530  14.567  0.5687 -2.2932 -1.6868
15011TIP3   OH266523   1.581   1.849   5.403  0.0153  0.2178 -0.4578
15011TIP3    H166524   1.517   1.808   5.461 -2.3326  1.1963 -2.2589
15011TIP3    H266525   1.645   1.888   5.462 -2.0343  0.7776  1.5017
15012TIP3   OH266526   5.413   2.091   0.840 -0.2245  0.0176  0.4490
15012TIP3    H166527   5.331   2.044   0.853 -0.6064  0.2682 -0.9535
15012TIP3    H266528   5.430   2.085   0.746  1.0407  0.5008  0.6305
15013TIP3   OH266529   1.648   4.335   2.695  0.1507  0.7853  0.1409
15013TIP3    H166530   1.583   4.355   2.763 -0.4637 -2.7063  0.7036
15013TIP3    H266531   1.602   4.352   2.612 -0.8055  0.2978  0.5597
15014TIP3   OH266532   5.374   5.975   4.165  0.4900 -0.5883 -0.0587
15014TIP3    H166533   5.394   5.962   4.258  1.4073 -0.3160 -0.2121
15014TIP3    H266534   5.449   6.024   4.131 -0.7430  1.0130 -0.5213
15015TIP3   OH266535   4.336   6.451  10.934  0.0548 -0.1909  0.1676
15015TIP3    H166536   4.429   6.466  10.918 -0.5064  3.4602 -0.0313
15015TIP3    H266537   4.306   6.530  10.978 -2.7381 -1.8052  1.2979
15016TIP3   OH266538   0.720   2.363   2.214 -0.3718 -0.1980 -0.5601
15016TIP3    H166539   0.661   2.429   2.251 -0.1819 -0.3540  0.0327
15016TIP3    H266540   0.797   2.413   2.186  0.2171 -0.2850  0.8463
15017TIP3   OH266541   0.007   5.766  13.210  0.2268  0.2450  0.8085
15017TIP3    H166542  -0.059   5.703  13.182  0.7396 -0.3809  0.9796
15017TIP3    H266543   0.010   5.831  13.140  2.4878 -2.0502 -1.3158
15018TIP3   OH266544   3.815   1.911  13.756 -0.4296 -0.0235  0.4412
15018TIP3    H166545   3.866   1.925  13.676 -0.1685 -1.4217  0.3627
15018TIP3    H266546   3.876   1.932  13.827  0.2150 -1.5055  0.3410
15019TIP3   OH266547   5.174   4.647  11.157 -0.0889 -0.0198  0.0486
15019TIP3    H166548   5.097   4.624  11.104  1.2555 -0.0261 -1.9403
15019TIP3    H266549   5.245   4.595  11.120  0.9842  0.3806  1.5313
15020TIP3   OH266550   0.960   1.390   4.476  0.3899  0.2058  0.3343
15020TIP3    H166551   0.908   1.463   4.442  0.4980  0.4241  0.6326
15020TIP3    H266552   0.988   1.419   4.562  0.5239 -0.1481  0.4105
15021TIP3   OH266553   2.157   5.508  15.358 -0.1979  0.0016  0.0281
15021TIP3    H166554   2.243   5.541  15.332 -1.3070  2.1505 -1.0217
15021TIP3    H266555   2.138   5.438  15.296  0.4360  0.0692 -0.2485
15022TIP3   OH266556   4.785   4.593   4.891 -0.2353 -0.1185  0.3080
15022TIP3    H166557   4.808   4.501   4.905 -1.5467 -0.6769 -1.0401
15022TIP3    H266558   4.862   4.642   4.921  1.2777 -1.7544 -0.7867
15023TIP3   OH266559   0.244   3.070   6.468  0.1909  0.5939  0.3554
15023TIP3    H166560   0.301   2.993   6.462  1.8435  1.8201 -0.2134
15023TIP3    H266561   0.288   3.127   6.531 -1.1949  0.9346  1.0257
15024TIP3   OH266562   1.745   4.043  13.913  0.2174  0.2126  0.1688
15024TIP3    H166563   1.771   4.099  13.986  1.3295 -0.3163  0.1994
15024TIP3    H266564   1.777   4.089  13.836  0.7363 -0.1534  0.1611
15025TIP3   OH266565   0.888   5.217  11.689 -0.0544 -0.0558  0.0228
15025TIP3    H166566   0.895   5.313  11.691 -1.6340  0.1012 -1.1329
15025TIP3    H266567   0.794   5.199  11.695  0.2403 -1.5479  0.4190
15026TIP3   OH266568   2.941   1.656   3.949  0.1580  0.2808 -0.1034
15026TIP3    H166569   2.902   1.650   4.036  0.9851  1.0618  0.3344
15026TIP3    H266570   2.976   1.569   3.933  1.5855  0.5993  1.1252
15027TIP3   OH266571   2.380   3.351  13.294 -0.3122 -0.4210  0.2672
15027TIP3    H166572   2.433   3.320  13.220 -1.1596  0.1382 -0.5802
15027TIP3    H266573   2.443   3.399  13.349  0.3869 -1.1031  0.0745
15028TIP3   OH266574   4.910   3.149  11.542  0.3671 -0.1618 -0.6185
15028TIP3    H166575   4.912   3.184  11.631 -1.4117 -1.3164 -0.0776
15028TIP3    H266576   4.991   3.099  11.534  0.8295  0.4523  0.1326
15029TIP3   OH266577   5.154   4.241   4.202 -0.0565 -0.0911  0.0581
15029TIP3    H166578   5.158   4.148   4.221 -1.2227 -0.0283  0.6247
15029TIP3    H266579   5.229   4.278   4.249  0.3696 -0.7323 -0.1172
15030TIP3   OH266580   6.570   3.828   5.809 -0.3673  0.2490  0.2014
15030TIP3    H166581   6.633   3.797   5.744  1.1054  1.8229  0.8546
15030TIP3    H266582   6.555   3.752   5.865  0.3109 -0.3874 -0.4696
15031TIP3   OH266583   3.839   2.088   2.291 -0.4162  0.0048  0.3607
15031TIP3    H166584   3.789   2.006   2.283  0.6599 -0.7468  1.1942
15031TIP3    H266585   3.921   2.070   2.245 -1.0769  1.3910 -1.3945
15032TIP3   OH266586   4.540   5.586   2.937 -0.6002  0.0172  0.0996
15032TIP3    H166587   4.489   5.617   2.862  1.0662  4.2454  0.6176
15032TIP3    H266588   4.475   5.544   2.993 -2.9910  2.3289 -0.8154
15033TIP3   OH266589   4.911   3.363   2.367 -0.1359 -0.5914  0.1769
15033TIP3    H166590   4.967   3.337   2.441  3.1087  0.4947 -1.8227
15033TIP3    H266591   4.970   3.404   2.304 -3.1767  0.4709 -2.1397
15034TIP3   OH266592   6.526   3.377   3.057 -0.3045  0.0579  0.2009
15034TIP3    H166593   6.450   3.358   3.001  0.3578  0.6702 -0.9030
15034TIP3    H266594   6.529   3.472   3.062  0.6175  0.0374 -0.0475
15035TIP3   OH266595   6.289   5.806   4.026 -0.3496 -0.1017  0.0984
15035TIP3    H166596   6.268   5.858   3.948 -0.7210  0.0978  0.3286
15035TIP3    H266597   6.286   5.715   3.996 -0.4011 -0.0215 -0.1413
15036TIP3   OH266598   1.058   6.409  15.810  0.2394  0.0058 -0.2016
15036TIP3    H166599   1.122   6.407  15.740  0.1568  0.5034 -0.2879
15036TIP3    H266600   1.080   6.333  15.865 -0.1804 -0.8375 -1.1933
15037TIP3   OH266601   0.136   1.618  16.564  0.8139 -0.0494 -0.1800
15037TIP3    H166602   0.200   1.553  16.594 -0.1292 -1.1313 -0.4330
15037TIP3    H266603   0.056   1.567  16.551 -0.5069  1.5260  1.5319
15038TIP3   OH266604   0.401   4.606  14.213 -0.2394  0.3886 -0.3810
15038TIP3    H166605   0.307   4.594  14.207 -0.6616  1.3865  3.3939
15038TIP3    H266606   0.413   4.701  14.208  0.5239  0.3017 -0.2398
15039TIP3   OH266607   3.125   1.760   0.625  0.1807  0.5063 -0.0289
15039TIP3    H166608   3.068   1.794   0.694  1.8942  1.7945  0.7894
15039TIP3    H266609   3.076   1.776   0.544 -1.4592 -0.1946  0.7958
15040TIP3   OH266610   4.010   0.670  13.990 -0.6782 -0.1842  0.1867
15040TIP3    H166611   3.949   0.743  14.002  0.1908  0.1935  2.6982
15040TIP3    H266612   4.057   0.692  13.909 -0.6653  1.9183  0.7146
15041TIP3   OH266613   6.469   0.376  14.049  0.0909  0.0410 -0.0964
15041TIP3    H166614   6.470   0.294  13.999  0.7134  0.3687 -0.6143
15041TIP3    H266615   6.508   0.353  14.134  1.2916  0.0579 -0.6392
15042TIP3   OH266616   5.717   6.709   0.709 -0.2540 -0.4580  0.0418
15042TIP3    H166617   5.783   6.641   0.722  1.5894  0.9885 -1.3969
15042TIP3    H266618   5.635   6.661   0.695  0.5535 -2.2931  1.3904
15043TIP3   OH266619   2.045   0.869  15.886  1.0201 -0.3834  0.1338
15043TIP3    H166620   2.082   0.871  15.974 -0.5859  1.4142  0.8046
15043TIP3    H266621   2.073   0.951  15.846  0.4934 -0.4957 -0.4833
15044TIP3   OH266622   2.252   0.229  13.902 -0.3472  0.1909 -0.3935
15044TIP3    H166623   2.241   0.158  13.838  2.2985 -1.0633  0.4713
15044TIP3    H266624   2.322   0.283  13.866 -2.1185  2.2512 -0.8796
15045TIP3   OH266625   2.535   4.562   2.257  0.0617 -0.2612 -0.1329
15045TIP3    H166626   2.472   4.498   2.292 -0.0309  0.5089  1.1423
15045TIP3    H266627   2.619   4.517   2.259 -0.0835 -0.5100  0.2982
15046TIP3   OH266628   2.066   3.067  13.903 -0.0575 -0.1015 -0.6892
15046TIP3    H166629   2.022   3.148  13.932 -1.6534 -0.8466 -0.9788
15046TIP3    H266630   2.000   3.021  13.852  1.3267 -0.9061 -1.7855
15047TIP3   OH266631   5.697   3.106   3.331 -0.8441 -0.1295 -0.1512
15047TIP3    H166632   5.609   3.146   3.332 -1.1365 -0.7406 -1.0431
15047TIP3    H266633   5.688   3.031   3.273  0.3082 -0.1265 -0.3348
15048TIP3   OH266634   3.423   0.717  12.975  0.2328 -0.3241 -0.0524
15048TIP3    H166635   3.417   0.622  12.979 -0.3567 -0.3276 -0.9573
15048TIP3    H266636   3.451   0.743  13.063 -1.6898 -1.1727  0.8363
15049TIP3   OH266637   4.569   5.076  16.048 -0.2710  0.2714  0.1020
15049TIP3    H166638   4.529   5.152  16.007  0.0744  0.6311  0.4293
15049TIP3    H266639   4.615   5.031  15.976 -0.0488  0.6467  0.0131
15050TIP3   OH266640   1.136   3.805   2.743  0.1958 -0.2113 -0.7216
15050TIP3    H166641   1.147   3.900   2.746  0.3455 -0.2425 -0.3294
15050TIP3    H266642   1.183   3.772   2.820 -0.2729 -0.5598 -0.5807
15051TIP3   OH266643   2.447   3.171   0.127  0.4434  0.1539  0.2417
15051TIP3    H166644   2.354   3.194   0.122  0.4680  0.7655  2.1705
15051TIP3    H266645   2.485   3.208   0.048 -1.0996 -0.8649 -1.0128
15052TIP3   OH266646   5.737   3.113   5.280 -0.1481 -0.0025 -0.2107
15052TIP3    H166647   5.673   3.073   5.220  0.2972 -0.1981 -0.5592
15052TIP3    H266648   5.700   3.099   5.367 -1.4444  1.4434 -0.5055
15053TIP3   OH266649   3.117   6.774  16.227  0.1616 -0.0095 -0.2304
15053TIP3    H166650   3.174   6.723  16.169 -0.2560 -1.1952  0.3812
15053TIP3    H266651   3.031   6.735  16.217 -0.2161  0.7506  0.0553
15054TIP3   OH266652   2.078   4.610  16.416 -0.2326  0.4385  0.7269
15054TIP3    H166653   2.030   4.691  16.434  0.1105  0.7652  0.1749
15054TIP3    H266654   2.158   4.616  16.468 -0.8281 -0.1635  1.7456
15055TIP3   OH266655   4.618   1.311   2.019 -0.0621  0.2206  0.0918
15055TIP3    H166656   4.558   1.298   2.093 -1.8927 -0.7827 -1.5384
15055TIP3    H266657   4.682   1.240   2.027 -1.9501 -1.6629 -0.8817
15056TIP3   OH266658   5.145   4.406   3.120  0.2481 -0.5905  0.2723
15056TIP3    H166659   5.121   4.358   3.041  1.4607 -0.7422 -0.0096
15056TIP3    H266660   5.103   4.491   3.111 -0.1278 -0.8315 -0.2469
15057TIP3   OH266661   4.577   3.419  15.738 -0.0347 -0.5442  0.3357
15057TIP3    H166662   4.616   3.415  15.825  0.2325  0.6802  0.2722
15057TIP3    H266663   4.542   3.508  15.730 -0.1752 -0.6809 -0.7598
15058TIP3   OH266664   5.005   1.664  11.479  0.2769 -0.4297 -0.0505
15058TIP3    H166665   5.099   1.668  11.460  0.4699 -1.1468  0.7541
15058TIP3    H266666   4.965   1.722  11.414  1.0288 -2.1005 -2.0218
15059TIP3   OH266667   3.548   4.015   3.791  0.4186  0.2661  0.3489
15059TIP3    H166668   3.503   4.094   3.823 -2.8639 -0.1473 -2.8835
15059TIP3    H266669   3.501   3.943   3.833 -0.8489 -0.1074 -1.6287
15060TIP3   OH266670   2.244   2.918   6.375 -0.2669  0.0141  0.5099
15060TIP3    H166671   2.264   2.947   6.464 -0.9302 -0.2719  0.7499
15060TIP3    H266672   2.329   2.917   6.331 -0.2198  2.4360  0.4464
15061TIP3   OH266673   2.575   3.492   2.683  0.2810 -0.0032  0.4572
15061TIP3    H166674   2.541   3.424   2.740  1.7333 -2.0189 -1.0017
15061TIP3    H266675   2.498   3.529   2.641 -0.5306 -0.6772  1.3477
15062TIP3   OH266676   1.406   3.619  13.636  0.2441  0.3431  0.5288
15062TIP3    H166677   1.465   3.669  13.693  3.9939  0.4931 -3.2893
15062TIP3    H266678   1.394   3.675  13.559 -0.8992 -1.8541 -0.9410
15063TIP3   OH266679   0.373   2.520   4.750  0.7427  0.8344  0.5759
15063TIP3    H166680   0.415   2.469   4.819 -0.0051  0.1945  0.5578
15063TIP3    H266681   0.351   2.456   4.682 -0.9326  1.0490  0.9083
15064TIP3   OH266682   6.151   3.071   0.445  0.4000 -0.2407  0.1269
15064TIP3    H166683   6.177   3.095   0.534  1.3281 -0.6418 -0.0194
15064TIP3    H266684   6.135   3.154   0.401 -1.4816 -0.0863  1.0668
15065TIP3   OH266685   5.311   3.486  12.199 -0.0869  0.1501 -0.3935
15065TIP3    H166686   5.381   3.453  12.254 -0.5849  0.0814  0.2049
15065TIP3    H266687   5.356   3.527  12.125  0.6927  3.3294  1.7698
15066TIP3   OH266688   4.298   4.915  14.831 -0.8929 -0.2696 -0.0088
15066TIP3    H166689   4.335   4.827  14.836  2.2477  0.7825 -2.8036
15066TIP3    H266690   4.369   4.973  14.857 -2.7294  1.5117  1.2241
15067TIP3   OH266691   6.079   0.873  10.817  0.2486  0.2170  0.0535
15067TIP3    H166692   6.101   0.796  10.869  3.1992  0.4769 -0.6934
15067TIP3    H266693   6.118   0.856  10.731 -0.6014  1.7749 -0.6606
15068TIP3   OH266694   3.806   1.540  15.176 -0.0611 -0.3420 -0.4091
15068TIP3    H166695   3.794   1.530  15.081 -0.3608  0.6021 -0.4832
15068TIP3    H266696   3.804   1.635  15.190  1.3875 -0.4089  0.3604
15069TIP3   OH266697   5.732   4.293   1.281 -0.3286 -0.6802 -0.2709
15069TIP3    H166698   5.683   4.322   1.359 -2.0077 -1.3320 -1.0706
15069TIP3    H266699   5.778   4.214   1.310  0.5588  0.1154  0.5761
15070TIP3   OH266700   5.747   4.039   5.121 -0.0412 -0.6043 -0.4667
15070TIP3    H166701   5.725   4.110   5.181  0.2331 -0.8465 -0.0772
15070TIP3    H266702   5.766   3.965   5.178  2.0809 -0.3288 -0.7729
15071TIP3   OH266703   2.113   2.460   2.171  0.0499 -0.1535 -0.2840
15071TIP3    H166704   2.044   2.394   2.175 -0.4692  0.4613  1.1562
15071TIP3    H266705   2.194   2.409   2.159 -0.2947 -1.0994  1.2123
15072TIP3   OH266706   4.305   1.854  12.399 -0.3309 -0.6697 -0.7115
15072TIP3    H166707   4.292   1.775  12.451 -1.1253  0.5832  1.0612
15072TIP3    H266708   4.349   1.824  12.320 -1.2674 -2.9816 -0.3983
15073TIP3   OH266709   4.639   3.433   3.117 -0.4462  0.2860  0.1817
15073TIP3    H166710   4.687   3.515   3.106 -1.1755  0.6232 -0.5328
15073TIP3    H266711   4.582   3.427   3.040  0.5882 -1.5768 -0.4856
15074TIP3   OH266712   0.590   5.540   3.041  0.4868 -0.1306 -0.3352
15074TIP3    H166713   0.664   5.480   3.056  0.0175 -1.3085 -2.3561
15074TIP3    H266714   0.628   5.613   2.993  0.4973 -0.3970 -0.7426
15075TIP3   OH266715   0.404   2.784  15.681  0.4211  0.3311 -0.2948
15075TIP3    H166716   0.420   2.803  15.589  2.0228  1.0049  0.1219
15075TIP3    H266717   0.337   2.847  15.707  0.4291  0.5601 -0.8254
15076TIP3   OH266718   5.911   0.876   0.687 -0.3304  0.3917  0.4025
15076TIP3    H166719   5.826   0.918   0.681 -0.7363 -0.4039  0.4578
15076TIP3    H266720   5.968   0.941   0.728 -1.2084  0.5086  1.4468
15077TIP3   OH266721   6.306   3.457   0.531  0.3088 -0.0483 -0.4160
15077TIP3    H166722   6.290   3.515   0.606  0.4491 -2.5746  1.6560
15077TIP3    H266723   6.223   3.411   0.519  0.5467 -0.2496 -1.3072
15078TIP3   OH266724   6.155   1.898  12.723  0.2356  0.3202 -0.1803
15078TIP3    H166725   6.245   1.864  12.723  0.9358  2.1144 -0.5765
15078TIP3    H266726   6.144   1.935  12.635 -1.2838 -0.8446 -0.5077
15079TIP3   OH266727   3.264   2.485   3.380  0.2223  0.4669 -0.0769
15079TIP3    H166728   3.251   2.576   3.352  0.4241  1.1407  1.9059
15079TIP3    H266729   3.179   2.443   3.365 -0.2592  1.3254  0.1934
15080TIP3   OH266730   4.559   3.947   1.452 -0.2016 -0.2894  0.0936
15080TIP3    H166731   4.633   3.913   1.503  0.1576  0.5563  0.1438
15080TIP3    H266732   4.488   3.884   1.468  0.7040 -1.4732 -0.4917
15081TIP3   OH266733   3.344   3.684   2.774  0.2036 -0.4397 -0.0613
15081TIP3    H166734   3.368   3.777   2.770 -0.0814 -0.3767 -0.3275
15081TIP3    H266735   3.315   3.671   2.865 -0.4457 -0.0940 -0.2158
15082TIP3   OH266736   4.366   0.441  14.186 -0.5114 -0.1801 -0.0670
15082TIP3    H166737   4.323   0.429  14.101  2.9808 -0.8400 -1.8434
15082TIP3    H266738   4.374   0.353  14.221 -1.6715  0.0629  0.8366
15083TIP3   OH266739   4.252   1.021  14.084  0.6162  0.5909 -0.0357
15083TIP3    H166740   4.178   1.040  14.142  2.2286 -1.0804  2.6608
15083TIP3    H266741   4.236   0.933  14.051  0.3013  1.0886 -1.2575
15084TIP3   OH266742   3.257   0.758   1.825 -0.3021  0.1927  0.1648
15084TIP3    H166743   3.316   0.697   1.871 -1.5261 -1.6811 -0.7095
15084TIP3    H266744   3.262   0.731   1.733  0.2740  2.3910 -0.4799
15085TIP3   OH266745   1.161   1.495  15.076  0.1892 -0.0883 -0.4718
15085TIP3    H166746   1.123   1.455  14.998  1.3589 -1.1284 -0.5265
15085TIP3    H266747   1.254   1.504  15.055  0.3486  0.4798  0.4536
15086TIP3   OH266748   4.069   2.745  11.615  0.4482 -0.4262 -0.5923
15086TIP3    H166749   4.117   2.749  11.532  0.2617 -0.0112 -0.6797
15086TIP3    H266750   4.077   2.653  11.642  0.7417 -0.5036 -0.9300
15087TIP3   OH266751   1.970   4.151  12.438 -0.2151  0.1663 -0.0731
15087TIP3    H166752   1.888   4.182  12.478 -0.8186  0.8148 -1.7539
15087TIP3    H266753   1.943   4.079  12.382  0.2586  0.8462 -1.1885
15088TIP3   OH266754   1.004   4.630  11.601 -0.2372  0.0554 -0.1799
15088TIP3    H166755   1.034   4.539  11.602  0.6551  0.3619  1.3808
15088TIP3    H266756   0.937   4.632  11.532  0.3387 -1.5803 -0.8125
15089TIP3   OH266757   4.356   1.889   1.878 -0.4805  0.3048 -0.2399
15089TIP3    H166758   4.370   1.960   1.941 -0.6033  0.3303 -0.2416
15089TIP3    H266759   4.425   1.826   1.898  1.0924  1.5195 -1.7925
15090TIP3   OH266760   6.216   6.406  11.468  0.5063 -0.0725 -0.3813
15090TIP3    H166761   6.135   6.354  11.457 -1.0866  1.8111  2.0186
15090TIP3    H266762   6.258   6.368  11.545  0.9885  0.1441 -0.5394
15091TIP3   OH266763   1.463   3.825   1.855 -0.0513 -0.3581 -0.1206
15091TIP3    H166764   1.398   3.887   1.823 -0.8576 -0.9620  0.3328
15091TIP3    H266765   1.472   3.845   1.948 -1.1186 -1.6143  0.2683
15092TIP3   OH266766   1.443   5.723   5.583  0.5972  0.0768 -0.3213
15092TIP3    H166767   1.495   5.645   5.603  1.2359  0.2543 -1.2280
15092TIP3    H266768   1.476   5.789   5.644  0.2562 -0.2811  0.2519
15093TIP3   OH266769   2.839   3.504   3.522 -0.4785 -0.0701 -0.1270
15093TIP3    H166770   2.914   3.445   3.522  0.5633  1.2257  0.4755
15093TIP3    H266771   2.820   3.519   3.615 -1.9522 -0.9450 -0.2621
15094TIP3   OH266772   5.879   2.028  16.889 -0.6020  0.1332  0.2376
15094TIP3    H166773   5.904   1.969  16.960  0.9270 -0.7938 -1.0276
15094TIP3    H266774   5.783   2.022  16.885 -0.6950  0.0579  2.0663
15095TIP3   OH266775   1.874   3.065   1.885 -0.1514  0.0068 -0.2815
15095TIP3    H166776   1.948   3.012   1.854  0.5879  0.0852  1.3232
15095TIP3    H266777   1.868   3.047   1.979 -1.1671  1.2258 -0.0879
15096TIP3   OH266778   0.031   6.170  11.803  0.3234 -0.6936  0.4496
15096TIP3    H166779   0.004   6.079  11.787  0.8796 -0.9883  1.1625
15096TIP3    H266780  -0.049   6.221  11.789  0.4353 -1.0650 -1.8883
15097TIP3   OH266781   6.024   3.755   5.453 -0.4829  0.1367  0.2732
15097TIP3    H166782   6.076   3.690   5.499 -2.7754 -1.0522  1.2373
15097TIP3    H266783   6.009   3.824   5.517  0.1442  0.6266 -0.0990
15098TIP3   OH266784   3.514   1.641   4.573 -0.3824  0.7296  0.0982
15098TIP3    H166785   3.568   1.590   4.634 -1.1808 -0.1634  0.0712
15098TIP3    H266786   3.424   1.621   4.599 -0.7961 -1.1498 -2.5690
15099TIP3   OH266787   4.813   1.322   6.403  0.3251  0.2725  0.2478
15099TIP3    H166788   4.806   1.338   6.497  0.1438 -1.0553  0.4596
15099TIP3    H266789   4.906   1.305   6.388  0.1845 -0.6487  0.3772
15100TIP3   OH266790   5.462   4.025  11.123  0.3525 -0.4640 -0.6152
15100TIP3    H166791   5.478   4.110  11.163 -0.4964 -0.2409 -0.7290
15100TIP3    H266792   5.525   4.019  11.051  1.2318 -0.4567  0.1533
15101TIP3   OH266793   4.490   4.013  15.085  0.1383 -0.3462 -0.0033
15101TIP3    H166794   4.448   3.937  15.126  2.2719 -0.2067  2.5647
15101TIP3    H266795   4.559   4.038  15.147  1.0495  2.1801 -1.9889
15102TIP3   OH266796   2.889   0.084   1.015 -0.2426  0.0638 -0.1234
15102TIP3    H166797   2.948   0.009   1.007 -1.0321 -0.6372  0.6157
15102TIP3    H266798   2.802   0.048   1.004 -0.6859  0.7443  1.1281
15103TIP3   OH266799   3.900   6.158   1.703 -0.5046  0.0229 -0.0655
15103TIP3    H166800   3.858   6.240   1.729 -0.2713  0.6886 -1.7008
15103TIP3    H266801   3.829   6.094   1.698 -0.8057  0.3134  0.4477
15104TIP3   OH266802   3.195   0.917  16.526 -0.1164 -0.3222 -0.5702
15104TIP3    H166803   3.245   0.836  16.523 -1.1672 -0.9599 -0.7504
15104TIP3    H266804   3.262   0.985  16.535  0.8036 -1.1524 -1.0110
15105TIP3   OH266805   2.305   3.842   3.676 -0.3860 -0.2165 -0.2960
15105TIP3    H166806   2.304   3.859   3.770 -1.6645  0.9918 -0.5028
15105TIP3    H266807   2.397   3.830   3.655 -0.1652 -1.3952  1.2603
15106TIP3   OH266808   6.269   1.135  15.957 -0.0397 -0.7765  0.0703
15106TIP3    H166809   6.262   1.040  15.943  0.4574 -0.6556 -1.1123
15106TIP3    H266810   6.246   1.173  15.872 -0.2168  0.1635  0.5336
15107TIP3   OH266811   1.335   3.340  15.743  0.2039 -0.1119  0.1203
15107TIP3    H166812   1.387   3.411  15.706  0.0148 -0.4386 -0.7936
15107TIP3    H266813   1.323   3.279  15.670 -0.5051 -0.5795  0.6239
15108TIP3   OH266814   2.204   5.476  11.574  0.0688 -0.0902  0.3379
15108TIP3    H166815   2.197   5.554  11.519  0.4760  2.6701  3.9505
15108TIP3    H266816   2.274   5.424  11.536 -0.0015  1.4671 -1.9704
15109TIP3   OH266817   6.725   3.462   2.197 -0.0459 -0.3742  0.3440
15109TIP3    H166818   6.724   3.496   2.287  1.8505 -2.1767  1.1146
15109TIP3    H266819   6.713   3.539   2.142 -3.5189  0.4666  2.1767
15110TIP3   OH266820   6.342   4.722   5.282  0.4729  0.2103  0.5180
15110TIP3    H166821   6.438   4.713   5.279  0.3937 -1.2107  1.7383
15110TIP3    H266822   6.315   4.716   5.191  1.5681  0.9445  0.1269
15111TIP3   OH266823   5.486   0.514   1.675  0.2282  0.1106 -0.1243
15111TIP3    H166824   5.503   0.452   1.604 -0.0918  0.3408 -0.3986
15111TIP3    H266825   5.505   0.464   1.755  3.1560  0.6351 -0.4401
15112TIP3   OH266826   4.383   6.127  11.976  0.0979 -0.1186  0.7483
15112TIP3    H166827   4.323   6.152  11.906 -0.3011  2.1157  1.8589
15112TIP3    H266828   4.470   6.138  11.939 -0.1293 -0.0101  0.2493
15113TIP3   OH266829   4.013   3.894   3.800  0.2247 -0.0484 -0.5803
15113TIP3    H166830   4.011   3.812   3.848  1.9438  0.5306  0.5259
15113TIP3    H266831   3.948   3.883   3.730  0.6971 -2.4651 -0.6723
15114TIP3   OH266832   0.537   4.517  16.329 -0.2851  0.3148 -0.0025
15114TIP3    H166833   0.546   4.476  16.243  0.6793  0.7076 -0.0892
15114TIP3    H266834   0.465   4.580  16.317 -0.3119  0.2010 -0.4518
15115TIP3   OH266835   4.117   5.937   0.239 -0.7959  0.1668  0.4021
15115TIP3    H166836   4.054   5.904   0.303 -0.3507  2.4930  2.1061
15115TIP3    H266837   4.196   5.957   0.290  0.1445  0.5057 -1.1308
15116TIP3   OH266838   5.699   2.677  13.252 -0.7287  0.7111 -0.1227
15116TIP3    H166839   5.637   2.605  13.256 -1.6201  1.4684 -0.2637
15116TIP3    H266840   5.690   2.722  13.336  0.1076  0.4310  0.1246
15117TIP3   OH266841   1.237   0.074   0.493  0.3364 -0.1709  1.1621
15117TIP3    H166842   1.162   0.042   0.443  0.3509 -0.3577  1.2567
15117TIP3    H266843   1.206   0.078   0.583  0.5564 -0.6277  1.2606
15118TIP3   OH266844   6.118   1.048   5.901 -0.3545  0.5587 -0.0357
15118TIP3    H166845   6.135   1.039   5.995  0.8886  0.4290 -0.2595
15118TIP3    H266846   6.051   0.983   5.882 -0.4196  0.4011  0.7200
15119TIP3   OH266847   6.140   0.576  13.810 -0.2863 -0.4660  0.4442
15119TIP3    H166848   6.225   0.552  13.846 -0.3161  0.8260  1.4062
15119TIP3    H266849   6.092   0.614  13.884 -1.0228  0.5336 -0.5206
15120TIP3   OH266850   0.518   5.441   0.640  0.1492 -0.0218 -0.2915
15120TIP3    H166851   0.436   5.397   0.662 -0.1676  0.4805 -0.4329
15120TIP3    H266852   0.516   5.449   0.545  1.4345 -2.0331 -0.4962
15121TIP3   OH266853   3.497   1.061   2.924 -0.0853 -0.1587 -0.7017
15121TIP3    H166854   3.533   0.980   2.888  0.7642  0.0175 -0.2436
15121TIP3    H266855   3.459   1.105   2.848  0.6165 -0.3675 -1.1757
15122TIP3   OH266856   3.337   1.895  12.748  0.0830 -0.3864 -0.0965
15122TIP3    H166857   3.281   1.854  12.814  0.7439  0.2052  0.8515
15122TIP3    H266858   3.323   1.989  12.759 -2.3437 -0.3077 -3.0651
15123TIP3   OH266859   6.713   4.255   2.870  0.6960  0.9376 -0.2142
15123TIP3    H166860   6.808   4.266   2.877  0.6937  0.3250  0.8851
15123TIP3    H266861   6.701   4.176   2.818  0.7690  1.6743 -1.3685
15124TIP3   OH266862   0.572   6.749   1.290  0.0567  0.0603  0.2699
15124TIP3    H166863   0.486   6.747   1.248 -0.0565  1.0447  0.4277
15124TIP3    H266864   0.622   6.679   1.247 -0.7805 -0.4321  0.0985
15125TIP3   OH266865   2.994   6.125   5.882 -0.0086  0.7428 -0.5127
15125TIP3    H166866   2.927   6.127   5.951 -0.8657  3.0569 -1.3649
15125TIP3    H266867   3.076   6.146   5.926 -0.6257  2.6821 -0.2365
15126TIP3   OH266868   2.635   4.851  12.106  0.6166 -0.4583  0.3979
15126TIP3    H166869   2.708   4.798  12.073  0.2344 -0.8564  0.1816
15126TIP3    H266870   2.559   4.818  12.058  0.8473  2.4399 -2.1367
15127TIP3   OH266871   3.265   1.592   5.723  0.5541 -0.3932 -0.4504
15127TIP3    H166872   3.209   1.564   5.650 -0.9860  2.3309 -0.3638
15127TIP3    H266873   3.218   1.567   5.802  0.3602  0.1680 -0.3852
15128TIP3   OH266874   5.133   5.103   2.852 -0.5945  0.5947  0.0569
15128TIP3    H166875   5.125   5.170   2.919  1.8226  1.4400 -0.4665
15128TIP3    H266876   5.156   5.151   2.772  0.5333 -0.7689 -0.4637
15129TIP3   OH266877   6.486   1.091   0.510 -0.4965 -0.6241 -0.1244
15129TIP3    H166878   6.503   1.015   0.565 -1.8880 -0.1004  1.0625
15129TIP3    H266879   6.563   1.146   0.520 -0.0422 -1.2772  0.0213
15130TIP3   OH266880   2.481   6.383  15.783  0.6299  0.1921 -0.3647
15130TIP3    H166881   2.431   6.311  15.746  0.1390 -0.0007  0.6477
15130TIP3    H266882   2.466   6.377  15.878  2.1451  0.4521 -0.0885
15131TIP3   OH266883   3.098   2.778   2.573  0.0778  0.1309 -0.1037
15131TIP3    H166884   3.176   2.725   2.556 -0.3144 -0.0243 -1.5161
15131TIP3    H266885   3.132   2.866   2.589  0.4791  0.3917 -2.2328
15132TIP3   OH266886   4.513   4.842  16.422 -0.3674  0.5961  0.2194
15132TIP3    H166887   4.465   4.785  16.362  0.5112  0.4258 -0.3239
15132TIP3    H266888   4.590   4.870  16.373 -1.0918  2.7482  0.2618
15133TIP3   OH266889   6.782   0.980  13.031  0.4621  0.1687 -0.0696
15133TIP3    H166890   6.715   1.046  13.051  0.2779 -0.6470  2.2221
15133TIP3    H266891   6.788   0.980  12.936 -1.1454  1.8949 -0.2121
15134TIP3   OH266892   1.644   2.446  13.205 -0.0129  0.5342 -0.1687
15134TIP3    H166893   1.659   2.538  13.181 -1.2979  0.1095 -2.7347
15134TIP3    H266894   1.637   2.400  13.122  0.5283 -1.9131  1.0887
15135TIP3   OH266895   5.005   2.812   5.564  0.1473 -0.2934  0.4721
15135TIP3    H166896   5.009   2.730   5.514  1.2704 -0.7472  1.2834
15135TIP3    H266897   5.087   2.857   5.543 -0.5249  0.6958 -0.0759
15136TIP3   OH266898   1.064   2.486   5.428  0.2929  0.0919 -0.2971
15136TIP3    H166899   1.087   2.444   5.345  0.8816 -1.1523  0.4923
15136TIP3    H266900   1.099   2.575   5.419  1.7856 -0.5184 -0.7541
15137TIP3   OH266901   6.487   6.150   3.217 -0.5987  0.1339 -0.2218
15137TIP3    H166902   6.479   6.244   3.202  0.0696  0.0153 -1.3466
15137TIP3    H266903   6.576   6.138   3.248 -0.9344 -0.0344  0.6757
15138TIP3   OH266904   5.990   4.731  12.956 -0.0401 -0.2579  0.3727
15138TIP3    H166905   5.938   4.672  13.011 -2.3068  1.7567  0.4725
15138TIP3    H266906   6.017   4.676  12.882 -0.6675 -1.8531  1.2882
15139TIP3   OH266907   5.815   0.752   4.487  0.3265  0.4727 -0.2805
15139TIP3    H166908   5.846   0.843   4.488  2.4266 -0.2178 -0.2913
15139TIP3    H266909   5.830   0.723   4.397  0.0069 -0.0101 -0.1775
15140TIP3   OH266910   1.488   5.749  16.484  0.5436  0.5213 -0.2461
15140TIP3    H166911   1.435   5.744  16.404  0.4696  0.4364 -0.1928
15140TIP3    H266912   1.456   5.676  16.538  0.2712  0.8653  0.0601
15141TIP3   OH266913   0.687   1.293   1.929  0.3942  0.3284  0.1423
15141TIP3    H166914   0.619   1.226   1.921 -0.1823  0.9106  0.1672
15141TIP3    H266915   0.722   1.302   1.841  2.1433 -1.7387  0.5770
15142TIP3   OH266916   6.305   4.142   0.921  0.1012  0.2249  0.1041
15142TIP3    H166917   6.382   4.172   0.873  0.0808  1.0436  0.5751
15142TIP3    H266918   6.246   4.109   0.853  0.5373  0.3469 -0.3345
15143TIP3   OH266919   4.914   6.597  15.698  0.0925 -0.2401  0.0269
15143TIP3    H166920   4.874   6.511  15.705  0.5630 -0.3902  0.9723
15143TIP3    H266921   4.952   6.600  15.610  0.3936 -1.1269  0.1288
15144TIP3   OH266922   3.192   6.116   3.517  0.2627 -0.1279 -0.4761
15144TIP3    H166923   3.176   6.027   3.486  1.7345 -0.3272 -0.6835
15144TIP3    H266924   3.145   6.122   3.600 -0.3918 -0.8754 -0.7884
15145TIP3   OH266925   2.884   1.002   0.975 -0.4190 -0.5207 -0.0701
15145TIP3    H166926   2.927   0.916   0.983 -0.4360 -0.5203  0.0311
15145TIP3    H266927   2.889   1.039   1.063  0.2584 -0.0951 -0.2885
15146TIP3   OH266928   2.761   1.716  13.731 -0.2666  0.2136  0.1073
15146TIP3    H166929   2.829   1.648  13.734  0.6843  1.1587  0.2076
15146TIP3    H266930   2.777   1.769  13.809 -1.2609  0.3202  0.2436
15147TIP3   OH266931   5.231   1.230   3.328  0.7986  0.2485 -0.1894
15147TIP3    H166932   5.316   1.248   3.368  1.4032 -1.0161 -0.8809
15147TIP3    H266933   5.220   1.299   3.262  0.0807  1.9611  1.6792
15148TIP3   OH266934   4.560   3.269  15.505  0.5953  0.2943  0.3362
15148TIP3    H166935   4.487   3.315  15.465 -1.2301 -1.2403  1.8189
15148TIP3    H266936   4.575   3.315  15.588  0.9875  0.3061  0.2590
15149TIP3   OH266937   1.746   3.723  13.619  0.2350  0.9280  0.4581
15149TIP3    H166938   1.773   3.798  13.565  1.2821  0.7783  0.7610
15149TIP3    H266939   1.744   3.757  13.708 -0.2778  0.8563  0.4730
15150TIP3   OH266940   4.730   5.866   4.890 -0.3998 -0.7443  0.8518
15150TIP3    H166941   4.825   5.853   4.883 -0.4617 -0.5850 -0.3199
15150TIP3    H266942   4.692   5.782   4.864 -0.6673  0.2538 -2.1763
15151TIP3   OH266943   0.416   2.488  11.568  0.4121 -0.1571  0.7342
15151TIP3    H166944   0.411   2.448  11.481  1.0640  0.7011  0.2955
15151TIP3    H266945   0.400   2.416  11.628  1.0262 -0.9722 -0.0680
15152TIP3   OH266946   4.550   2.554   3.192 -0.5378 -0.4544  0.3625
15152TIP3    H166947   4.544   2.481   3.254 -1.0112  0.3534  1.2960
15152TIP3    H266948   4.554   2.632   3.248 -2.0587  0.3691 -0.6453
15153TIP3   OH266949   5.582   5.812  16.941  0.0458  0.2535 -0.8699
15153TIP3    H166950   5.585   5.885  16.880 -0.4456  0.7844 -0.2625
15153TIP3    H266951   5.569   5.735  16.885  1.5087  0.5039 -1.5863
15154TIP3   OH266952   3.183   4.659  13.785  0.7209  0.0390  0.5475
15154TIP3    H166953   3.140   4.582  13.747  1.0448  0.0094  0.2352
15154TIP3    H266954   3.276   4.646  13.767  0.5282  1.9249 -2.0997
15155TIP3   OH266955   2.106   3.820  15.254 -0.2152 -0.2382  0.6558
15155TIP3    H166956   2.119   3.840  15.162  0.0558  0.4289  0.8335
15155TIP3    H266957   2.049   3.890  15.286 -1.9477 -1.5630  0.5412
15156TIP3   OH266958   0.674   4.655   1.857 -0.2143  0.1268 -0.1894
15156TIP3    H166959   0.740   4.598   1.818  0.1864  0.1851  0.3920
15156TIP3    H266960   0.664   4.624   1.947  1.7475  2.4214  0.8873
15157TIP3   OH266961   0.711   2.935  15.265 -0.0404  0.0154 -0.1544
15157TIP3    H166962   0.667   2.915  15.182 -1.7411  0.6107  0.5741
15157TIP3    H266963   0.657   2.892  15.331  1.0213 -0.0262  0.6822
15158TIP3   OH266964   4.169   6.186   1.714 -0.1570 -0.1002 -0.3005
15158TIP3    H166965   4.206   6.181   1.803  0.6017 -0.0440 -0.6094
15158TIP3    H266966   4.075   6.171   1.726  0.1998 -1.9139  0.2894
15159TIP3   OH266967   2.080   0.963  16.883 -0.0354 -0.2777 -0.4267
15159TIP3    H166968   2.036   0.890  16.927  1.8045 -1.0747  0.1860
15159TIP3    H266969   2.144   0.994  16.947 -2.5525  3.6337  0.2863
15160TIP3   OH266970   0.757   2.448   3.894 -0.3137  0.3754  0.3151
15160TIP3    H166971   0.695   2.472   3.825  0.7131  0.9355 -0.4379
15160TIP3    H266972   0.839   2.492   3.868  0.7551 -1.4317  0.5752
15161TIP3   OH266973   6.804   4.448   3.528  0.5300 -0.0464 -0.2957
15161TIP3    H166974   6.786   4.405   3.612 -0.3513  1.0057  0.0751
15161TIP3    H266975   6.845   4.531   3.552 -0.1637  0.4754 -0.8734
15162TIP3   OH266976   2.843   0.242   3.439 -0.0251  0.4569 -0.1591
15162TIP3    H166977   2.806   0.313   3.387 -2.2075  1.1110  2.1292
15162TIP3    H266978   2.931   0.271   3.462 -0.6337  2.1261  0.1315
15163TIP3   OH266979   6.737   3.650   2.763 -0.5618  0.0257 -0.6788
15163TIP3    H166980   6.751   3.744   2.746  3.7830 -0.3552  0.2145
15163TIP3    H266981   6.769   3.607   2.684 -0.8046 -0.7896 -0.3321
15164TIP3   OH266982   2.943   2.771  15.994  0.0365  0.6709 -0.3426
15164TIP3    H166983   3.032   2.804  15.983  0.4043  0.0682  0.7138
15164TIP3    H266984   2.899   2.836  16.049  0.2367  0.2915  0.2714
15165TIP3   OH266985   1.397   3.392  13.174 -0.1377  0.4993  0.1807
15165TIP3    H166986   1.307   3.379  13.203 -0.2626  3.5550  1.3373
15165TIP3    H266987   1.390   3.409  13.081 -0.8816  1.8743  0.4833
15166TIP3   OH266988   1.728   5.905  17.085 -0.4251  0.1385 -0.3947
15166TIP3    H166989   1.783   5.886  17.009  1.8665 -0.1339  1.3002
15166TIP3    H266990   1.667   5.972  17.054  0.1192 -0.3528 -2.6187
15167TIP3   OH266991   3.312   5.726  14.751  0.1904  0.2470 -0.2487
15167TIP3    H166992   3.255   5.721  14.675 -1.1571 -1.4264  0.8429
15167TIP3    H266993   3.323   5.636  14.780  2.2285  0.6691  0.4392
15168TIP3   OH266994   0.444   6.215  14.110 -0.2405 -0.3197  0.3340
15168TIP3    H166995   0.502   6.278  14.066 -0.7075  0.5695  0.9667
15168TIP3    H266996   0.503   6.151  14.149  0.3422  0.6286  1.0407
15169TIP3   OH266997   6.725   2.289   4.669 -0.3166 -0.5140 -0.3061
15169TIP3    H166998   6.663   2.347   4.713 -0.7462  0.7378 -2.4697
15169TIP3    H266999   6.751   2.338   4.591  0.7763 -2.4651 -1.1866
15170TIP3   OH267000   6.804   1.311   4.378  0.1532  0.5655  0.0025
15170TIP3    H167001   6.773   1.221   4.389 -0.8776  1.0062  0.6920
15170TIP3    H267002   6.738   1.365   4.420  1.2391  1.5953  0.4083
15171TIP3   OH267003   5.931   2.617   5.536 -0.3259  0.4098 -0.5310
15171TIP3    H167004   5.885   2.579   5.611  0.7229 -0.0422 -0.1050
15171TIP3    H267005   6.017   2.576   5.538 -0.3985  0.1470 -2.1862
15172TIP3   OH267006   1.779   1.501   1.043 -0.0047  0.5983  0.6930
15172TIP3    H167007   1.707   1.565   1.045  1.4944  2.3098  0.2731
15172TIP3    H267008   1.814   1.502   1.132  0.9619  1.4502  0.3071
15173TIP3   OH267009   2.787   2.075  11.838  0.1940  0.4566  0.1078
15173TIP3    H167010   2.834   2.149  11.799  0.5162  0.4469  0.4652
15173TIP3    H267011   2.791   2.006  11.773  0.9349  0.3595  0.2528
15174TIP3   OH267012   5.338   0.676  10.939  0.5593 -0.3502 -0.2980
15174TIP3    H167013   5.274   0.719  10.882  0.0024 -1.6016 -0.6383
15174TIP3    H267014   5.312   0.584  10.939  1.2842 -0.5691  1.0201
15175TIP3   OH267015   6.625   2.066  12.656  0.1960  0.7715 -0.3446
15175TIP3    H167016   6.671   2.150  12.643  1.6029 -0.1138 -1.3047
15175TIP3    H267017   6.686   2.001  12.620 -1.3931 -0.5427 -0.6734
15176TIP3   OH267018   2.098   5.047  15.385  0.1395  0.0828  0.1977
15176TIP3    H167019   2.059   5.018  15.302 -0.2932  1.1407  0.0223
15176TIP3    H267020   2.087   4.973  15.444 -0.0839 -0.4670 -0.5228
15177TIP3   OH267021   6.543   5.760  17.113  1.0119  0.2721  0.3284
15177TIP3    H167022   6.629   5.726  17.139  0.1910 -1.6219  0.6476
15177TIP3    H267023   6.493   5.763  17.194  0.8259  1.5368  0.1665
15178TIP3   OH267024   2.367   3.703   4.450 -0.0319 -0.3787  0.1578
15178TIP3    H167025   2.426   3.771   4.482 -1.3792  1.3520 -0.9745
15178TIP3    H267026   2.365   3.715   4.355 -1.7425 -0.7764  0.1240
15179TIP3   OH267027   6.476   6.421  11.945 -0.2314 -0.3167  0.4308
15179TIP3    H167028   6.525   6.340  11.931 -2.1490 -1.4138 -0.1096
15179TIP3    H267029   6.389   6.392  11.971 -2.0181  1.4700 -3.1985
15180TIP3   OH267030   3.976   5.169  12.473  0.0741  0.6362 -0.2312
15180TIP3    H167031   4.023   5.086  12.467  0.4104  0.7499  0.8077
15180TIP3    H267032   3.905   5.153  12.535  0.8250  1.4361  0.8493
15181TIP3   OH267033   1.085   0.875   5.052  0.1069  0.6759  0.0934
15181TIP3    H167034   1.108   0.800   4.998 -1.8695  0.8017 -0.9907
15181TIP3    H267035   1.073   0.839   5.140 -1.0239 -0.3249 -0.4607
15182TIP3   OH267036   3.305   0.491  16.842 -0.4426  0.7300  0.1924
15182TIP3    H167037   3.349   0.420  16.889  0.4602  0.8242 -0.5018
15182TIP3    H267038   3.359   0.568  16.859 -1.1861  1.1754  0.5934
15183TIP3   OH267039   5.393   3.796   3.794  0.0473  0.3009 -0.3373
15183TIP3    H167040   5.313   3.836   3.827 -0.7707 -1.1846 -0.4733
15183TIP3    H267041   5.462   3.859   3.815 -1.1076  1.4635  0.0426
15184TIP3   OH267042   0.456   1.386  14.551 -0.4737 -0.4655 -0.8648
15184TIP3    H167043   0.398   1.343  14.614  0.8643 -1.8519 -0.5596
15184TIP3    H267044   0.422   1.360  14.466 -0.8121 -0.5823 -0.6958
15185TIP3   OH267045   5.170   2.970   5.121  0.4031  0.3156 -0.3582
15185TIP3    H167046   5.171   2.876   5.140  1.3209  0.7230  1.7007
15185TIP3    H267047   5.233   2.981   5.050  0.4492 -0.5780 -0.4663
15186TIP3   OH267048   2.171   0.489  12.151  0.1168 -0.5717 -0.0794
15186TIP3    H167049   2.231   0.493  12.226  1.6351 -1.3107 -1.2025
15186TIP3    H267050   2.108   0.421  12.175  1.0032 -1.2920  0.2625
15187TIP3   OH267051   3.539   4.492   4.113  0.6860  0.3826 -0.0278
15187TIP3    H167052   3.617   4.439   4.134  0.4802  0.8450  2.0382
15187TIP3    H267053   3.491   4.496   4.195 -0.8163  1.3010 -0.9400
15188TIP3   OH267054   1.309   2.872  11.872 -0.4528  0.6705  0.4931
15188TIP3    H167055   1.369   2.937  11.835 -0.4884  0.4368  0.0205
15188TIP3    H267056   1.321   2.880  11.966 -1.1362  2.0141  0.4760
15189TIP3   OH267057   3.745   5.060  16.692 -0.1967  0.1316 -0.5440
15189TIP3    H167058   3.722   5.151  16.713  3.0511  0.7992  0.2883
15189TIP3    H267059   3.807   5.066  16.620  0.2598 -1.4114 -0.3014
15190TIP3   OH267060   4.936   1.523  11.171  0.1232 -0.2139  0.3753
15190TIP3    H167061   4.889   1.554  11.249 -0.4783  0.9538 -0.4354
15190TIP3    H267062   4.900   1.575  11.099  0.4390 -1.5210 -0.7366
15191TIP3   OH267063   6.119   5.347  15.318  0.0456  0.1175  0.0890
15191TIP3    H167064   6.110   5.368  15.225  1.1890  0.6638  0.0983
15191TIP3    H267065   6.050   5.398  15.360 -0.3782 -0.0120 -0.4324
15192TIP3   OH267066   0.743   6.210   1.057 -0.5914 -0.1928 -0.5205
15192TIP3    H167067   0.772   6.120   1.069  1.5526  0.7464  1.4998
15192TIP3    H267068   0.748   6.224   0.962  3.2602 -0.8399 -0.4832
15193TIP3   OH267069   1.233   4.284  15.221 -0.0801 -0.5574  0.4691
15193TIP3    H167070   1.274   4.371  15.217  1.0582 -0.8834  3.4273
15193TIP3    H267071   1.147   4.299  15.260  0.2210 -0.7822  1.2245
15194TIP3   OH267072   4.052   5.814   3.526 -0.0590  0.3349  0.1469
15194TIP3    H167073   4.063   5.748   3.595  2.4779 -0.5078 -0.9675
15194TIP3    H267074   4.006   5.886   3.568  0.2570 -0.7127  2.3692
15195TIP3   OH267075   1.273   5.687   2.546 -0.1427  0.3966 -0.3839
15195TIP3    H167076   1.363   5.700   2.515  0.0263  0.9993  0.3443
15195TIP3    H267077   1.270   5.735   2.629 -0.8555 -0.4371  0.0682
15196TIP3   OH267078   1.749   2.244   0.202 -0.4283 -0.4458  0.0822
15196TIP3    H167079   1.695   2.194   0.263 -1.4367  1.7502  1.0589
15196TIP3    H267080   1.820   2.279   0.256  1.2075 -2.1517 -0.9162
15197TIP3   OH267081   0.641   0.595   4.978 -0.5936  0.0962 -0.0382
15197TIP3    H167082   0.684   0.513   4.955 -1.2787  0.0389 -1.1848
15197TIP3    H267083   0.702   0.663   4.951 -2.2163  0.1008 -4.0890
15198TIP3   OH267084   5.760   2.786  16.404 -0.8542 -0.6792  0.6968
15198TIP3    H167085   5.840   2.749  16.367 -0.3656  1.7613 -0.8142
15198TIP3    H267086   5.763   2.764  16.497 -0.3731 -3.9696 -0.0670
15199TIP3   OH267087   3.908   5.384  14.524 -0.6037  0.3613  0.0548
15199TIP3    H167088   3.816   5.376  14.497 -0.2314 -0.1182 -1.1160
15199TIP3    H267089   3.934   5.470  14.491 -0.4920  0.2828 -0.0636
15200TIP3   OH267090   0.485   0.242  10.751  1.2003 -0.6079 -0.0585
15200TIP3    H167091   0.410   0.195  10.716  1.1343 -1.7398  1.5347
15200TIP3    H267092   0.473   0.333  10.723 -1.1170 -0.6366  0.7596
15201TIP3   OH267093   2.636   4.390  15.582  0.2443  0.5266  0.1848
15201TIP3    H167094   2.613   4.480  15.560 -0.7843  0.2700  0.1631
15201TIP3    H267095   2.606   4.339  15.507 -0.7003 -0.0179  0.9156
15202TIP3   OH267096   4.870   1.449   0.212  0.5788  0.0985 -0.7214
15202TIP3    H167097   4.814   1.378   0.244  0.3004  0.2989 -0.7648
15202TIP3    H267098   4.828   1.479   0.132 -0.7490  2.0751  0.6829
15203TIP3   OH267099   1.526   6.761   0.154 -0.1369  0.3588  0.2128
15203TIP3    H167100   1.570   6.783   0.071  2.2447 -0.5813  1.2015
15203TIP3    H267101   1.475   6.840   0.174  0.2784  1.1016 -1.4805
15204TIP3   OH267102   0.559   5.121   2.439  1.0110  0.3887 -0.2450
15204TIP3    H167103   0.621   5.049   2.454 -1.6685 -1.2151  4.0041
15204TIP3    H267104   0.499   5.087   2.373 -0.0779 -1.2440  1.5376
15205TIP3   OH267105   5.045   4.002   1.281 -0.3409 -0.4001  0.2766
15205TIP3    H167106   4.981   4.068   1.255 -0.9551 -1.3911 -0.7881
15205TIP3    H267107   5.124   4.025   1.233 -0.8440 -0.9920 -0.8462
15206TIP3   OH267108   2.163   3.673  16.389 -0.5723  0.8737 -0.0613
15206TIP3    H167109   2.193   3.627  16.310 -3.0070  1.1083 -1.1810
15206TIP3    H267110   2.209   3.631  16.461 -1.0477 -1.7976 -1.2764
15207TIP3   OH267111   2.349   6.287   6.112 -0.4939 -0.5084 -0.0223
15207TIP3    H167112   2.385   6.224   6.049 -0.3059  2.1835 -2.7212
15207TIP3    H267113   2.267   6.316   6.072 -0.6326  0.8935  1.2446
15208TIP3   OH267114   1.645   2.892   3.377  0.0118  0.0081 -0.0272
15208TIP3    H167115   1.696   2.879   3.297  0.7912 -3.7160  0.9845
15208TIP3    H267116   1.560   2.924   3.346  0.7777  0.0435 -2.1907
15209TIP3   OH267117   3.426   3.344  13.688  0.7359  0.0790 -0.7246
15209TIP3    H167118   3.420   3.423  13.634  0.4152  0.5512 -0.0088
15209TIP3    H267119   3.377   3.366  13.768  0.1383 -1.0626 -0.7780
15210TIP3   OH267120   0.049   5.764   2.970  0.1813 -0.0182 -0.2212
15210TIP3    H167121  -0.016   5.787   2.904 -0.9699 -1.5019  0.3908
15210TIP3    H267122   0.076   5.675   2.948 -0.0162 -0.4297  1.1527
15211TIP3   OH267123   6.209   1.397   4.202 -0.0649  0.5602  0.7303
15211TIP3    H167124   6.297   1.388   4.166 -0.0565  1.1287  0.6039
15211TIP3    H267125   6.153   1.352   4.139  0.1494  0.0858  0.8778
15212TIP3   OH267126   6.298   5.250  12.595  0.0797  0.4613 -0.1366
15212TIP3    H167127   6.294   5.189  12.521 -3.0220 -0.5070  0.7599
15212TIP3    H267128   6.347   5.203  12.662 -2.0773 -0.9996  0.4626
15213TIP3   OH267129   4.302   4.270  10.786 -0.4522 -0.1432  0.5084
15213TIP3    H167130   4.318   4.343  10.725  0.7378 -0.9931 -0.2370
15213TIP3    H267131   4.221   4.229  10.755 -1.0094  0.7301  0.8027
15214TIP3   OH267132   2.388   1.323  13.079 -0.5104  0.0963  0.1654
15214TIP3    H167133   2.388   1.244  13.025  1.7360  1.0422 -1.2832
15214TIP3    H267134   2.335   1.386  13.030  0.5285  0.5731 -0.3464
15215TIP3   OH267135   5.288   1.938  17.020 -0.4012 -0.4198 -0.0595
15215TIP3    H167136   5.316   2.026  16.995  0.2662 -0.0699  1.8092
15215TIP3    H267137   5.197   1.949  17.049 -0.1048 -0.2205  0.8014
15216TIP3   OH267138   0.676   4.630   3.360  1.5186 -0.0176  0.6542
15216TIP3    H167139   0.609   4.669   3.304  1.2359 -1.8026 -0.3015
15216TIP3    H267140   0.685   4.690   3.433 -2.8566 -0.8852  2.0450
15217TIP3   OH267141   6.435   6.361   1.877  0.7160 -0.1379  0.8553
15217TIP3    H167142   6.425   6.313   1.959 -2.5062  1.0070  1.2292
15217TIP3    H267143   6.430   6.293   1.809 -1.7805 -0.5984  1.4491
15218TIP3   OH267144   2.703   5.818  12.863 -0.1358 -0.6391 -0.0172
15218TIP3    H167145   2.675   5.782  12.779  0.5535 -0.1153 -0.4766
15218TIP3    H267146   2.712   5.742  12.920 -1.1346 -0.9407 -0.2616
15219TIP3   OH267147   5.411   1.031   0.808 -0.1781 -0.1483 -0.3029
15219TIP3    H167148   5.398   1.030   0.713  0.5216  0.7480 -0.4043
15219TIP3    H267149   5.378   0.946   0.837 -1.5575  0.0720 -1.1946
15220TIP3   OH267150   3.056   4.228  11.891 -0.3277  0.3981  0.1637
15220TIP3    H167151   2.980   4.192  11.936 -0.4840  1.5281  0.8235
15220TIP3    H267152   3.107   4.151  11.864 -0.4013 -0.2911  1.9682
15221TIP3   OH267153   2.993   1.380  11.626 -0.1143 -0.1743 -0.1148
15221TIP3    H167154   3.078   1.340  11.604  0.0219 -0.3117  0.6692
15221TIP3    H267155   2.945   1.311  11.671 -0.6792 -0.1168 -0.6207
15222TIP3   OH267156   1.599   0.088   5.210  0.1066 -0.1235  0.3338
15222TIP3    H167157   1.586   0.098   5.304  0.7776 -1.1806  0.5560
15222TIP3    H267158   1.691   0.062   5.201  0.4000  1.2379 -0.7130
15223TIP3   OH267159   1.551   5.941  15.446  0.2044  0.0952 -0.0409
15223TIP3    H167160   1.625   5.957  15.504  1.2644 -0.8641 -1.0930
15223TIP3    H267161   1.576   5.981  15.363 -0.6227  0.1205 -0.2852
15224TIP3   OH267162   2.525   1.989  15.653 -0.7542 -0.1754 -0.4430
15224TIP3    H167163   2.545   1.921  15.718  0.7334  0.2412 -0.4517
15224TIP3    H267164   2.429   1.998  15.657 -0.9754 -2.2765 -0.4646
15225TIP3   OH267165   4.943   0.151  14.336  0.0035 -0.2493 -0.0348
15225TIP3    H167166   5.010   0.083  14.339  1.5514  1.2079 -0.0616
15225TIP3    H267167   4.917   0.163  14.428  2.2311  1.4633  0.4179
15226TIP3   OH267168   2.125   0.545  14.217 -0.6858  0.3310 -0.2700
15226TIP3    H167169   2.066   0.553  14.143 -1.5033  0.4802  0.3914
15226TIP3    H267170   2.171   0.462  14.202 -1.6983 -0.2278 -0.3339
15227TIP3   OH267171   3.743   4.431  14.614 -0.7349 -0.2925 -0.1002
15227TIP3    H167172   3.678   4.364  14.632  0.6207 -1.4913  0.4239
15227TIP3    H267173   3.738   4.490  14.690 -2.2607  0.4937 -0.7920
15228TIP3   OH267174   4.041   1.165  11.688  0.2028 -0.3527 -0.0274
15228TIP3    H167175   4.010   1.241  11.638  0.7198 -0.4986 -0.5796
15228TIP3    H267176   4.134   1.158  11.665  0.7628  0.3578  1.9589
15229TIP3   OH267177   5.313   6.374   5.972 -0.2243 -0.0187 -0.5360
15229TIP3    H167178   5.360   6.327   6.041  0.7608  0.5093 -0.8471
15229TIP3    H267179   5.243   6.314   5.946  0.4054 -0.9019 -0.2147
15230TIP3   OH267180   3.877   0.088   4.855 -0.3175  0.1115 -0.0359
15230TIP3    H167181   3.919   0.098   4.770 -0.5190  0.1606 -0.1315
15230TIP3    H267182   3.837   0.173   4.872 -1.5399 -0.3401 -0.5754
15231TIP3   OH267183   1.282   2.650  14.232  0.2079  0.4806  0.3485
15231TIP3    H167184   1.223   2.712  14.188 -1.8663 -2.9533 -1.8935
15231TIP3    H267185   1.366   2.662  14.187  0.0851  2.2072  0.5173
15232TIP3   OH267186   6.718   3.863   6.817  0.5926 -0.7265  0.6008
15232TIP3    H167187   6.764   3.834   6.738 -0.1498 -0.2115 -0.0254
15232TIP3    H267188   6.649   3.921   6.785 -0.0004 -0.8709  1.5934
15233TIP3   OH267189   0.093   5.763   2.388 -0.3123  0.4258  0.2198
15233TIP3    H167190   0.109   5.834   2.327  1.4222  1.7474  2.1305
15233TIP3    H267191   0.154   5.694   2.360  2.9411  2.2707  2.3453
15234TIP3   OH267192   5.837   0.771  16.396  0.6931  0.0857  0.1607
15234TIP3    H167193   5.817   0.863  16.378  1.5274 -0.0979 -1.9013
15234TIP3    H267194   5.922   0.772  16.438  1.8344  0.1454 -2.0711
15235TIP3   OH267195   5.551   0.258  12.624 -0.7153  0.0660 -0.6070
15235TIP3    H167196   5.525   0.302  12.704 -0.9504 -0.6115 -0.3080
15235TIP3    H267197   5.484   0.281  12.560 -0.3160  0.9271 -0.7258
15236TIP3   OH267198   0.278   6.337   4.015 -0.4727  0.5095  0.2833
15236TIP3    H167199   0.304   6.377   4.097 -0.3288  0.6419  0.1739
15236TIP3    H267200   0.294   6.404   3.949 -2.4943  1.1131  0.3925
15237TIP3   OH267201   4.651   5.711  14.245  0.3843 -0.4694  1.0675
15237TIP3    H167202   4.704   5.673  14.315 -0.3868  0.5291  2.2255
15237TIP3    H267203   4.633   5.639  14.186  1.3433 -1.2562  1.7240
15238TIP3   OH267204   0.462   5.992   0.812  0.4984  0.1145 -0.3281
15238TIP3    H167205   0.367   5.984   0.812  0.4740  0.3426  0.6020
15238TIP3    H267206   0.478   6.086   0.805  0.6326  0.1668  0.5601
15239TIP3   OH267207   6.680   5.116   2.119  0.0498  0.3145  0.0123
15239TIP3    H167208   6.591   5.090   2.095  0.1468 -1.1616  1.1570
15239TIP3    H267209   6.737   5.052   2.075  0.5347  1.2281 -0.6838
15240TIP3   OH267210   3.499   4.905  11.285 -0.1978  0.2160  0.3654
15240TIP3    H167211   3.593   4.924  11.281 -0.3291  1.0178  0.8729
15240TIP3    H267212   3.493   4.810  11.289  0.5843  0.1516  0.0163
15241TIP3   OH267213   6.238   3.070   3.242 -0.0703 -0.0013 -0.4344
15241TIP3    H167214   6.147   3.098   3.258  0.5977  1.4819  0.9143
15241TIP3    H267215   6.288   3.151   3.244  1.6434 -1.0821  1.3795
15242TIP3   OH267216   1.573   2.902   1.248  0.2087 -0.2992 -0.4893
15242TIP3    H167217   1.560   2.809   1.231 -0.3722  0.0191 -1.8913
15242TIP3    H267218   1.638   2.905   1.317  1.1056 -1.7320 -1.2461
15243TIP3   OH267219   6.261   2.459  14.815  0.0705 -0.4804 -0.0997
15243TIP3    H167220   6.209   2.463  14.735  0.0792 -0.8351 -0.1239
15243TIP3    H267221   6.207   2.410  14.877 -0.5553  1.0313  0.5878
15244TIP3   OH267222   0.784   3.772   5.882  0.4965  0.2537  0.0062
15244TIP3    H167223   0.858   3.774   5.943  2.0427  0.8887 -1.8413
15244TIP3    H267224   0.714   3.819   5.928  1.8929  1.4303  0.9580
15245TIP3   OH267225   3.344   6.457   5.421  0.6362 -0.2444  0.2155
15245TIP3    H167226   3.273   6.503   5.376  0.5873 -0.5905 -0.0569
15245TIP3    H267227   3.305   6.375   5.451  0.4332  0.3509  1.6281
15246TIP3   OH267228   6.495   6.494  13.951 -0.4724 -0.5830  0.0545
15246TIP3    H167229   6.588   6.510  13.935 -0.8243  1.2730 -0.2500
15246TIP3    H267230   6.455   6.496  13.864 -0.9523 -0.3821  0.2815
15247TIP3   OH267231   0.233   6.660  14.696  0.6828 -0.0357 -0.2671
15247TIP3    H167232   0.237   6.637  14.788 -1.2540 -0.1748 -0.1956
15247TIP3    H267233   0.282   6.591  14.651  1.4227 -0.0964  0.6280
15248TIP3   OH267234   5.226   2.902  13.367 -0.6221 -0.6032 -0.6102
15248TIP3    H167235   5.153   2.884  13.308  0.5654 -2.2081 -1.6196
15248TIP3    H267236   5.304   2.872  13.320  0.4584 -0.9386  1.3223
15249TIP3   OH267237   2.689   0.797  13.844 -0.6818  0.0263 -0.3783
15249TIP3    H167238   2.660   0.714  13.882  1.4182 -0.8530 -0.6573
15249TIP3    H267239   2.670   0.862  13.911 -1.4109 -0.8039  0.2418
15250TIP3   OH267240   6.543   4.075   2.474  0.2586  0.8118 -0.1685
15250TIP3    H167241   6.508   4.164   2.466  0.1163  0.7305 -0.4373
15250TIP3    H267242   6.465   4.019   2.469  0.3303  0.6784  0.1713
15251TIP3   OH267243   0.915   3.102  13.804 -0.2542  0.0989 -0.1442
15251TIP3    H167244   0.983   3.155  13.847  0.1714  0.0419 -0.7339
15251TIP3    H267245   0.930   3.116  13.710  2.2340 -3.9444 -0.4804
15252TIP3   OH267246   5.430   1.747   1.512 -0.0212 -0.1208  0.2120
15252TIP3    H167247   5.521   1.768   1.493 -0.1430 -1.8242 -2.5305
15252TIP3    H267248   5.424   1.750   1.608  2.9926 -0.3399  0.4573
15253TIP3   OH267249   5.999   1.687   0.539  0.3634  0.4871  0.0667
15253TIP3    H167250   6.076   1.677   0.483  0.4718  1.2363  0.0831
15253TIP3    H267251   5.928   1.704   0.478  0.0980 -0.7864  0.0076
15254TIP3   OH267252   5.520   2.626  12.265  0.2461 -0.2671 -0.5112
15254TIP3    H167253   5.486   2.712  12.239  0.7546  0.3582  0.8113
15254TIP3    H267254   5.476   2.607  12.348  1.2934 -0.5498 -0.0086
15255TIP3   OH267255   2.808   2.386   4.977 -0.0722  0.2906 -0.1838
15255TIP3    H167256   2.772   2.343   5.055 -0.1468 -1.6796 -1.2862
15255TIP3    H267257   2.760   2.347   4.904  0.8163  1.2944 -1.3094
15256TIP3   OH267258   2.288   2.401  12.748  0.7071  0.4141 -0.5220
15256TIP3    H167259   2.366   2.434  12.792 -0.2628  1.7559  0.2374
15256TIP3    H267260   2.260   2.327  12.801  1.5449 -0.1775 -0.8922
15257TIP3   OH267261   2.926   6.378   4.709 -0.3512 -0.0518 -0.0121
15257TIP3    H167262   2.989   6.435   4.754  2.1959 -1.6585 -1.4228
15257TIP3    H267263   2.923   6.299   4.763  1.3187 -1.2455 -1.6043
15258TIP3   OH267264   4.533   1.288  14.518 -0.3448 -0.2070  0.0276
15258TIP3    H167265   4.470   1.222  14.491  0.9221 -1.7732  0.8055
15258TIP3    H267266   4.548   1.341  14.439 -0.4139 -1.6383 -0.9706
15259TIP3   OH267267   4.829   5.512  11.511  0.2921  0.6240  0.0155
15259TIP3    H167268   4.759   5.566  11.475  1.3808  1.5863 -0.6916
15259TIP3    H267269   4.862   5.462  11.436  1.5600  1.5242 -0.0568
15260TIP3   OH267270   5.474   1.308  15.973 -0.8300 -0.4910  0.7947
15260TIP3    H167271   5.513   1.393  15.954 -1.8436 -0.3905 -0.8568
15260TIP3    H267272   5.548   1.247  15.972 -0.4213  0.0206 -0.2062
15261TIP3   OH267273   3.334   5.018   0.001 -0.1371  0.3074 -0.4857
15261TIP3    H167274   3.421   5.053   0.020 -0.1368  0.4818 -0.7890
15261TIP3    H267275   3.286   5.025   0.083 -0.4055  1.8561 -0.7576
15262TIP3   OH267276   4.488   0.255  15.408  0.0957 -0.7114  0.1312
15262TIP3    H167277   4.428   0.185  15.384  1.5338 -1.4552 -1.3858
15262TIP3    H267278   4.452   0.333  15.365 -1.3259 -0.5371  1.5617
15263TIP3   OH267279   1.111   3.529  12.340 -0.3634  0.2139  0.0155
15263TIP3    H167280   1.101   3.437  12.315  0.5222 -0.2482  1.2741
15263TIP3    H267281   1.028   3.569  12.317  0.5784  0.0012 -4.2082
15264TIP3   OH267282   4.871   4.379   1.697  0.1758 -0.7121  0.0114
15264TIP3    H167283   4.860   4.368   1.791 -1.0528 -1.2820 -0.1826
15264TIP3    H267284   4.948   4.326   1.675  2.6000  2.2364  1.2190
15265TIP3   OH267285   3.351   4.572  16.481 -1.0026  0.0612  0.4055
15265TIP3    H167286   3.320   4.482  16.476 -0.5988 -0.0101 -0.9345
15265TIP3    H267287   3.410   4.572  16.557 -0.3928 -0.9940 -0.0597
15266TIP3   OH267288   2.125   5.325  13.929 -0.1806 -0.0689 -0.5961
15266TIP3    H167289   2.072   5.395  13.890  0.2976  1.1426  0.8890
15266TIP3    H267290   2.122   5.343  14.023 -0.1398 -2.1238 -0.1835
15267TIP3   OH267291   3.064   6.257  13.976  0.2626  0.0559  0.2700
15267TIP3    H167292   3.063   6.164  13.955 -0.5687 -0.0737  0.8349
15267TIP3    H267293   3.013   6.298  13.906  1.6844  0.2501 -0.6658
15268TIP3   OH267294   1.640   2.168   0.459  0.2017 -0.3646  0.3618
15268TIP3    H167295   1.681   2.109   0.522 -0.6624 -0.0152  1.2737
15268TIP3    H267296   1.659   2.255   0.493  0.9362 -0.1275 -0.6410
15269TIP3   OH267297   1.606   0.395  16.325  0.3968  0.1351  0.0906
15269TIP3    H167298   1.640   0.434  16.406  0.4055  0.2429  0.0340
15269TIP3    H267299   1.513   0.382  16.342 -0.2442  2.9757 -0.9788
15270TIP3   OH267300   3.648   1.980  11.959 -0.2914  0.2912 -0.1975
15270TIP3    H167301   3.638   1.918  12.031  1.9285  0.2275  0.0949
15270TIP3    H267302   3.559   1.995  11.927 -1.0606 -1.3981  1.1043
15271TIP3   OH267303   5.536   5.074   1.294  0.2739 -0.4170 -0.6664
15271TIP3    H167304   5.549   4.981   1.275 -0.0642 -0.4738 -0.6345
15271TIP3    H267305   5.569   5.085   1.383  0.0041 -0.5820 -0.5432
15272TIP3   OH267306   3.632   3.921   2.247  0.2142  0.0555  0.1613
15272TIP3    H167307   3.570   3.992   2.229 -0.7429 -0.6254  0.7046
15272TIP3    H267308   3.589   3.842   2.213  1.5198 -0.1978 -0.9560
15273TIP3   OH267309   3.742   4.429  13.971  0.2550 -0.3367  0.0304
15273TIP3    H167310   3.804   4.371  13.928  0.5851  1.3188 -1.8110
15273TIP3    H267311   3.764   4.516  13.937 -1.1471  0.6644  1.6290
15274TIP3   OH267312   1.185   5.292   3.413  0.3686  0.3595 -0.5757
15274TIP3    H167313   1.236   5.307   3.333 -0.4241  2.3691 -0.7273
15274TIP3    H267314   1.172   5.379   3.450 -0.8976 -0.3734  0.7424
15275TIP3   OH267315   5.289   3.764  10.848  0.4199 -0.1192  0.2273
15275TIP3    H167316   5.264   3.730  10.762  1.4414 -0.0482 -0.1021
15275TIP3    H267317   5.271   3.692  10.908  0.2071 -0.3575 -0.1232
15276TIP3   OH267318   0.767   0.858   0.679  0.4497 -0.1938  0.4531
15276TIP3    H167319   0.782   0.923   0.611 -0.6853  0.6907  1.0389
15276TIP3    H267320   0.855   0.827   0.701  0.8574 -0.2225 -1.1354
15277TIP3   OH267321   5.642   3.349  12.127  0.2826 -0.4700 -0.2662
15277TIP3    H167322   5.608   3.287  12.192  0.8381  0.2046  0.6676
15277TIP3    H267323   5.600   3.432  12.149 -0.6772 -0.5529 -1.6908
15278TIP3   OH267324   2.853   1.337  12.755 -0.2644  0.1888  0.2255
15278TIP3    H167325   2.876   1.398  12.825  1.3443 -0.4894  0.3273
15278TIP3    H267326   2.929   1.338  12.696  0.4303 -2.7157  0.9633
15279TIP3   OH267327   5.156   2.044   0.920 -0.0951 -0.1528 -0.6653
15279TIP3    H167328   5.134   1.998   0.839  1.1071 -0.9784 -0.5399
15279TIP3    H267329   5.088   2.110   0.930 -0.7309 -0.6154 -1.8979
15280TIP3   OH267330   6.797   5.859  11.517  0.6330  0.1767 -0.2239
15280TIP3    H167331   6.732   5.929  11.511  1.6603  1.3875  1.9507
15280TIP3    H267332   6.846   5.865  11.435  0.4265  1.7645 -0.2508
15281TIP3   OH267333   2.845   5.885  12.545  0.1881 -0.1350 -0.4712
15281TIP3    H167334   2.892   5.948  12.490  0.8264  0.0273  0.2485
15281TIP3    H267335   2.891   5.888  12.629 -2.5794  1.8119  1.0302
15282TIP3   OH267336   6.742   1.883   3.838  0.1399  0.3646  0.0110
15282TIP3    H167337   6.805   1.828   3.884  0.5103  1.7000  1.1268
15282TIP3    H267338   6.661   1.874   3.888  0.0275  0.3413 -0.1736
15283TIP3   OH267339   0.380   1.734  16.713 -0.0365  0.1830 -0.0011
15283TIP3    H167340   0.359   1.682  16.636  1.8940  0.3197 -0.6419
15283TIP3    H267341   0.316   1.706  16.779 -0.9458 -0.7886 -1.2657
15284TIP3   OH267342   6.740   5.513  14.177  0.3353 -0.1350 -0.6950
15284TIP3    H167343   6.697   5.565  14.245 -0.5109  1.1640 -2.1996
15284TIP3    H267344   6.668   5.480  14.123  1.0742 -0.1179 -1.7064
15285TIP3   OH267345   0.946   6.570   4.665 -0.4282  0.1181 -0.4234
15285TIP3    H167346   1.005   6.568   4.590 -0.4401  0.6218 -0.4471
15285TIP3    H267347   0.927   6.478   4.683  1.6328 -0.1448  0.5723
15286TIP3   OH267348   5.124   2.907   1.543 -0.1726  0.9092 -0.2080
15286TIP3    H167349   5.150   2.920   1.452 -0.2840 -2.0220 -0.7002
15286TIP3    H267350   5.206   2.916   1.592  0.0630  1.4212 -0.6848
15287TIP3   OH267351   4.005   0.131  16.132 -0.3169 -0.3582 -0.1362
15287TIP3    H167352   3.938   0.065  16.119  1.6127 -1.9485 -2.1620
15287TIP3    H267353   4.019   0.170  16.046 -0.0465  1.3730  0.6586
15288TIP3   OH267354   2.618   3.620  10.879 -0.4481  0.3850  0.0560
15288TIP3    H167355   2.593   3.703  10.838  0.3247 -0.3635 -1.9881
15288TIP3    H267356   2.607   3.555  10.810  1.4756 -0.8397  0.8729
15289TIP3   OH267357   1.976   6.011  11.805 -0.0918  0.0616  0.3748
15289TIP3    H167358   1.973   5.915  11.808 -0.6599  0.0778  0.4108
15289TIP3    H267359   2.028   6.036  11.881  1.5964 -0.2885 -0.6289
15290TIP3   OH267360   6.655   4.511  15.079  0.2332  0.0591 -0.2107
15290TIP3    H167361   6.598   4.438  15.054 -1.3265  0.9381  0.7405
15290TIP3    H267362   6.630   4.531  15.169  1.8746  0.6400  0.1333
15291TIP3   OH267363   3.592   3.102  15.283  0.1127 -0.3068  0.3080
15291TIP3    H167364   3.519   3.044  15.261 -2.5095  2.8664  0.2169
15291TIP3    H267365   3.590   3.170  15.215  3.2946 -0.2315  0.2146
15292TIP3   OH267366   1.087   6.051  14.325 -0.1046  0.2174 -0.5996
15292TIP3    H167367   1.091   5.961  14.293 -2.3947 -0.7051  1.5265
15292TIP3    H267368   1.010   6.089  14.282 -0.9859  0.1376  0.8483
15293TIP3   OH267369   2.116   1.206   6.558  0.0484 -0.1641  0.0135
15293TIP3    H167370   2.162   1.241   6.482 -2.0167  0.1875 -1.0980
15293TIP3    H267371   2.082   1.121   6.530  0.5210 -0.6965  1.0168
15294TIP3   OH267372   0.286   5.241  13.231 -0.6020 -0.4829  0.0780
15294TIP3    H167373   0.382   5.239  13.230 -0.6053 -0.5165 -0.4454
15294TIP3    H267374   0.262   5.223  13.322 -0.1061 -0.2065  0.2609
15295TIP3   OH267375   4.005   6.187  14.456  0.1015  0.0003 -0.2062
15295TIP3    H167376   4.026   6.153  14.543 -1.8744  1.4401  0.8941
15295TIP3    H267377   4.019   6.282  14.464 -3.0450  0.5554 -0.4792
15296TIP3   OH267378   5.380   2.792   5.913  0.1713 -0.7221 -0.2364
15296TIP3    H167379   5.335   2.788   5.997 -0.5801 -0.1123 -0.6049
15296TIP3    H267380   5.365   2.706   5.873 -2.2615  0.0892 -1.1613
15297TIP3   OH267381   6.187   1.654  14.722 -0.1215 -0.2682 -0.2872
15297TIP3    H167382   6.179   1.726  14.783  1.4860  0.1257 -0.5173
15297TIP3    H267383   6.108   1.601  14.736 -1.2289  1.4319 -0.0083
15298TIP3   OH267384   6.184   6.678  14.556  0.2622  0.0602  0.5528
15298TIP3    H167385   6.152   6.749  14.611 -1.9552  0.7088 -1.4893
15298TIP3    H267386   6.116   6.611  14.561  0.8511 -0.5938 -0.0617
15299TIP3   OH267387   1.947   0.721  13.572 -0.0065 -0.1032 -0.0763
15299TIP3    H167388   1.868   0.699  13.622 -1.4183  0.5924 -1.9688
15299TIP3    H267389   1.915   0.770  13.497  2.1413 -0.7871 -1.4650
15300TIP3   OH267390   5.850   1.993   5.454 -0.1074 -0.0423 -0.2179
15300TIP3    H167391   5.879   2.069   5.504  0.2362  0.5438 -1.2939
15300TIP3    H267392   5.911   1.923   5.478  2.4933  1.2655 -2.6929
15301TIP3   OH267393   1.995   0.569   4.471 -0.1243 -0.5326  0.0945
15301TIP3    H167394   1.913   0.525   4.495  0.8469 -0.4230  3.9268
15301TIP3    H267395   2.061   0.499   4.474  0.1292 -0.3994 -1.8838
15302TIP3   OH267396   1.251   5.904  15.545 -0.2650 -0.3993 -0.4957
15302TIP3    H167397   1.328   5.936  15.499 -0.6071 -0.0045 -0.8043
15302TIP3    H267398   1.261   5.809  15.548  1.0574 -0.2359  0.9525
15303TIP3   OH267399   6.483   0.609  13.245  0.0682 -0.0646 -0.2403
15303TIP3    H167400   6.561   0.592  13.298 -0.8109  0.7982  1.3294
15303TIP3    H267401   6.438   0.525  13.240  0.7552 -0.4157 -0.6117
15304TIP3   OH267402   6.541   3.262  16.322  0.0997  0.0584 -0.2380
15304TIP3    H167403   6.631   3.259  16.352  0.0002  0.1112  0.0631
15304TIP3    H267404   6.488   3.248  16.401 -0.1471 -0.3395 -0.4671
15305TIP3   OH267405   6.221   3.546  14.128  0.2295 -0.5567 -0.2452
15305TIP3    H167406   6.184   3.486  14.194 -0.5769 -0.4745 -0.6127
15305TIP3    H267407   6.170   3.626  14.138  1.4820  0.1725  0.4173
15306TIP3   OH267408   4.392   4.630  11.498 -0.1052 -0.2549 -0.3437
15306TIP3    H167409   4.344   4.617  11.416 -0.6700  1.1680 -0.2520
15306TIP3    H267410   4.462   4.692  11.476  1.5166 -2.0443 -0.3901
15307TIP3   OH267411   1.353   4.897   4.168 -0.0512 -0.0821 -0.0628
15307TIP3    H167412   1.329   4.805   4.152  3.3900 -0.8781 -1.1320
15307TIP3    H267413   1.401   4.895   4.250  0.1742  0.7368 -0.1765
15308TIP3   OH267414   1.052   3.987   3.688 -0.4971  0.2416 -0.4610
15308TIP3    H167415   0.975   3.931   3.676 -0.9123  0.8200 -0.4809
15308TIP3    H267416   1.033   4.039   3.766 -0.0987  0.3441 -0.4268
15309TIP3   OH267417   4.144   4.757  17.008 -0.5258  0.4253  0.2115
15309TIP3    H167418   4.197   4.711  17.073  0.9250  3.4293  1.2663
15309TIP3    H267419   4.065   4.782  17.055 -1.0710 -0.4683 -0.2105
15310TIP3   OH267420   0.703   6.197  11.971  0.2369 -0.5567 -0.9329
15310TIP3    H167421   0.710   6.134  12.043  1.8635 -1.1021 -1.5361
15310TIP3    H267422   0.677   6.144  11.896 -2.8734  0.2326 -0.4699
15311TIP3   OH267423   6.581   6.466  15.123 -0.1911 -0.5243  0.4244
15311TIP3    H167424   6.544   6.491  15.037  1.9437 -0.0412 -0.3813
15311TIP3    H267425   6.509   6.480  15.184 -0.9990  1.6224 -0.9298
15312TIP3   OH267426   1.872   1.924   3.672 -0.1964  0.2139  0.0167
15312TIP3    H167427   1.853   1.849   3.729 -0.3472 -0.2745 -0.6671
15312TIP3    H267428   1.788   1.969   3.664  0.0597  0.8739  1.0241
15313TIP3   OH267429   1.255   4.362   1.344  0.0322  0.2880  0.0870
15313TIP3    H167430   1.338   4.321   1.319  0.5294  0.1432  1.8551
15313TIP3    H267431   1.200   4.290   1.375 -0.1568  0.5774  0.4398
15314TIP3   OH267432   5.919   6.482   1.632 -0.0459 -0.4434 -0.1590
15314TIP3    H167433   6.011   6.479   1.604 -0.5276 -1.4317 -1.6779
15314TIP3    H267434   5.889   6.568   1.605 -0.2465 -1.0454 -1.9159
15315TIP3   OH267435   0.678   2.621  14.203  0.3872  0.5383 -0.1307
15315TIP3    H167436   0.658   2.555  14.270  0.6442  0.9501  0.3601
15315TIP3    H267437   0.593   2.647  14.168  0.3447 -0.6821 -0.9307
15316TIP3   OH267438   1.655   0.876  13.488  0.5418  0.1035 -0.4806
15316TIP3    H167439   1.584   0.885  13.425  1.6289 -1.7803 -2.0290
15316TIP3    H267440   1.674   0.782  13.491  0.9574  0.2181  2.1910
15317TIP3   OH267441   2.483   5.950  13.995  0.2972  0.1551 -0.5248
15317TIP3    H167442   2.452   5.992  14.075 -1.9994 -1.5379 -0.4704
15317TIP3    H267443   2.562   5.902  14.023 -1.2494 -1.5484  1.0922
15318TIP3   OH267444   5.342   4.116   1.955 -0.2246 -0.2322 -0.1642
15318TIP3    H167445   5.380   4.034   1.988  0.5036 -0.1217 -0.7210
15318TIP3    H267446   5.297   4.091   1.874  1.3740  0.1814 -1.2123
15319TIP3   OH267447   4.166   2.037  15.179  0.6894  0.1689 -0.2599
15319TIP3    H167448   4.181   2.043  15.085  0.3281  1.8736 -0.2186
15319TIP3    H267449   4.248   2.064  15.219  0.7288 -0.2083 -0.0829
15320TIP3   OH267450   1.818   1.789  10.678 -0.3514  1.0243 -0.3358
15320TIP3    H167451   1.840   1.875  10.643  1.8458  0.1722 -1.2197
15320TIP3    H267452   1.791   1.738  10.601 -2.8581  1.2470  0.3585
15321TIP3   OH267453   2.262   3.609  16.106  0.1106  0.5493 -0.6934
15321TIP3    H167454   2.349   3.570  16.113  0.0173  0.3881 -0.4381
15321TIP3    H267455   2.247   3.617  16.011  0.1020 -0.0962 -0.7514
15322TIP3   OH267456   5.993   0.249   6.379  0.2950 -0.0039 -0.3833
15322TIP3    H167457   6.000   0.273   6.471  0.6559 -1.5986  0.0214
15322TIP3    H267458   5.898   0.245   6.363  0.2234 -0.4547  0.1248
15323TIP3   OH267459   4.929   6.374   5.125  0.1696  0.0385 -0.0082
15323TIP3    H167460   4.931   6.465   5.153  0.0693  0.2205 -0.5913
15323TIP3    H267461   4.994   6.368   5.055 -1.1798  0.1075 -1.3013
15324TIP3   OH267462   0.139   1.467  16.099  0.4795  0.1600  0.1440
15324TIP3    H167463   0.085   1.393  16.127 -0.4998  1.2818  1.1979
15324TIP3    H267464   0.090   1.545  16.123  1.7652  1.1908 -0.4661
15325TIP3   OH267465   0.777   5.277   3.653 -0.7706 -0.4089  0.4305
15325TIP3    H167466   0.867   5.305   3.633 -1.2301  1.0159  0.2909
15325TIP3    H267467   0.778   5.182   3.641 -0.2205 -0.0011 -3.3572
15326TIP3   OH267468   3.224   2.830   5.222  0.0658  0.3181  0.4801
15326TIP3    H167469   3.213   2.748   5.270  0.6038 -0.9904 -1.6023
15326TIP3    H267470   3.145   2.880   5.242  0.1299 -0.3201  2.4702
15327TIP3   OH267471   4.907   2.180  17.172 -0.4091  0.2554 -0.1502
15327TIP3    H167472   4.934   2.189  17.081 -0.5325 -0.7225 -0.2939
15327TIP3    H267473   4.826   2.230  17.179 -0.3336  0.4307 -0.5410
15328TIP3   OH267474   4.760   0.420   0.772  0.9402 -0.3954  0.0459
15328TIP3    H167475   4.768   0.513   0.753  0.5114 -0.3509  0.0623
15328TIP3    H267476   4.738   0.380   0.688  1.1946 -0.4924  0.0244
15329TIP3   OH267477   4.002   3.152  16.670  0.0723 -0.1311  0.3706
15329TIP3    H167478   3.920   3.183  16.632 -0.2190 -0.6253  0.6048
15329TIP3    H267479   4.068   3.213  16.636 -0.3162 -0.0235 -0.2056
15330TIP3   OH267480   3.296   1.870   5.330  0.0130 -0.1341  0.2073
15330TIP3    H167481   3.318   1.945   5.385  0.5374  0.4948 -0.8477
15330TIP3    H267482   3.201   1.860   5.340  0.2010 -0.4298  1.7233
15331TIP3   OH267483   6.310   2.400  15.715 -0.3680 -0.5634 -0.0850
15331TIP3    H167484   6.302   2.307  15.697 -0.8977 -0.6196  0.4223
15331TIP3    H267485   6.238   2.420  15.775 -0.4931  0.2507 -0.4891
15332TIP3   OH267486   4.281   2.004   3.469 -0.1762 -0.2575  0.6006
15332TIP3    H167487   4.298   2.066   3.398 -0.6099 -1.1126 -0.2751
15332TIP3    H267488   4.218   1.942   3.431 -0.0180 -1.0171  1.5678
15333TIP3   OH267489   1.209   4.903  16.628  0.0690 -0.3173 -0.1602
15333TIP3    H167490   1.263   4.922  16.552  0.7453 -0.2125  0.3507
15333TIP3    H267491   1.268   4.907  16.702 -0.3949 -1.3475  0.2778
15334TIP3   OH267492   2.135   4.607   4.909  0.3304 -0.4011  0.2161
15334TIP3    H167493   2.115   4.611   5.003  1.1409 -2.3155  0.4823
15334TIP3    H267494   2.162   4.517   4.894 -2.2209 -0.8141 -2.3543
15335TIP3   OH267495   4.218   5.556   0.920  0.4712 -0.4400 -0.1210
15335TIP3    H167496   4.131   5.578   0.888  1.2036  0.7162 -1.3567
15335TIP3    H267497   4.245   5.632   0.972  0.8652 -0.6717  0.0171
15336TIP3   OH267498   2.711   4.534  13.362  0.3484  0.5648 -0.7394
15336TIP3    H167499   2.618   4.527  13.385  0.0635 -1.7544 -2.3620
15336TIP3    H267500   2.748   4.449  13.385  2.9840  2.7197  3.4147
15337TIP3   OH267501   2.380   5.809   5.144  0.2424 -0.2874 -0.2772
15337TIP3    H167502   2.373   5.815   5.048 -0.6002 -1.4922 -0.2903
15337TIP3    H267503   2.308   5.752   5.170  1.6596 -1.5816  0.8953
15338TIP3   OH267504   1.455   3.917  15.844 -0.4017 -0.1758 -0.3395
15338TIP3    H167505   1.548   3.940  15.842 -0.6249  1.1449  2.7226
15338TIP3    H267506   1.442   3.877  15.930 -2.4524 -1.4247 -1.1851
15339TIP3   OH267507   2.792   6.311  13.743 -0.0723  0.0847 -0.2129
15339TIP3    H167508   2.732   6.241  13.718 -0.1645  0.5748 -1.4098
15339TIP3    H267509   2.778   6.323  13.837 -0.7358 -0.8516 -0.1914
15340TIP3   OH267510   4.301   1.601   2.677  0.1468  0.1211 -0.1632
15340TIP3    H167511   4.261   1.529   2.628  0.9935 -0.2864 -0.2627
15340TIP3    H267512   4.250   1.607   2.758 -2.2831  1.8048 -1.7193
15341TIP3   OH267513   2.014   6.551  14.146 -1.0057  0.4158  0.0517
15341TIP3    H167514   1.985   6.630  14.191 -0.0597  0.4715  0.5909
15341TIP3    H267515   2.107   6.567  14.128 -1.1017 -0.0822 -0.8914
15342TIP3   OH267516   2.895   0.199   0.232  0.5844  0.4454  0.4736
15342TIP3    H167517   2.938   0.173   0.151  0.7102 -0.0075  0.6796
15342TIP3    H267518   2.869   0.116   0.272  0.6253  0.6636  0.9523
15343TIP3   OH267519   6.346   4.362   4.571  0.4850 -0.0883 -0.4380
15343TIP3    H167520   6.325   4.438   4.517  1.8077  0.2212 -0.5438
15343TIP3    H267521   6.347   4.396   4.661  1.9329  0.2410 -0.5569
15344TIP3   OH267522   3.387   4.773   4.323  0.7030  0.0498 -0.6977
15344TIP3    H167523   3.451   4.830   4.280 -0.9477  1.8669 -0.8466
15344TIP3    H267524   3.430   4.688   4.328  2.2749  0.6708 -2.7650
15345TIP3   OH267525   3.668   3.101   5.587  0.2578  0.6380  0.1030
15345TIP3    H167526   3.703   3.178   5.632  0.6953  0.7398 -0.4174
15345TIP3    H267527   3.743   3.044   5.574  0.1055  0.5428 -0.3727
15346TIP3   OH267528   4.203   5.442  16.971  0.0921  0.0866  0.8911
15346TIP3    H167529   4.247   5.404  17.048 -0.6702  1.0464  1.8202
15346TIP3    H267530   4.138   5.376  16.946  0.0227 -0.0269  1.3643
15347TIP3   OH267531   4.263   3.590   4.454  0.0027  0.2264 -0.5901
15347TIP3    H167532   4.305   3.508   4.481 -0.2587 -0.0967 -1.1666
15347TIP3    H267533   4.199   3.608   4.523 -1.0126 -0.8601 -1.2393
15348TIP3   OH267534   2.600   4.020   0.206 -0.6456 -0.8876  0.1439
15348TIP3    H167535   2.556   4.027   0.121  0.3255 -1.1925 -0.3932
15348TIP3    H267536   2.576   3.933   0.238 -1.1384 -0.7126  0.2638
15349TIP3   OH267537   1.925   1.165  16.083 -0.6359 -0.0312  0.0331
15349TIP3    H167538   1.924   1.188  16.176 -1.0158 -1.0951  0.2974
15349TIP3    H267539   1.840   1.125  16.067 -0.6993  0.4366 -0.8563
15350TIP3   OH267540   2.159   6.684  14.986 -0.0962  0.7308  0.1195
15350TIP3    H167541   2.236   6.628  14.989  0.1823  0.9344 -2.2569
15350TIP3    H267542   2.176   6.746  14.915 -1.7849  1.7489  0.5607
15351TIP3   OH267543   2.226   5.198  11.401  0.1570  0.8286  0.0005
15351TIP3    H167544   2.294   5.262  11.425 -0.4566  1.2156  0.7543
15351TIP3    H267545   2.148   5.229  11.447 -0.7550  0.8929 -1.5799
15352TIP3   OH267546   2.686   2.109   2.983  0.0548  0.3766 -0.5089
15352TIP3    H167547   2.735   2.046   3.035  1.5068  1.5056 -0.4726
15352TIP3    H267548   2.658   2.176   3.046  0.2509  0.8077 -0.8772
15353TIP3   OH267549   5.272   0.426  15.863  0.1000 -0.1750 -0.5385
15353TIP3    H167550   5.191   0.457  15.903  1.3558  2.0557  0.3805
15353TIP3    H267551   5.297   0.350  15.915 -0.6401  0.0400  0.1329
15354TIP3   OH267552   3.513   2.231  13.794  0.4401 -0.1896 -0.6071
15354TIP3    H167553   3.560   2.178  13.729  0.3754 -0.9149 -0.0687
15354TIP3    H267554   3.449   2.280  13.742 -1.2481 -2.5575 -0.8453
15355TIP3   OH267555   2.310   6.649   0.179 -0.8942 -0.0477  0.0212
15355TIP3    H167556   2.292   6.661   0.086 -0.1864  1.0212  0.0072
15355TIP3    H267557   2.274   6.727   0.222  0.0422  0.1664  0.4575
15356TIP3   OH267558   2.532   6.683  15.855 -0.5077 -0.2357 -0.4656
15356TIP3    H167559   2.545   6.637  15.772 -2.5475  2.2904 -2.2594
15356TIP3    H267560   2.437   6.686  15.866 -0.2852  0.2759  1.4851
15357TIP3   OH267561   1.025   6.665  15.041  0.3209  0.1634  0.1142
15357TIP3    H167562   1.061   6.663  14.953 -1.3146 -0.5450 -0.5648
15357TIP3    H267563   1.100   6.649  15.099  1.2225 -0.3464 -1.1941
15358TIP3   OH267564   5.671   1.895   2.680  0.1539 -0.3134  0.6446
15358TIP3    H167565   5.720   1.842   2.742  0.0520 -0.1354  0.8756
15358TIP3    H267566   5.706   1.869   2.594 -0.4554 -1.3440  0.6981
15359TIP3   OH267567   1.115   4.362   3.463 -0.0305 -0.0751  0.0186
15359TIP3    H167568   1.080   4.406   3.540 -3.7435  1.7144 -2.5321
15359TIP3    H267569   1.064   4.281   3.457  1.1204 -0.8099  0.1566
15360TIP3   OH267570   2.470   6.435   2.666 -0.2979 -0.7953  0.2190
15360TIP3    H167571   2.472   6.530   2.653  0.0687 -0.8624 -0.2083
15360TIP3    H267572   2.557   6.405   2.641  0.4727 -0.9148  2.9425
15361TIP3   OH267573   3.920   4.745   3.995  0.1949 -0.2108 -0.4397
15361TIP3    H167574   3.836   4.738   3.951  0.0878  2.9436 -0.8606
15361TIP3    H267575   3.950   4.834   3.976  2.9888 -0.8163  0.8221
15362TIP3   OH267576   3.125   5.954  14.848  0.1609  0.4863  0.8587
15362TIP3    H167577   3.065   5.895  14.803 -0.4698  0.5436  1.6261
15362TIP3    H267578   3.211   5.914  14.837 -0.0356  0.3330 -0.1241
15363TIP3   OH267579   2.122   6.564   2.812  0.2957  0.4657  0.1855
15363TIP3    H167580   2.038   6.524   2.832  0.8217  0.6182  2.8903
15363TIP3    H267581   2.187   6.497   2.835  0.9665  0.4406 -1.6410
15364TIP3   OH267582   0.204   4.885   1.752 -0.1970  0.1471  0.2679
15364TIP3    H167583   0.255   4.812   1.787  1.8995  1.0777 -0.7830
15364TIP3    H267584   0.206   4.873   1.658 -1.2534  0.6392  0.1841
15365TIP3   OH267585   1.152   5.853  16.649  0.6323  0.4219 -0.1358
15365TIP3    H167586   1.166   5.819  16.561 -0.7947  0.4316 -0.3819
15365TIP3    H267587   1.191   5.941  16.647  0.7645  0.3507 -0.7076
15366TIP3   OH267588   2.254   1.397  14.619  0.1314 -0.0685  0.3763
15366TIP3    H167589   2.291   1.483  14.643 -0.4574 -0.1913  1.7915
15366TIP3    H267590   2.182   1.418  14.560  0.1448  0.4074  0.5201
15367TIP3   OH267591   6.437   0.966  14.607 -0.0661  0.0550 -0.6526
15367TIP3    H167592   6.382   1.044  14.596  1.4838  1.2747 -0.0600
15367TIP3    H267593   6.523   1.001  14.630  0.4512 -1.8869  0.4603
15368TIP3   OH267594   2.614   1.104  16.004  0.2652  0.3171 -0.2127
15368TIP3    H167595   2.654   1.154  15.934  0.2711 -0.0883 -0.4979
15368TIP3    H267596   2.673   1.116  16.079 -0.9497  2.6514  0.4088
15369TIP3   OH267597   2.822   4.745   5.855 -0.3764  0.5166  0.6896
15369TIP3    H167598   2.746   4.770   5.802 -0.0572  1.9920  0.9263
15369TIP3    H267599   2.807   4.785   5.940  0.5891  0.6819  0.7919
15370TIP3   OH267600   4.550   1.655   2.779  0.1556 -0.2932  0.2126
15370TIP3    H167601   4.601   1.574   2.779 -0.0119 -0.4009 -0.3086
15370TIP3    H267602   4.463   1.628   2.746  0.2212  0.1691 -0.3449
15371TIP3   OH267603   4.901   6.638  13.257 -0.4689 -0.3976  0.2780
15371TIP3    H167604   4.929   6.722  13.294 -2.1438  0.7340 -0.9452
15371TIP3    H267605   4.948   6.631  13.174  0.1145 -0.9616  0.6489
15372TIP3   OH267606   0.834   6.116  13.171 -0.2570 -0.0141  0.5372
15372TIP3    H167607   0.856   6.050  13.237 -2.3623  1.6934  3.0539
15372TIP3    H267608   0.806   6.065  13.095  1.6048 -2.0179  1.1288
15373TIP3   OH267609   2.338   0.386  14.123  0.5219 -0.4732 -0.0120
15373TIP3    H167610   2.312   0.317  14.063 -1.2009  1.1247 -1.1787
15373TIP3    H267611   2.409   0.431  14.078 -0.6140  0.5793 -0.7936
15374TIP3   OH267612   6.409   0.357   6.234  0.1749  0.4202  0.1449
15374TIP3    H167613   6.345   0.412   6.281 -1.6613 -0.3189 -1.4007
15374TIP3    H267614   6.462   0.419   6.185  1.0732  1.0933  1.9417
15375TIP3   OH267615   1.850   1.468   1.317  0.1331 -0.1464 -0.1838
15375TIP3    H167616   1.835   1.562   1.303  1.1969  0.0740  0.0963
15375TIP3    H267617   1.886   1.463   1.405  2.8756 -0.4983 -1.2743
15376TIP3   OH267618   2.562   2.711   0.851  0.3937 -0.1590 -0.2849
15376TIP3    H167619   2.584   2.640   0.790  0.9747 -0.6976  0.5539
15376TIP3    H267620   2.645   2.759   0.863  0.1921  0.1710 -0.1974
15377TIP3   OH267621   5.991   2.053  12.198 -0.3666  0.4535  0.2820
15377TIP3    H167622   6.068   2.065  12.143 -0.2071 -0.7307  0.2250
15377TIP3    H267623   6.013   2.097  12.280  0.5636 -0.2606  0.4281
15378TIP3   OH267624   5.837   0.512  15.274 -0.4203 -0.2580  0.0269
15378TIP3    H167625   5.872   0.450  15.210  1.0919  0.4417  0.1574
15378TIP3    H267626   5.832   0.595  15.227 -2.2857 -0.4286 -0.0967
15379TIP3   OH267627   6.569   0.535  13.847  0.2763 -0.2038 -0.5042
15379TIP3    H167628   6.524   0.487  13.916  0.2729 -0.0274 -0.3837
15379TIP3    H267629   6.500   0.581  13.800  0.0164 -2.1314 -2.0634
15380TIP3   OH267630   3.525   0.217  12.953  0.4009 -0.2525  0.3470
15380TIP3    H167631   3.615   0.203  12.922  0.3355  0.4791 -0.1857
15380TIP3    H267632   3.526   0.187  13.044  1.2134 -0.1592  0.3718
15381TIP3   OH267633   6.513   4.520   3.556  1.0890 -0.2849  0.1769
15381TIP3    H167634   6.580   4.472   3.507 -0.9836 -1.2153 -1.8214
15381TIP3    H267635   6.430   4.491   3.518 -0.3969  1.8657  1.6739
15382TIP3   OH267636   2.785   6.220   5.543  0.0588  0.4770  0.4141
15382TIP3    H167637   2.854   6.154   5.557  0.1594  0.4620 -0.1370
15382TIP3    H267638   2.828   6.303   5.563 -0.2916  0.3127  1.8799
15383TIP3   OH267639   1.583   2.937   2.674  0.0824  0.4532  0.0406
15383TIP3    H167640   1.573   2.972   2.763  0.1392  1.7830 -0.4596
15383TIP3    H267641   1.498   2.951   2.633 -0.5754 -2.0130  0.5050
15384TIP3   OH267642   1.732   4.843   4.373 -0.1082  0.0639  0.0681
15384TIP3    H167643   1.801   4.837   4.307 -2.1231  0.1049 -2.1145
15384TIP3    H267644   1.773   4.813   4.454  1.7495 -2.3308 -1.6944
15385TIP3   OH267645   2.910   2.032  15.272 -0.3155  0.2146 -0.1383
15385TIP3    H167646   2.826   1.987  15.280 -0.3592  0.5425  1.5776
15385TIP3    H267647   2.963   1.997  15.344  0.9453  0.1522 -1.0940
15386TIP3   OH267648   1.848   1.822   1.830  0.1099 -0.7831  0.4471
15386TIP3    H167649   1.877   1.773   1.753  1.7457 -1.2316  1.3290
15386TIP3    H267650   1.813   1.756   1.890 -2.6267 -0.2827 -0.4887
15387TIP3   OH267651   2.946   4.916   5.579  0.1068  0.2714  0.1838
15387TIP3    H167652   2.929   4.985   5.644  2.3044 -0.8990  2.1115
15387TIP3    H267653   2.905   4.838   5.616 -1.9704  0.4113 -1.7607
15388TIP3   OH267654   5.860   4.547  11.886  0.4831  0.0056  0.5050
15388TIP3    H167655   5.888   4.581  11.800  0.6726  1.1864  1.0194
15388TIP3    H267656   5.811   4.468  11.865 -0.4146  0.8719 -0.7801
15389TIP3   OH267657   3.090   2.338  17.086  0.0525  0.5405  0.3908
15389TIP3    H167658   3.001   2.303  17.092  0.4111 -0.3444  0.6553
15389TIP3    H267659   3.080   2.433  17.093 -0.8561  0.4315  0.5442
15390TIP3   OH267660   0.153   0.783   2.419  0.6354  0.5446 -0.3771
15390TIP3    H167661   0.188   0.803   2.506  1.8473 -0.9806 -0.4811
15390TIP3    H267662   0.193   0.848   2.361  2.3682 -0.3902 -0.2841
15391TIP3   OH267663   1.732   5.048   1.603 -0.3279 -0.9818 -0.5967
15391TIP3    H167664   1.688   5.004   1.676  0.0016 -0.6911 -0.2210
15391TIP3    H267665   1.675   5.120   1.581 -0.1820 -0.7701 -0.2913
15392TIP3   OH267666   1.866   6.248   5.476  0.5586 -0.6214 -0.6870
15392TIP3    H167667   1.939   6.200   5.514 -0.1407 -1.2468 -0.1212
15392TIP3    H267668   1.788   6.202   5.506 -0.1288  0.8647 -0.1082
15393TIP3   OH267669   0.511   1.123   1.826  0.2554 -0.3946  0.0270
15393TIP3    H167670   0.553   1.179   1.761 -0.6398  0.9793  0.6097
15393TIP3    H267671   0.427   1.099   1.786  0.5900 -1.2225 -0.1750
15394TIP3   OH267672   5.048   6.791   3.263 -0.5937  0.3016 -0.2267
15394TIP3    H167673   5.008   6.733   3.327  0.3248 -0.9473 -0.7784
15394TIP3    H267674   4.983   6.861   3.250 -1.5927 -0.4599  0.6193
15395TIP3   OH267675   2.076   4.106  13.868  0.0976 -0.3045  0.0216
15395TIP3    H167676   2.150   4.055  13.835  0.2518 -0.3500  0.4370
15395TIP3    H267677   2.024   4.126  13.790  0.4062 -0.5010 -0.2347
15396TIP3   OH267678   6.496   6.584  14.214  0.1016 -0.0586  0.5470
15396TIP3    H167679   6.489   6.495  14.248 -0.3947 -0.2569 -0.0534
15396TIP3    H267680   6.499   6.573  14.119 -0.9163  0.6140  0.4229
15397TIP3   OH267681   5.565   2.214   0.286 -0.0685 -0.2531 -0.0624
15397TIP3    H167682   5.569   2.129   0.242 -2.6031 -0.8565  0.8043
15397TIP3    H267683   5.518   2.270   0.224 -0.8223 -0.2442  0.5096
15398TIP3   OH267684   3.929   3.315  14.336  0.1229 -0.1962  0.2503
15398TIP3    H167685   3.989   3.252  14.296  1.3343  0.2336  1.3219
15398TIP3    H267686   3.851   3.265  14.357  1.2111 -1.4492  1.4313
15399TIP3   OH267687   1.573   4.441   5.270  0.1017  0.0682  0.0594
15399TIP3    H167688   1.530   4.386   5.205 -0.9125  1.2504 -0.2697
15399TIP3    H267689   1.599   4.380   5.339  0.6473 -1.1024 -1.1565
15400TIP3   OH267690   1.489   4.666  16.613  0.1514 -0.2420 -0.1288
15400TIP3    H167691   1.428   4.597  16.640  0.6880 -1.4524 -1.9077
15400TIP3    H267692   1.468   4.740  16.669 -0.7192 -1.7198  1.5537
15401TIP3   OH267693   2.187   4.773   1.484  1.3947  0.1110  0.0349
15401TIP3    H167694   2.198   4.730   1.569  0.5687  0.4151  0.2993
15401TIP3    H267695   2.169   4.701   1.424 -0.7280  0.1190  0.6095
15402TIP3   OH267696   4.239   2.891  12.686  0.2456  0.4875  0.2143
15402TIP3    H167697   4.209   2.816  12.635  1.8830 -0.8859  1.2402
15402TIP3    H267698   4.229   2.864  12.777  1.2370  1.3416  0.5878
15403TIP3   OH267699   3.641   6.393  11.081  0.1575  0.4590 -0.3850
15403TIP3    H167700   3.671   6.327  11.020  0.5839 -1.5157  1.8766
15403TIP3    H267701   3.546   6.396  11.070  0.0795 -0.9225 -0.1519
15404TIP3   OH267702   6.364   5.774   3.313 -0.2885  0.1840  0.0162
15404TIP3    H167703   6.345   5.731   3.397  0.6664  1.5143  0.9219
15404TIP3    H267704   6.451   5.741   3.289 -0.1884  0.4849 -0.0270
15405TIP3   OH267705   3.187   5.945  13.967  0.5785  0.0754  0.4378
15405TIP3    H167706   3.247   5.927  13.894 -0.0211 -0.7316  0.1436
15405TIP3    H267707   3.100   5.943  13.928  0.3331  1.1257  0.8974
15406TIP3   OH267708   4.856   0.268  11.599 -0.2288 -0.4448  0.0354
15406TIP3    H167709   4.778   0.322  11.605 -0.1575 -0.4427  1.0003
15406TIP3    H267710   4.825   0.179  11.618 -0.4149 -0.8069 -1.9255
15407TIP3   OH267711   5.210   3.156  12.071 -0.2005  0.0094 -0.7573
15407TIP3    H167712   5.302   3.164  12.098 -0.0873 -1.1831 -0.7542
15407TIP3    H267713   5.214   3.149  11.976 -0.5153  2.9199 -1.0487
15408TIP3   OH267714   2.296   4.947   4.207 -0.1152  0.2681  0.7842
15408TIP3    H167715   2.295   4.884   4.279 -0.3127 -2.2936 -1.3767
15408TIP3    H267716   2.389   4.959   4.188 -0.1095 -2.7805 -1.5692
15409TIP3   OH267717   6.186   3.066  12.488  0.0494  0.1006  0.2883
15409TIP3    H167718   6.112   3.108  12.443  0.9882  0.1577 -1.2617
15409TIP3    H267719   6.203   3.123  12.563 -0.7383  0.7324 -0.0002
15410TIP3   OH267720   0.562   4.684  15.719  0.2694  0.2075 -0.4315
15410TIP3    H167721   0.630   4.645  15.774  0.4578  0.1103 -0.7319
15410TIP3    H267722   0.487   4.625  15.729  0.1896  0.3816 -0.0032
15411TIP3   OH267723   0.561   0.954   3.761  0.4109  0.3203  0.1976
15411TIP3    H167724   0.521   0.939   3.676 -0.4394 -2.1059  1.0038
15411TIP3    H267725   0.638   0.896   3.763  0.2883  0.1846  1.1752
15412TIP3   OH267726   3.830   2.848   1.945 -0.0096  0.2617  0.2383
15412TIP3    H167727   3.784   2.790   2.006  0.6480 -0.8156 -0.2602
15412TIP3    H267728   3.922   2.822   1.954  0.0355 -0.2993 -1.6118
15413TIP3   OH267729   6.193   2.084  16.589  0.7447 -0.0483  0.6317
15413TIP3    H167730   6.261   2.035  16.543  0.4926 -1.4585  1.7083
15413TIP3    H267731   6.114   2.030  16.579 -0.0029  1.1014  0.1945
15414TIP3   OH267732   1.016   4.746   4.195  0.1013 -0.1705  0.5587
15414TIP3    H167733   1.054   4.819   4.243  1.3051  0.0466 -0.7208
15414TIP3    H267734   1.090   4.688   4.175 -0.4054 -0.3321 -0.9086
15415TIP3   OH267735   4.724   6.779   3.567  0.1223 -0.5068  0.7460
15415TIP3    H167736   4.734   6.835   3.491 -0.2980  1.3749  2.0329
15415TIP3    H267737   4.798   6.718   3.563 -0.4350 -1.0631 -1.6448
15416TIP3   OH267738   3.189   4.627   1.996  0.2231  0.1993  0.5239
15416TIP3    H167739   3.123   4.591   2.055 -0.6549 -0.1305 -0.6425
15416TIP3    H267740   3.180   4.576   1.916 -0.6165  2.5352 -0.9471
15417TIP3   OH267741   3.509   1.494   0.198 -0.2349 -0.8583 -0.0110
15417TIP3    H167742   3.452   1.492   0.275 -0.0812 -1.6883  0.0882
15417TIP3    H267743   3.596   1.475   0.233  0.0884  0.2740 -0.1776
15418TIP3   OH267744   2.992   6.339  11.201 -0.2461 -0.0469  0.1112
15418TIP3    H167745   2.974   6.410  11.262  1.1631 -0.1553  0.6564
15418TIP3    H267746   3.049   6.378  11.134 -0.2691 -0.4066 -0.1228
15419TIP3   OH267747   3.920   4.844   4.436  0.1599  0.0875 -0.3795
15419TIP3    H167748   3.998   4.820   4.486  0.5860 -0.4083 -1.2841
15419TIP3    H267749   3.952   4.903   4.368 -0.3016  0.1481 -0.5476
15420TIP3   OH267750   3.856   3.216  11.079 -0.0703  0.1832  0.3414
15420TIP3    H167751   3.774   3.191  11.123  0.3538 -0.1682  0.9401
15420TIP3    H267752   3.896   3.279  11.139  0.5437 -0.3482  0.4992
15421TIP3   OH267753   4.007   0.671  15.656 -0.8864 -0.2746  0.2051
15421TIP3    H167754   4.071   0.718  15.710  0.3924 -2.4315  0.6225
15421TIP3    H267755   3.933   0.654  15.715 -1.2315  0.9275  0.1316
15422TIP3   OH267756   2.086   3.387  12.503  0.5185  0.2395 -0.1294
15422TIP3    H167757   2.031   3.401  12.426  0.2512  1.0244  0.2010
15422TIP3    H267758   2.057   3.304  12.539  0.0014  0.3284 -0.3421
15423TIP3   OH267759   6.663   5.746   3.300  0.3309  0.5016  0.1765
15423TIP3    H167760   6.750   5.778   3.323  0.9398 -0.1609 -1.1507
15423TIP3    H267761   6.630   5.809   3.237  0.4985 -0.0952 -0.5164
15424TIP3   OH267762   1.542   2.954  12.922 -0.3056 -0.0522 -0.5012
15424TIP3    H167763   1.540   3.047  12.902 -2.5369  0.3711  1.4068
15424TIP3    H267764   1.580   2.949  13.010  0.2237 -0.9752 -0.7742
15425TIP3   OH267765   0.440   6.416  14.959 -0.4796 -0.1119 -0.0216
15425TIP3    H167766   0.439   6.373  14.873 -0.9953 -1.0727  0.4651
15425TIP3    H267767   0.493   6.494  14.945 -1.2842  0.1918 -1.4338
15426TIP3   OH267768   0.231   0.950   0.988  0.0194  0.1557  0.0586
15426TIP3    H167769   0.226   0.865   0.944 -0.5444  0.5499 -0.6643
15426TIP3    H267770   0.140   0.971   1.010  0.3111 -0.0569  1.4647
15427TIP3   OH267771   0.351   4.845   2.407 -0.1922 -0.6487 -0.1285
15427TIP3    H167772   0.447   4.839   2.412  0.1663  1.0458 -3.5917
15427TIP3    H267773   0.321   4.814   2.492  3.5296  0.8016  1.8474
15428TIP3   OH267774   5.184   0.874   2.438  0.1177  0.0434  0.4350
15428TIP3    H167775   5.202   0.923   2.518 -3.0851  0.6133  0.8676
15428TIP3    H267776   5.158   0.787   2.469 -0.6205  0.1027 -0.0131
15429TIP3   OH267777   2.408   4.782  11.986 -0.2852 -0.1307  0.6279
15429TIP3    H167778   2.406   4.719  11.913  1.1089 -0.1420  0.5849
15429TIP3    H267779   2.336   4.843  11.967 -1.0039 -1.1144  0.1405
15430TIP3   OH267780   6.492   3.205   5.189 -0.2436  0.6214  0.2552
15430TIP3    H167781   6.522   3.230   5.276 -0.6422 -2.1202  1.2157
15430TIP3    H267782   6.406   3.246   5.181  0.0599  1.4103  0.8645
15431TIP3   OH267783   4.851   0.381  13.854  0.3289 -0.2471  0.1732
15431TIP3    H167784   4.893   0.358  13.771  0.0453  0.0738 -0.0625
15431TIP3    H267785   4.892   0.464  13.880  1.6254 -1.2021  1.2116
15432TIP3   OH267786   1.771   0.767   4.673 -0.3496  0.2312  0.2962
15432TIP3    H167787   1.782   0.844   4.729 -1.6923 -0.0213  0.9127
15432TIP3    H267788   1.806   0.795   4.588 -0.0082  1.2236  0.7457
15433TIP3   OH267789   1.766   0.466   4.603  0.3884 -0.2142 -0.4297
15433TIP3    H167790   1.685   0.517   4.612 -1.9666 -4.2879  3.4155
15433TIP3    H267791   1.812   0.480   4.686  2.3932 -0.0288 -1.5407
15434TIP3   OH267792   6.789   4.370  11.621 -0.5717 -0.4284  0.0774
15434TIP3    H167793   6.717   4.386  11.560 -2.1545  0.0422  1.9952
15434TIP3    H267794   6.761   4.412  11.702  2.5527  1.1057  0.4630
15435TIP3   OH267795   2.852   3.175   2.792 -0.5269 -0.5593  0.1330
15435TIP3    H167796   2.916   3.108   2.815  0.8901  0.1658 -1.5406
15435TIP3    H267797   2.837   3.164   2.698  0.8644  2.3572 -0.5090
15436TIP3   OH267798   0.599   1.628   5.740 -0.1077 -0.3467  0.8022
15436TIP3    H167799   0.588   1.564   5.809 -0.9292 -0.4079  0.6220
15436TIP3    H267800   0.510   1.656   5.718  0.2604  1.3187  1.3098
15437TIP3   OH267801   2.311   4.611  15.723 -0.3686 -0.4461  0.1442
15437TIP3    H167802   2.320   4.704  15.704 -0.0209 -0.2839  1.0404
15437TIP3    H267803   2.223   4.588  15.694 -0.2011  0.0021 -0.7155
15438TIP3   OH267804   6.136   3.532   4.080 -0.6970 -0.4121 -0.2848
15438TIP3    H167805   6.173   3.580   4.154 -1.9923 -0.7995  0.6373
15438TIP3    H267806   6.100   3.599   4.023 -2.5743 -0.2735  1.0399
15439TIP3   OH267807   2.119   0.015   2.017 -0.2238  0.5373  0.1536
15439TIP3    H167808   2.055   0.085   2.032 -0.9719 -0.3487  1.2504
15439TIP3    H267809   2.156  -0.002   2.103 -0.0509 -0.4172 -0.1048
15440TIP3   OH267810   4.537   2.636  16.829 -0.2777 -0.5068 -0.0791
15440TIP3    H167811   4.488   2.579  16.889 -0.0957  0.4486  0.9941
15440TIP3    H267812   4.617   2.658  16.876 -0.1093  0.2133 -0.6856
15441TIP3   OH267813   5.532   5.709   3.102 -0.0035  0.0772 -0.4267
15441TIP3    H167814   5.513   5.669   3.017  2.1401 -2.6248  0.3039
15441TIP3    H267815   5.627   5.715   3.106 -0.1554  2.2746  0.8941
15442TIP3   OH267816   5.528   4.858  11.419 -0.4885  0.4668 -0.2400
15442TIP3    H167817   5.519   4.823  11.508 -0.4260 -0.1180 -0.4587
15442TIP3    H267818   5.615   4.897  11.417 -0.6395  0.8206  0.0716
15443TIP3   OH267819   5.827   2.996  12.371  0.7625  0.5802  0.0524
15443TIP3    H167820   5.905   3.024  12.324  0.0984 -0.0945 -1.4971
15443TIP3    H267821   5.802   2.914  12.329 -0.0131  0.1114  1.4116
15444TIP3   OH267822   6.343   2.137   6.900  0.0137  0.0190  0.1940
15444TIP3    H167823   6.307   2.058   6.858 -1.1905  0.3318  0.6151
15444TIP3    H267824   6.301   2.210   6.854 -0.2592  0.3835  1.0086
15445TIP3   OH267825   6.344   6.079  14.033  1.1462  0.2881 -0.0482
15445TIP3    H167826   6.439   6.090  14.029  1.3018 -1.4185 -3.7160
15445TIP3    H267827   6.328   5.994  13.993 -2.0510  1.3380 -1.2076
15446TIP3   OH267828   2.433   1.715   4.514  0.4350  0.7594  0.5718
15446TIP3    H167829   2.473   1.754   4.592  2.0045  1.0498 -0.3461
15446TIP3    H267830   2.495   1.735   4.443 -2.0204  2.4221 -1.1813
15447TIP3   OH267831   6.480   4.328   5.412  0.0215  0.1135  0.5017
15447TIP3    H167832   6.427   4.406   5.428 -1.4030 -1.0139  1.4104
15447TIP3    H267833   6.570   4.360   5.406 -0.6704  1.9594 -0.3184
15448TIP3   OH267834   0.332   4.679   1.878 -0.7952 -0.1770 -0.3272
15448TIP3    H167835   0.397   4.632   1.826  0.6713 -0.9110  2.0810
15448TIP3    H267836   0.283   4.611   1.924 -0.4070  0.5097  1.1516
15449TIP3   OH267837   4.550   0.345  16.098 -0.1743  0.4931  0.0652
15449TIP3    H167838   4.499   0.279  16.051  1.5904  0.5733 -2.0593
15449TIP3    H267839   4.515   0.429  16.067 -0.1715  0.5502  0.2146
15450TIP3   OH267840   1.586   4.206   1.824  0.0729  0.1111 -0.1035
15450TIP3    H167841   1.565   4.142   1.757 -0.4788  0.4358 -0.2425
15450TIP3    H267842   1.549   4.288   1.792 -1.6780 -0.0739  1.3897
15451TIP3   OH267843   4.153   1.208   4.255  0.3089 -0.1370 -0.4011
15451TIP3    H167844   4.118   1.297   4.257 -0.3021 -0.3797 -0.1307
15451TIP3    H267845   4.248   1.219   4.257  0.2190  0.4510  2.7790
15452TIP3   OH267846   5.301   4.658   0.714  0.2828  0.3475 -0.0230
15452TIP3    H167847   5.395   4.641   0.712  0.1692 -0.3998  0.6874
15452TIP3    H267848   5.280   4.688   0.625  1.0442 -0.2972 -0.4329
15453TIP3   OH267849   0.733   2.551   4.154  0.5756  0.2788 -0.4750
15453TIP3    H167850   0.773   2.517   4.073  0.1473  0.0046 -0.5739
15453TIP3    H267851   0.733   2.476   4.213 -0.9225 -0.0609 -0.8944
15454TIP3   OH267852   5.418   6.796   1.269  0.3594  0.2877  0.1127
15454TIP3    H167853   5.436   6.829   1.181 -0.4152  2.0156  0.5661
15454TIP3    H267854   5.494   6.743   1.291 -0.1704 -1.5232 -2.2247
15455TIP3   OH267855   4.629   4.174  12.294  0.6306  0.0133  0.5137
15455TIP3    H167856   4.536   4.187  12.311  0.2945 -0.5433 -0.8249
15455TIP3    H267857   4.633   4.148  12.202  1.9432 -1.7210  1.0260
15456TIP3   OH267858   3.792   6.363  11.707 -0.1358  0.2594 -0.0915
15456TIP3    H167859   3.710   6.412  11.700  0.4674  1.0312 -1.9950
15456TIP3    H267860   3.797   6.338  11.799 -2.1436  0.8367  0.1998
15457TIP3   OH267861   5.594   1.847   3.507  0.4948  0.2287  0.0489
15457TIP3    H167862   5.658   1.777   3.523  1.8505  1.6646  0.9291
15457TIP3    H267863   5.554   1.862   3.592  0.4766  0.8085 -0.0661
15458TIP3   OH267864   4.200   3.403  13.828  0.3697  0.2960  0.2300
15458TIP3    H167865   4.136   3.333  13.840 -0.1048  0.6616 -0.1456
15458TIP3    H267866   4.159   3.480  13.866  0.1189  0.7781 -0.9972
15459TIP3   OH267867   2.479   4.214   0.372 -0.0615  0.6995 -0.1650
15459TIP3    H167868   2.528   4.168   0.303  0.0962  0.7754 -0.1050
15459TIP3    H267869   2.403   4.250   0.327  0.4771  1.4694 -0.4806
15460TIP3   OH267870   6.161   3.459   3.214  0.1095  0.3390  0.1673
15460TIP3    H167871   6.090   3.452   3.277 -1.0281  1.2133 -0.9870
15460TIP3    H267872   6.128   3.418   3.134  2.2415 -2.5065  0.6692
15461TIP3   OH267873   5.001   4.244   4.634 -0.1866 -0.0705 -0.0273
15461TIP3    H167874   5.002   4.246   4.538 -0.4964  0.3415 -0.0176
15461TIP3    H267875   4.978   4.153   4.655 -1.1510  0.0907 -0.3449
15462TIP3   OH267876   4.565   5.221   2.358  0.1941 -0.1377  0.3245
15462TIP3    H167877   4.653   5.258   2.353  0.7799 -1.0531  2.8495
15462TIP3    H267878   4.578   5.132   2.390 -1.4286 -1.4418 -2.4553
15463TIP3   OH267879   6.195   4.405   4.035  0.4365  0.1916 -0.1692
15463TIP3    H167880   6.172   4.489   4.073 -0.0478  0.0589 -0.1636
15463TIP3    H267881   6.198   4.421   3.940  0.9483  0.3563 -0.1288
15464TIP3   OH267882   5.618   4.040  15.521  0.2142  0.4396  0.4274
15464TIP3    H167883   5.582   4.078  15.442  0.0762  1.4267  0.9618
15464TIP3    H267884   5.578   4.089  15.593  0.7136 -0.1082  1.1019
15465TIP3   OH267885   0.842   0.274  16.541 -0.7942  0.0805  0.1497
15465TIP3    H167886   0.842   0.199  16.482  1.8902  1.1301 -1.2804
15465TIP3    H267887   0.915   0.258  16.600 -1.4849  0.5827  1.1460
15466TIP3   OH267888   2.332   1.831   5.234  0.1790  0.0656 -0.1147
15466TIP3    H167889   2.274   1.897   5.272 -0.2188  0.4070 -1.3079
15466TIP3    H267890   2.278   1.753   5.225  0.4859 -0.2547  0.7261
15467TIP3   OH267891   6.715   4.007  10.444 -0.9504  0.5068  0.4519
15467TIP3    H167892   6.713   3.925  10.395  0.6192  1.0417 -0.5196
15467TIP3    H267893   6.782   3.994  10.511 -1.2595  0.7213  0.8085
15468TIP3   OH267894   0.432   3.911   6.150 -0.3719 -0.2308 -0.1532
15468TIP3    H167895   0.431   3.817   6.167  0.5106  0.0324  1.4107
15468TIP3    H267896   0.412   3.951   6.234  3.5695  1.0778  0.2422
15469TIP3   OH267897   0.898   4.040  12.980  0.1988  0.4617 -0.5148
15469TIP3    H167898   0.931   4.019  12.893  0.4843  4.1329 -1.3789
15469TIP3    H267899   0.839   3.968  13.001  2.3911 -2.0019 -2.4531
15470TIP3   OH267900   3.668   3.791  10.944 -0.5886 -0.3030  0.8269
15470TIP3    H167901   3.640   3.859  10.883 -3.5798 -1.0604  1.2701
15470TIP3    H267902   3.587   3.761  10.985  1.0415 -1.8313  3.0666
15471TIP3   OH267903   2.088   4.790  13.510  0.3328  0.1787  0.1936
15471TIP3    H167904   2.106   4.702  13.478 -1.1879 -0.0148 -0.2156
15471TIP3    H267905   2.152   4.805  13.579  2.7948  0.0703 -1.9985
15472TIP3   OH267906   0.045   0.957  11.002  0.2100 -0.0563 -0.4079
15472TIP3    H167907  -0.007   0.908  11.066 -0.0471 -0.7599 -1.1422
15472TIP3    H267908   0.007   1.045  11.003 -0.6337 -0.4103 -0.5275
15473TIP3   OH267909   3.431   3.947   6.292  0.4131  0.3237  0.6147
15473TIP3    H167910   3.430   4.040   6.269 -1.9744 -0.3725 -2.5475
15473TIP3    H267911   3.376   3.941   6.370 -1.9212  1.2490 -0.8922
15474TIP3   OH267912   2.771   2.471  12.093 -0.9559 -0.3935 -0.1597
15474TIP3    H167913   2.819   2.476  12.175  0.7300  0.3678 -1.1624
15474TIP3    H267914   2.683   2.444  12.118 -0.8527  1.1473  2.0370
15475TIP3   OH267915   4.279   4.960   5.985 -0.4306 -0.0963  0.3647
15475TIP3    H167916   4.240   4.873   5.997  0.0412 -0.3553  0.0351
15475TIP3    H267917   4.211   5.021   6.014 -1.3934 -0.5076 -0.9933
15476TIP3   OH267918   1.873   6.509   5.465  0.2521 -0.2525  0.4896
15476TIP3    H167919   1.781   6.517   5.438  0.2774 -0.7397  0.2477
15476TIP3    H267920   1.892   6.416   5.457  0.6756 -0.1994  0.8522
15477TIP3   OH267921   6.253   4.381   1.086 -0.3320  0.2858 -0.0618
15477TIP3    H167922   6.231   4.416   1.172 -3.1905  0.5579 -0.8227
15477TIP3    H267923   6.269   4.288   1.101  1.7810  0.8184  1.1320
15478TIP3   OH267924   0.640   6.573   4.661 -0.6858 -0.6679  0.4069
15478TIP3    H167925   0.624   6.481   4.644 -1.8291 -0.7325  1.7643
15478TIP3    H267926   0.718   6.574   4.717 -0.0939 -0.7322 -0.3937
15479TIP3   OH267927   6.569   2.738   1.031  0.0440 -0.7822 -0.2592
15479TIP3    H167928   6.612   2.699   0.954 -1.5208  0.3358 -1.7429
15479TIP3    H267929   6.622   2.815   1.051 -0.8759  0.2771 -1.7388
15480TIP3   OH267930   5.465   3.953  16.413 -0.0461  0.3095  0.8163
15480TIP3    H167931   5.429   3.963  16.501 -0.5724  0.1850  0.6156
15480TIP3    H267932   5.395   3.984  16.355  0.9087  2.0243  0.5176
15481TIP3   OH267933   5.398   3.672   1.299 -0.3066  0.0591 -0.0345
15481TIP3    H167934   5.305   3.687   1.313 -0.4136 -0.0642 -0.5937
15481TIP3    H267935   5.405   3.580   1.274  0.1276 -0.3125  1.4159
15482TIP3   OH267936   2.059   2.421  11.814  0.2034  0.0524  0.0956
15482TIP3    H167937   2.076   2.350  11.876  1.0325 -0.9622 -1.2590
15482TIP3    H267938   1.991   2.386  11.756  1.3095 -0.0363 -1.1818
15483TIP3   OH267939   6.078   0.850  14.754 -0.2726  0.0815  0.9812
15483TIP3    H167940   5.998   0.798  14.747  0.1230 -0.6929  2.1098
15483TIP3    H267941   6.069   0.897  14.837  0.8631 -0.7542  1.5972
15484TIP3   OH267942   6.730   5.254   1.502  0.0595  0.2956  0.3658
15484TIP3    H167943   6.675   5.243   1.424 -0.2672  0.8084  0.5224
15484TIP3    H267944   6.785   5.176   1.503  0.9041  0.8647 -1.0540
15485TIP3   OH267945   2.821   2.467   0.945  0.0272 -0.0981 -0.4517
15485TIP3    H167946   2.750   2.523   0.976 -0.7758 -1.9678  1.2749
15485TIP3    H267947   2.888   2.474   1.012  0.8216  0.4397 -1.2964
15486TIP3   OH267948   3.570   2.067   4.155  0.0160 -0.2670 -0.0424
15486TIP3    H167949   3.510   2.141   4.166  0.1141 -0.2233  0.1836
15486TIP3    H267950   3.610   2.082   4.069 -2.1366 -1.6169 -1.3249
15487TIP3   OH267951   0.509   4.362  17.138  0.0250 -0.0934 -0.4337
15487TIP3    H167952   0.464   4.287  17.176  0.8500  0.8608  2.5500
15487TIP3    H267953   0.441   4.427  17.123 -0.4404 -0.8116 -1.4279
15488TIP3   OH267954   3.848   1.715   5.160  0.4322 -0.3753 -0.7969
15488TIP3    H167955   3.819   1.805   5.176 -0.7120 -0.5610 -1.7307
15488TIP3    H267956   3.781   1.678   5.103 -1.4700 -3.2312  3.0804
15489TIP3   OH267957   3.658   4.677   3.929 -0.9669 -0.1664  0.6168
15489TIP3    H167958   3.618   4.615   3.990 -0.3156 -0.0256  1.1943
15489TIP3    H267959   3.693   4.622   3.859 -0.1749 -0.4808  1.2494
15490TIP3   OH267960   2.448   3.391  12.476  0.2424  0.2725 -0.3730
15490TIP3    H167961   2.365   3.423  12.511  1.0385  0.9614  0.9293
15490TIP3    H267962   2.437   3.394  12.381 -1.1944  0.4223 -0.2141
15491TIP3   OH267963   2.862   3.227  16.614  0.1606 -0.3132 -0.0005
15491TIP3    H167964   2.867   3.255  16.705  0.4048  1.0879 -0.4266
15491TIP3    H267965   2.879   3.307  16.563  1.1986 -1.3106 -1.2700
15492TIP3   OH267966   0.875   0.996  17.012 -0.0311 -0.5145 -0.0492
15492TIP3    H167967   0.854   0.936  17.084  0.1239  0.2665  0.6438
15492TIP3    H267968   0.799   1.054  17.007 -0.2032 -0.7993 -0.7563
15493TIP3   OH267969   4.218   3.763  11.548 -0.2224 -0.0824 -0.0420
15493TIP3    H167970   4.309   3.780  11.525  0.0347  0.2305  1.1497
15493TIP3    H267971   4.175   3.744  11.465  0.9128 -0.1565 -0.6232
15494TIP3   OH267972   4.450   2.006   5.658 -0.0192  0.3612  1.1634
15494TIP3    H167973   4.388   1.933   5.656  0.5139 -0.1561  2.4751
15494TIP3    H267974   4.521   1.975   5.714  2.5043  0.1181 -2.0600
15495TIP3   OH267975   1.450   3.438   4.274  0.1646 -0.1307  0.0291
15495TIP3    H167976   1.484   3.482   4.196 -1.6219 -0.7808 -1.1376
15495TIP3    H267977   1.357   3.460   4.275 -0.0250 -0.9458  1.4265
15496TIP3   OH267978   2.008   6.133   4.465 -0.0835  0.1952 -0.2400
15496TIP3    H167979   2.031   6.186   4.388 -0.3761  1.5495  0.5953
15496TIP3    H267980   2.086   6.137   4.520  0.4235 -1.4318 -0.7960
15497TIP3   OH267981   1.417   2.565  11.818  0.0791 -0.4372  1.0932
15497TIP3    H167982   1.425   2.470  11.819  1.6326 -0.3293  1.0530
15497TIP3    H267983   1.327   2.582  11.791 -0.5615 -1.9011  2.2558
15498TIP3   OH267984   1.146   2.410  11.872 -0.2405  0.4766  0.3660
15498TIP3    H167985   1.152   2.502  11.844 -1.7194  0.3193 -0.4890
15498TIP3    H267986   1.072   2.375  11.823  1.0612 -1.5104 -0.2172
15499TIP3   OH267987   4.515   5.474   3.992  0.0129  0.2436  0.7739
15499TIP3    H167988   4.449   5.542   4.006 -0.5099 -0.0462 -0.2876
15499TIP3    H267989   4.542   5.449   4.081  2.0282  3.5776  1.1922
15500TIP3   OH267990   1.465   2.153  11.102  0.7153  0.3770 -0.1002
15500TIP3    H167991   1.516   2.230  11.076 -0.2876  1.2374  0.4375
15500TIP3    H267992   1.474   2.150  11.197 -0.2898  0.5807  0.0071
15501TIP3   OH267993   3.447   2.044   2.248  0.3313 -0.0728  0.5226
15501TIP3    H167994   3.453   2.029   2.342 -2.7127  0.1991  0.8011
15501TIP3    H267995   3.383   2.115   2.239 -0.4301 -1.0081 -1.8055
15502TIP3   OH267996   2.186   4.665  15.947  0.0313  0.0641 -0.2794
15502TIP3    H167997   2.245   4.627  15.883 -0.6831 -0.9009 -0.3840
15502TIP3    H267998   2.207   4.620  16.029  0.8249  1.1686  0.1306
15503TIP3   OH267999   6.147   4.306  15.755  0.7439 -0.3320  0.1735
15503TIP3    H168000   6.080   4.307  15.823  1.0610 -2.5288  0.5519
15503TIP3    H268001   6.115   4.243  15.691  1.6503 -0.1354 -0.4859
15504TIP3   OH268002   0.099   5.133   4.425  0.4129 -0.2816 -0.2072
15504TIP3    H168003   0.148   5.206   4.462  1.1957 -1.7040  1.6092
15504TIP3    H268004   0.151   5.055   4.445 -1.3927 -1.5667 -0.3500
15505TIP3   OH268005   2.249   1.857   0.469  0.6040  0.4738 -0.1244
15505TIP3    H168006   2.279   1.885   0.383  1.5895 -1.1581 -0.3364
15505TIP3    H268007   2.260   1.762   0.468  2.0141  0.5667  2.3125
15506TIP3   OH268008   1.553   0.337   5.163  0.1188 -0.3760  0.6705
15506TIP3    H168009   1.596   0.252   5.161 -1.3204 -1.1033 -0.3383
15506TIP3    H268010   1.493   0.333   5.237  1.2067  0.3694  1.6189
15507TIP3   OH268011   1.259   2.453   5.696 -0.0216  0.7503 -0.2075
15507TIP3    H168012   1.325   2.438   5.628  0.0820 -0.1219  0.0701
15507TIP3    H268013   1.176   2.434   5.652  0.0876 -0.4061  0.0569
15508TIP3   OH268014   0.864   2.639  14.515 -0.4636 -0.6151 -0.2713
15508TIP3    H168015   0.881   2.592  14.596  1.4687 -0.6379 -0.6789
15508TIP3    H268016   0.844   2.729  14.542 -1.8566 -1.0940  0.3420
15509TIP3   OH268017   4.242   2.019  11.055 -0.0051 -0.2307  0.2772
15509TIP3    H168018   4.308   1.959  11.022 -0.2404 -0.5053  0.3126
15509TIP3    H268019   4.285   2.063  11.129 -0.1240 -0.9555  0.7789
15510TIP3   OH268020   1.796   6.313  16.765 -0.2886  0.5528 -0.6162
15510TIP3    H168021   1.860   6.369  16.722 -0.5231  0.6143 -0.8920
15510TIP3    H268022   1.832   6.225  16.757 -0.6426  0.4786 -1.5394
15511TIP3   OH268023   4.655   5.546  13.534  0.0420 -0.0104 -0.0969
15511TIP3    H168024   4.567   5.513  13.511 -0.0362 -0.2475  0.5431
15511TIP3    H268025   4.679   5.496  13.612  0.0331  1.2874  0.7405
15512TIP3   OH268026   5.518   2.335   1.937  0.0825 -0.4267  0.0494
15512TIP3    H168027   5.491   2.427   1.937  0.2979 -0.3536  1.0163
15512TIP3    H268028   5.563   2.323   1.853  0.4624  0.4790  0.1133
15513TIP3   OH268029   3.462   0.948   5.847  0.1039 -0.1510 -0.0036
15513TIP3    H168030   3.372   0.948   5.881 -0.8190 -1.4483 -2.3635
15513TIP3    H268031   3.485   1.041   5.841 -1.1881  0.2082  0.3650
15514TIP3   OH268032   3.954   5.671  16.618 -0.5042 -0.2660  0.4341
15514TIP3    H168033   3.866   5.709  16.626 -0.5253 -0.0680 -0.7758
15514TIP3    H268034   3.938   5.584  16.582 -0.1049  0.2042 -0.8611
15515TIP3   OH268035   2.120   3.802   1.767  0.4568 -0.5130  0.6602
15515TIP3    H168036   2.050   3.771   1.824 -0.8099  0.7087 -0.1859
15515TIP3    H268037   2.181   3.845   1.826 -0.3551 -0.1082  1.2246
15516TIP3   OH268038   4.798   1.900   1.076 -0.3947 -0.0189 -0.1889
15516TIP3    H168039   4.764   1.858   0.997  0.3154  0.1258 -0.5759
15516TIP3    H268040   4.766   1.990   1.072 -2.8871 -0.7976  1.2227
15517TIP3   OH268041   6.531   0.986  15.656  0.1738 -0.0567 -0.0186
15517TIP3    H168042   6.550   0.993  15.562  0.3504 -1.0258 -0.0618
15517TIP3    H268043   6.500   0.896  15.667 -3.3272  1.1119  0.2328
15518TIP3   OH268044   4.102   2.731  17.150 -0.1193 -0.1494 -0.4200
15518TIP3    H168045   4.138   2.706  17.065 -1.0636 -1.4000 -0.4592
15518TIP3    H268046   4.022   2.780  17.129 -0.5512 -0.7779 -0.2534
15519TIP3   OH268047   5.036   1.428   2.748 -0.5904 -0.1880 -0.0878
15519TIP3    H168048   5.023   1.339   2.716 -0.0365 -0.6658  0.9848
15519TIP3    H268049   5.130   1.443   2.740 -0.3428 -0.5385  1.8239
15520TIP3   OH268050   6.392   0.973   3.515 -0.1340 -0.7511  0.0073
15520TIP3    H168051   6.319   0.929   3.558 -1.6340  1.6491  0.0144
15520TIP3    H268052   6.450   0.902   3.487 -1.8498 -2.6274  1.0850
15521TIP3   OH268053   3.527   4.257  14.208  0.2154  0.3985 -0.3447
15521TIP3    H168054   3.444   4.212  14.218  0.7766 -0.7680 -0.8296
15521TIP3    H268055   3.506   4.337  14.159 -1.0361  1.4777  1.8917
15522TIP3   OH268056   2.123   3.389   3.010 -0.0787  0.7331  0.4823
15522TIP3    H168057   2.166   3.448   3.072  3.3994  0.8229 -1.8985
15522TIP3    H268058   2.138   3.302   3.046  0.8313  0.8563  0.4077
15523TIP3   OH268059   3.677   2.732  13.756 -0.3445 -0.1637  0.0889
15523TIP3    H168060   3.714   2.703  13.839 -0.1559 -1.1035 -0.3193
15523TIP3    H268061   3.699   2.662  13.694 -0.8475  0.3301 -0.6571
15524TIP3   OH268062   6.222   5.843   3.625  0.3293 -0.4378  0.1788
15524TIP3    H168063   6.262   5.905   3.686  2.8969 -0.7474 -1.0963
15524TIP3    H268064   6.296   5.806   3.577 -1.5596 -0.6161 -2.7370
15525TIP3   OH268065   1.823   0.541   1.611 -0.8431 -0.0082 -0.4755
15525TIP3    H168066   1.790   0.452   1.619 -1.2807  0.0254 -1.8729
15525TIP3    H268067   1.750   0.596   1.639 -1.4331  0.0060 -2.0400
15526TIP3   OH268068   4.494   4.567   1.240  0.0246 -0.0597 -0.0895
15526TIP3    H168069   4.400   4.549   1.236 -0.1169  0.4296  0.8538
15526TIP3    H268070   4.524   4.524   1.321  0.7201 -0.6807 -0.6689
15527TIP3   OH268071   2.397   3.912   1.390  0.3740  0.2890 -0.2707
15527TIP3    H168072   2.377   3.880   1.302 -0.3056  1.2805 -0.4777
15527TIP3    H268073   2.492   3.902   1.397  0.8295  2.7311 -2.1503
15528TIP3   OH268074   3.635   1.084   5.371 -0.0694 -0.8119 -0.0110
15528TIP3    H168075   3.579   1.159   5.392  0.9607 -0.0800  0.1366
15528TIP3    H268076   3.575   1.010   5.368 -1.1364  0.0563 -0.4030
15529TIP3   OH268077   2.217   6.613   3.479 -0.5954 -0.5730  0.2410
15529TIP3    H168078   2.291   6.607   3.419 -0.5203 -0.4578  0.3221
15529TIP3    H268079   2.208   6.524   3.514 -1.0037 -0.7757 -0.3728
15530TIP3   OH268080   0.681   0.817   6.069 -0.3419 -0.6904  0.4539
15530TIP3    H168081   0.717   0.745   6.017 -1.1835 -1.1279  0.4660
15530TIP3    H268082   0.635   0.773   6.141 -3.5483 -0.2760 -1.2660
15531TIP3   OH268083   1.445   1.011  15.408 -0.1703 -0.1711 -0.1009
15531TIP3    H168084   1.512   1.060  15.456 -0.1113 -0.3883  0.0426
15531TIP3    H268085   1.475   1.010  15.317 -0.4339  0.5016 -0.1944
15532TIP3   OH268086   0.469   4.232  15.665 -0.3338 -0.3811  0.0728
15532TIP3    H168087   0.524   4.299  15.624  0.3383 -0.6158  0.5936
15532TIP3    H268088   0.475   4.157  15.606  0.2094 -0.5394  0.3333
15533TIP3   OH268089   5.499   2.243  13.769 -0.4693  0.8170 -0.6480
15533TIP3    H168090   5.502   2.339  13.769  2.6934  0.7693 -1.3359
15533TIP3    H268091   5.499   2.219  13.676 -0.7653  0.1441 -0.4774
15534TIP3   OH268092   4.240   3.454  14.613 -0.1847  0.1354 -0.3873
15534TIP3    H168093   4.255   3.549  14.618  1.2760 -0.0616 -0.7586
15534TIP3    H268094   4.147   3.446  14.594 -0.3520  1.4989 -0.2313
15535TIP3   OH268095   0.667   4.422   6.504 -0.2056 -0.5598  0.3643
15535TIP3    H168096   0.637   4.401   6.416  1.6964  0.7280 -0.6436
15535TIP3    H268097   0.704   4.340   6.538 -0.6354 -0.9741 -0.1678
15536TIP3   OH268098   6.740   4.852  14.047 -0.4916 -0.6034  0.3791
15536TIP3    H168099   6.739   4.770  14.096 -1.5015  0.3862  2.0623
15536TIP3    H268100   6.829   4.861  14.014 -0.6595 -2.9202 -0.7742
15537TIP3   OH268101   5.731   4.896   0.639  0.2986 -0.0618  0.0452
15537TIP3    H168102   5.694   4.905   0.727  0.0238 -0.7257 -0.0005
15537TIP3    H268103   5.657   4.911   0.580 -0.1719 -2.5176 -0.0359
15538TIP3   OH268104   5.905   6.186   0.794 -0.3652 -0.5698 -0.3468
15538TIP3    H168105   5.995   6.166   0.767  0.0597 -0.6686  1.1082
15538TIP3    H268106   5.890   6.131   0.871 -1.7540 -0.7087 -0.7023
15539TIP3   OH268107   2.499   2.510   3.630  0.0467  0.1169  0.5275
15539TIP3    H168108   2.473   2.595   3.664  0.1303  0.1784  0.4391
15539TIP3    H268109   2.450   2.500   3.549  0.1256  0.1343  0.4768
15540TIP3   OH268110   6.686   0.649   5.660  0.1693  0.1384 -0.3177
15540TIP3    H168111   6.780   0.649   5.645  0.3152  0.5625  0.5242
15540TIP3    H268112   6.677   0.626   5.753 -0.5060  0.9562 -0.1702
15541TIP3   OH268113   5.396   6.243   3.194 -0.3058  0.0385 -0.1306
15541TIP3    H168114   5.336   6.191   3.248  0.0601 -0.4541 -0.2020
15541TIP3    H268115   5.467   6.266   3.254  0.5288 -1.2319 -0.6239
15542TIP3   OH268116   3.554   2.145  16.829 -0.0769  0.1009  0.2494
15542TIP3    H168117   3.564   2.240  16.822  1.3864 -0.0913 -0.5110
15542TIP3    H268118   3.622   2.110  16.772  0.8289 -1.4225  2.2274
15543TIP3   OH268119   4.735   3.311   4.391  0.5231 -0.4087  0.3267
15543TIP3    H168120   4.773   3.234   4.432  0.7956 -0.1919  0.4852
15543TIP3    H268121   4.804   3.378   4.397  0.3413 -0.1956  0.0677
15544TIP3   OH268122   1.660   3.610   0.935 -0.5813 -0.1511 -0.1254
15544TIP3    H168123   1.681   3.525   0.897  0.4391  0.0902 -0.0977
15544TIP3    H268124   1.725   3.670   0.899 -2.0587  0.8899 -1.1583
15545TIP3   OH268125   6.807   1.322  15.856  0.0821 -0.0048  0.9272
15545TIP3    H168126   6.717   1.294  15.840 -0.1508  0.8752  0.6496
15545TIP3    H268127   6.803   1.418  15.858  0.9293  0.0338  1.4002
15546TIP3   OH268128   0.979   1.089  13.356  0.0359 -0.4079  0.5837
15546TIP3    H168129   0.925   1.049  13.424 -0.9807 -0.0107  0.0185
15546TIP3    H268130   0.926   1.083  13.277  0.6883  0.2929  0.0899
15547TIP3   OH268131   5.875   4.006   4.867 -0.5328 -0.3441  0.0735
15547TIP3    H168132   5.787   4.040   4.851 -0.6116 -0.0226  1.1040
15547TIP3    H268133   5.863   3.943   4.938 -0.0732 -1.0106 -0.4360
15548TIP3   OH268134   5.325   0.221  14.820 -0.1957 -0.5477 -0.1567
15548TIP3    H168135   5.330   0.128  14.842  0.2412 -0.3757  0.4553
15548TIP3    H268136   5.348   0.267  14.900 -1.0705  0.1055 -0.2662
15549TIP3   OH268137   3.091   3.119   3.194 -0.0185 -0.1096 -0.1035
15549TIP3    H168138   3.169   3.086   3.240 -0.3370 -0.8124 -0.0534
15549TIP3    H268139   3.109   3.100   3.102 -0.3317 -0.7156 -0.0459
15550TIP3   OH268140   5.821   5.357   1.859 -0.4965 -0.4205 -0.3150
15550TIP3    H168141   5.887   5.425   1.876 -0.3147 -1.1243  2.0886
15550TIP3    H268142   5.749   5.379   1.918 -0.5760 -2.0761  0.2480
15551TIP3   OH268143   2.290   5.796  12.346 -0.0866 -0.3676 -0.1457
15551TIP3    H168144   2.354   5.867  12.333  1.9921 -1.8311  1.7437
15551TIP3    H268145   2.290   5.748  12.263  1.0125 -0.1381 -0.2834
15552TIP3   OH268146   5.345   3.670   6.202  0.2974  0.3327 -0.4992
15552TIP3    H168147   5.391   3.752   6.219  0.4891  0.4199 -1.4023
15552TIP3    H268148   5.415   3.604   6.198  0.1041  0.0397  0.6779
15553TIP3   OH268149   2.373   1.076   3.386  0.3969  0.4007  0.5351
15553TIP3    H168150   2.415   1.110   3.465 -1.7358  1.8877  1.0711
15553TIP3    H268151   2.288   1.044   3.415  0.5285 -1.2483 -0.7790
15554TIP3   OH268152   1.706   5.687   3.651 -0.3745  0.2468  0.2364
15554TIP3    H168153   1.702   5.746   3.575  0.3996 -1.2652 -0.9986
15554TIP3    H268154   1.671   5.739   3.723 -0.8734  1.8072 -1.0957
15555TIP3   OH268155   0.838   0.862  12.747  0.5674 -0.1489 -0.3743
15555TIP3    H168156   0.856   0.848  12.654  0.4617 -1.3064 -0.2240
15555TIP3    H268157   0.823   0.957  12.754 -0.7755 -0.2412 -1.7692
15556TIP3   OH268158   5.689   4.385   2.880 -0.4840 -0.1881  0.1189
15556TIP3    H168159   5.770   4.430   2.902  0.0894 -1.1242 -0.0718
15556TIP3    H268160   5.634   4.394   2.958  0.4757 -1.0929  0.8948
15557TIP3   OH268161   3.861   6.247  14.112 -0.5387 -0.0299  0.1419
15557TIP3    H168162   3.790   6.280  14.166  0.1232 -0.0956  1.0716
15557TIP3    H268163   3.896   6.172  14.160 -1.9461 -2.0631 -1.8981
15558TIP3   OH268164   4.687   0.733  13.594 -0.1502 -0.7489  0.2039
15558TIP3    H168165   4.636   0.724  13.674  1.5936  0.1147  1.4653
15558TIP3    H268166   4.778   0.739  13.625  0.5003  0.1145 -1.8060
15559TIP3   OH268167   3.770   3.020  12.360 -0.3930  0.3078  0.1739
15559TIP3    H168168   3.797   2.982  12.276  1.2527  3.6222 -0.9108
15559TIP3    H268169   3.675   3.031  12.352 -0.5848 -1.6146 -0.2857
15560TIP3   OH268170   4.757   6.309   2.367  0.1449 -0.2450 -0.2712
15560TIP3    H168171   4.783   6.397   2.338 -1.7234  0.0464 -1.1250
15560TIP3    H268172   4.838   6.269   2.398  1.0473  1.7307 -0.0146
15561TIP3   OH268173   2.729   2.659   1.497 -0.0936  0.0123  0.1317
15561TIP3    H168174   2.794   2.701   1.553 -0.0651  1.6276 -1.1081
15561TIP3    H268175   2.776   2.635   1.418 -0.1262 -2.3198  0.7794
15562TIP3   OH268176   5.083   5.667   6.153 -0.1714  0.4713  0.4752
15562TIP3    H168177   5.027   5.657   6.229 -0.4720  0.4373  0.2518
15562TIP3    H268178   5.094   5.762   6.143 -0.5541  0.4939  0.2567
15563TIP3   OH268179   2.611   4.779   5.677  0.5193  0.1513 -0.0405
15563TIP3    H168180   2.617   4.836   5.600  2.1800  1.7035  1.2230
15563TIP3    H268181   2.532   4.809   5.722 -0.2715 -0.5395 -0.9551
15564TIP3   OH268182   6.783   3.748   0.724 -0.4464 -0.8757  0.3552
15564TIP3    H168183   6.837   3.761   0.802 -1.2846 -1.0911  0.9782
15564TIP3    H268184   6.706   3.802   0.738 -0.7509 -1.1632 -0.1754
15565TIP3   OH268185   4.527   0.685  13.134 -0.0529 -0.0606 -0.1794
15565TIP3    H168186   4.462   0.748  13.166 -0.4327 -0.2534 -0.5736
15565TIP3    H268187   4.608   0.711  13.178 -0.3511  0.3017  0.1649
15566TIP3   OH268188   5.215   3.899   6.086 -0.0473 -0.7901  0.3568
15566TIP3    H168189   5.273   3.912   6.161 -1.3173  1.0970  1.0202
15566TIP3    H268190   5.127   3.903   6.122 -0.6677 -0.4091 -1.1641
15567TIP3   OH268191   5.107   3.606   3.823 -0.0920 -0.9282 -0.0921
15567TIP3    H168192   5.185   3.615   3.877  1.5903 -0.2243 -2.5425
15567TIP3    H268193   5.075   3.518   3.841  0.7595 -0.9092  1.5764
15568TIP3   OH268194   3.680   3.387   5.342 -0.1796  0.3055 -0.6691
15568TIP3    H168195   3.671   3.381   5.437 -0.0042  2.3030 -0.4961
15568TIP3    H268196   3.693   3.297   5.313  0.1274 -0.2863  1.2333
15569TIP3   OH268197   2.876   1.028  14.694 -0.0239  0.1789  0.1459
15569TIP3    H168198   2.967   1.007  14.714  1.8137  3.4265 -4.1442
15569TIP3    H268199   2.846   0.955  14.640  0.6040 -0.0054  0.0434
15570TIP3   OH268200   2.498   3.381   3.581 -0.3431 -0.3498  0.0324
15570TIP3    H168201   2.441   3.333   3.641 -0.1045  0.5424  0.9830
15570TIP3    H268202   2.577   3.327   3.575 -0.7087 -0.8698 -0.1650
15571TIP3   OH268203   0.810   5.067   5.692 -0.1510  0.2703 -0.7676
15571TIP3    H168204   0.856   4.991   5.728 -0.1475 -0.8486 -3.0194
15571TIP3    H268205   0.757   5.100   5.764  1.9095 -0.2313  1.0236
15572TIP3   OH268206   3.399   0.728  13.697  0.5826  0.0229 -0.2693
15572TIP3    H168207   3.454   0.680  13.760  0.5092  0.7842  0.3845
15572TIP3    H268208   3.414   0.820  13.718 -1.6315  0.2254  0.5478
15573TIP3   OH268209   3.484   5.409  15.830  0.0250 -0.6651  0.1107
15573TIP3    H168210   3.548   5.362  15.882 -1.2377  0.7649  3.0682
15573TIP3    H268211   3.400   5.366  15.848 -0.8039  1.3464  1.1867
15574TIP3   OH268212   2.099   1.136  15.861 -0.4338 -0.5252  0.2459
15574TIP3    H168213   2.038   1.134  15.935 -2.1755 -2.4363 -1.1907
15574TIP3    H268214   2.049   1.179  15.791 -0.7122 -3.4300 -1.3938
15575TIP3   OH268215   2.657   5.879   4.251  0.0949  0.1879 -0.0393
15575TIP3    H168216   2.592   5.929   4.202 -2.4711 -2.0658  0.9641
15575TIP3    H268217   2.719   5.848   4.185 -1.7344 -0.4414 -1.4906
15576TIP3   OH268218   0.800   4.309   5.592  0.0469  0.6882 -0.1659
15576TIP3    H168219   0.743   4.344   5.660 -0.7719  0.7871 -0.8996
15576TIP3    H268220   0.746   4.245   5.546  0.8778 -0.0213 -0.1655
15577TIP3   OH268221   5.985   3.003   5.937 -0.4731 -0.3223  0.4628
15577TIP3    H168222   6.056   3.022   5.998  0.2250  0.8359 -0.6875
15577TIP3    H268223   6.024   2.943   5.873 -0.5876  0.1593 -0.0589
15578TIP3   OH268224   6.402   3.980  16.178  0.0445 -0.0326  0.1812
15578TIP3    H168225   6.370   3.914  16.240 -0.0429  1.1164  1.3786
15578TIP3    H268226   6.403   4.061  16.228  3.0879  0.3202 -0.3552
15579TIP3   OH268227   3.938   3.343  12.046  0.5731 -0.0907  0.5689
15579TIP3    H168228   4.005   3.312  11.984 -0.1447  1.6100 -1.1029
15579TIP3    H268229   3.968   3.430  12.071 -0.2811  0.0994  0.9321
15580TIP3   OH268230   0.135   1.331   2.350 -0.3728 -0.0356  0.2445
15580TIP3    H168231   0.049   1.288   2.346  0.1943 -1.2510  0.7052
15580TIP3    H268232   0.193   1.272   2.302  0.2436  0.6871  0.0978
15581TIP3   OH268233   1.184   2.142  12.114 -0.6267  0.1910  0.4944
15581TIP3    H168234   1.259   2.125  12.057  0.2601 -0.3999  1.7992
15581TIP3    H268235   1.187   2.237  12.129  0.0072  0.1425  0.7125
15582TIP3   OH268236   5.604   0.896  15.718  0.5827  0.5994 -0.0700
15582TIP3    H168237   5.553   0.874  15.796 -0.5688 -0.9426 -1.2361
15582TIP3    H268238   5.590   0.823  15.658  0.0930  2.5260 -2.3892
15583TIP3   OH268239   0.255   5.183   5.939 -0.1611 -0.1687  0.0356
15583TIP3    H168240   0.211   5.258   5.899  1.3469  0.0015 -1.3768
15583TIP3    H268241   0.222   5.108   5.891 -0.9503 -0.3230  0.8094
15584TIP3   OH268242   6.431   2.243  12.146 -0.4993  0.0270 -0.7148
15584TIP3    H168243   6.368   2.315  12.152  0.2989  0.5849  1.4045
15584TIP3    H268244   6.514   2.281  12.177 -0.1199 -1.8756  0.6659
15585TIP3   OH268245   3.176   0.906  11.995  0.1182 -0.2121  0.1170
15585TIP3    H168246   3.234   0.831  11.985 -0.1145 -0.5344  1.1908
15585TIP3    H268247   3.198   0.942  12.081 -1.4285 -0.4599  0.6243
15586TIP3   OH268248   2.581   1.002  12.991 -0.1067 -0.2375 -0.3765
15586TIP3    H168249   2.506   1.060  12.978  0.5570  0.7629  0.1794
15586TIP3    H268250   2.553   0.942  13.061  0.0943  0.9808  0.7553
15587TIP3   OH268251   3.971   2.004  13.539  0.6945 -0.0375  0.6179
15587TIP3    H168252   4.037   2.071  13.524  0.5772 -0.5467 -2.4212
15587TIP3    H268253   4.021   1.927  13.565  1.1766  0.0680  0.0147
15588TIP3   OH268254   3.276   3.424  15.299 -0.1597  0.2993 -0.2225
15588TIP3    H168255   3.257   3.335  15.330  0.8997 -0.2407 -1.0799
15588TIP3    H268256   3.342   3.412  15.230  1.1624  1.8539  0.7226
15589TIP3   OH268257   1.026   5.553  11.704 -0.0399 -0.1201  0.2518
15589TIP3    H168258   1.050   5.645  11.715 -2.3145  0.3503  1.6292
15589TIP3    H268259   0.971   5.551  11.626  1.8435 -0.6809 -1.0734
15590TIP3   OH268260   5.856   0.357  14.525  0.1044 -0.1358 -1.0551
15590TIP3    H168261   5.852   0.387  14.434  0.6380 -0.2481 -1.1148
15590TIP3    H268262   5.898   0.429  14.572 -2.2339  0.9174 -0.4665
15591TIP3   OH268263   0.688   5.503  12.165  0.8652 -0.1698 -0.3416
15591TIP3    H168264   0.776   5.525  12.133  1.0567  0.9224  0.8946
15591TIP3    H268265   0.660   5.581  12.213 -0.7841 -0.5146 -0.7239
15592TIP3   OH268266   1.484   2.414   1.475  0.0902 -0.6200 -0.4677
15592TIP3    H168267   1.485   2.349   1.545 -1.2031  1.6216  1.7239
15592TIP3    H268268   1.517   2.494   1.516 -1.2917  0.9116 -2.2482
15593TIP3   OH268269   0.056   2.236  16.536 -0.1109 -0.7375  0.3311
15593TIP3    H168270   0.064   2.329  16.556  0.1290 -1.1277  2.1031
15593TIP3    H268271   0.127   2.219  16.474  0.7220 -0.0428  1.0795
15594TIP3   OH268272   5.547   2.432   0.074  0.6566  0.2766  0.1052
15594TIP3    H168273   5.519   2.466   0.159 -1.2900 -2.2619  0.5228
15594TIP3    H268274   5.569   2.510   0.023 -0.6025  1.9675  2.0930
15595TIP3   OH268275   4.282   0.387   0.170 -0.0761  0.3112 -0.1593
15595TIP3    H168276   4.229   0.464   0.190 -2.1161 -1.5358  1.8172
15595TIP3    H268277   4.279   0.379   0.074 -1.4474  1.5644 -0.2275
15596TIP3   OH268278   0.080   4.070   2.435 -0.0076  0.3044  0.5583
15596TIP3    H168279   0.096   3.993   2.490  0.9042  0.8266  1.0412
15596TIP3    H268280   0.021   4.039   2.366 -0.0812 -0.6893  1.0576
15597TIP3   OH268281   4.805   0.604   4.858 -0.0870  0.7615  0.7408
15597TIP3    H168282   4.794   0.550   4.936  0.0821  1.2194  1.0844
15597TIP3    H268283   4.874   0.667   4.882  1.7172 -0.6621 -0.6070
15598TIP3   OH268284   5.828   5.095  12.182 -0.2893 -0.0219  0.3219
15598TIP3    H168285   5.780   5.140  12.112 -1.2981 -0.0983  0.9547
15598TIP3    H268286   5.760   5.065  12.242  0.5363 -0.4317  1.0614
15599TIP3   OH268287   3.732   2.372  11.233  0.2813  0.3942  0.6860
15599TIP3    H168288   3.823   2.351  11.249  0.2268 -0.0005  0.4905
15599TIP3    H268289   3.725   2.380  11.138  0.2710  1.1713  0.7429
15600TIP3   OH268290   3.971   3.556  15.631 -0.5217  0.5487 -0.6731
15600TIP3    H168291   3.914   3.480  15.616 -0.5258  0.4598 -0.2052
15600TIP3    H268292   3.919   3.631  15.601 -1.1900  0.5520  0.4452
15601TIP3   OH268293   6.209   3.369   2.615  0.2944 -0.7398 -0.0657
15601TIP3    H168294   6.187   3.278   2.594 -0.8516 -0.9285  1.8420
15601TIP3    H268295   6.264   3.398   2.542 -1.6982 -2.0524 -2.1432
15602TIP3   OH268296   1.558   5.154  14.372  0.3188  0.2516 -0.1498
15602TIP3    H168297   1.535   5.120  14.459 -1.0744  3.4564  0.8049
15602TIP3    H268298   1.647   5.189  14.383  0.6645 -0.5466 -0.3847
15603TIP3   OH268299   1.353   5.362  15.199 -0.2205  0.6491 -1.0835
15603TIP3    H168300   1.352   5.319  15.284  1.5537  0.4785 -1.1254
15603TIP3    H268301   1.373   5.454  15.219  0.3848  0.5719 -1.3300
15604TIP3   OH268302   4.469   6.387  16.523  0.8548  0.6942  0.0690
15604TIP3    H168303   4.400   6.417  16.464  2.3007  0.4840 -1.7931
15604TIP3    H268304   4.525   6.332  16.468  1.6617 -0.3908  1.9222
15605TIP3   OH268305   4.065   4.129   5.865  0.2989  0.0009  0.0428
15605TIP3    H168306   4.139   4.097   5.916  1.7498  1.9167 -0.7593
15605TIP3    H268307   4.019   4.189   5.924 -0.1421 -0.5494  0.2659
15606TIP3   OH268308   5.235   6.166  11.335  0.0571 -0.6322  0.5436
15606TIP3    H168309   5.162   6.208  11.380 -0.0791 -0.7764  0.4603
15606TIP3    H268310   5.255   6.088  11.388 -0.5415 -1.1658 -0.0100
15607TIP3   OH268311   5.999   0.961   4.829  0.6433  0.1965 -0.2379
15607TIP3    H168312   6.067   0.897   4.850 -0.3084 -1.0620 -0.9211
15607TIP3    H268313   5.963   0.986   4.914 -1.6223 -3.1222 -0.1465
15608TIP3   OH268314   6.677   4.388  14.060  0.2389 -0.6076  0.4576
15608TIP3    H168315   6.585   4.388  14.034 -0.0677  1.3102  1.4148
15608TIP3    H268316   6.724   4.422  13.983  0.4897 -3.9557 -0.9468
15609TIP3   OH268317   4.996   2.725  11.528  0.2867  0.0519 -0.1380
15609TIP3    H168318   5.073   2.686  11.570 -0.2334 -0.4780  0.3381
15609TIP3    H268319   5.022   2.737  11.437  0.8452 -0.3635 -0.0370
15610TIP3   OH268320   2.595   5.436  11.667 -0.7617  0.0347 -0.9761
15610TIP3    H168321   2.634   5.496  11.605 -1.2386  0.0681 -1.2477
15610TIP3    H268322   2.587   5.353  11.620  1.7723 -0.8274  0.0369
15611TIP3   OH268323   1.362   1.602   1.430  0.2034 -0.4930 -0.1998
15611TIP3    H168324   1.295   1.536   1.416 -3.3603  3.0431 -0.8138
15611TIP3    H268325   1.377   1.641   1.344  0.7372  0.8189  0.4613
15612TIP3   OH268326   3.021   0.592   4.068  0.0938  0.4303  0.1048
15612TIP3    H168327   3.038   0.681   4.102 -1.9270  0.3557  1.4712
15612TIP3    H268328   2.996   0.606   3.977  2.7073  0.9492 -0.5717
15613TIP3   OH268329   3.350   4.927   4.555  0.1543 -0.5808  0.1703
15613TIP3    H168330   3.275   4.967   4.512  1.6222  1.7669 -0.3272
15613TIP3    H268331   3.391   4.874   4.486  0.8997  0.9071 -0.5417
15614TIP3   OH268332   6.735   0.434   1.447 -0.3732  0.0566  0.0637
15614TIP3    H168333   6.674   0.451   1.519 -1.7056 -0.0551 -1.0283
15614TIP3    H268334   6.701   0.484   1.374  0.9469  0.1125 -0.5244
15615TIP3   OH268335   5.831   3.428  10.618 -0.3019  0.4826  0.7290
15615TIP3    H168336   5.881   3.389  10.546 -0.1485 -1.4237  1.8349
15615TIP3    H268337   5.887   3.500  10.649  0.3145  0.3647 -0.0966
15616TIP3   OH268338   3.992   2.040   5.879 -0.2858  0.0707  0.0638
15616TIP3    H168339   4.049   2.113   5.856 -1.7583  1.7117  1.4526
15616TIP3    H268340   3.944   2.021   5.798  1.5124 -0.7052 -0.8475
15617TIP3   OH268341   6.053   5.234  14.598  0.2076  0.7222  0.0023
15617TIP3    H168342   6.076   5.203  14.511  1.8290  0.1290  0.6187
15617TIP3    H268343   6.097   5.173  14.658 -1.2618  0.8325  1.2364
15618TIP3   OH268344   2.655   5.197  13.006 -0.1882  0.2138  0.5129
15618TIP3    H168345   2.619   5.278  13.042 -0.5254  0.3276 -0.0824
15618TIP3    H268346   2.676   5.218  12.915  1.4437  0.1674  0.8595
15619TIP3   OH268347   3.176   2.260  12.990 -0.4452  0.4217  0.1699
15619TIP3    H168348   3.183   2.352  12.963  1.6709  0.3058  0.2784
15619TIP3    H268349   3.129   2.217  12.918 -1.2348  1.5298  0.0147
15620TIP3   OH268350   6.663   2.143  13.195  0.2236 -0.6238  0.2964
15620TIP3    H168351   6.721   2.069  13.180 -1.1543 -1.5224 -0.7705
15620TIP3    H268352   6.616   2.121  13.276  0.2150 -0.6456  0.2846
15621TIP3   OH268353   6.594   0.676   4.148 -0.1777  0.1208 -0.1174
15621TIP3    H168354   6.653   0.639   4.214 -0.1187  0.0709 -0.1993
15621TIP3    H268355   6.543   0.601   4.118 -0.2128  0.1461 -0.1207
15622TIP3   OH268356   1.099   2.906   3.707  0.2481 -0.2230 -0.1897
15622TIP3    H168357   1.095   2.962   3.785  0.8449 -3.2458  2.1090
15622TIP3    H268358   1.129   2.964   3.637 -0.9569  2.7354  1.6357
15623TIP3   OH268359   1.230   3.580   4.262  0.1402 -0.4629  0.1871
15623TIP3    H168360   1.200   3.640   4.194 -0.3984  1.4574  2.0559
15623TIP3    H268361   1.154   3.523   4.278  0.0877 -0.5687 -0.4179
15624TIP3   OH268362   3.811   6.273   1.304  0.7091 -0.6065 -0.2223
15624TIP3    H168363   3.905   6.264   1.286  0.8489  0.0518  0.1692
15624TIP3    H268364   3.773   6.191   1.273  1.5546 -1.3047  0.5555
15625TIP3   OH268365   2.278   4.066  12.368 -0.6254 -0.5043  0.4567
15625TIP3    H168366   2.283   4.075  12.463  0.3718  0.4204  0.3252
15625TIP3    H268367   2.249   4.152  12.337 -3.3733 -1.5003  0.0829
15626TIP3   OH268368   0.831   4.414  13.915  0.2043 -0.3269 -0.8215
15626TIP3    H168369   0.895   4.437  13.983 -0.4965 -1.1574  0.1379
15626TIP3    H268370   0.756   4.470  13.934 -0.6195 -1.7116  0.1062
15627TIP3   OH268371   6.109   5.069  16.682  0.2691 -0.2539 -0.2881
15627TIP3    H168372   6.176   5.136  16.670  0.3346 -0.3984 -0.7355
15627TIP3    H268373   6.048   5.108  16.745  2.0464 -1.0880  2.0214
15628TIP3   OH268374   2.495   5.243  16.902 -0.0562 -0.5866 -0.4705
15628TIP3    H168375   2.573   5.203  16.862  1.5536  0.7798  1.2066
15628TIP3    H268376   2.444   5.276  16.828  1.7559 -0.0710 -1.5211
15629TIP3   OH268377   0.062   1.477   3.726 -0.2786  0.2571 -0.4900
15629TIP3    H168378   0.049   1.463   3.632  0.3642 -2.2743 -0.2395
15629TIP3    H268379   0.069   1.389   3.763 -1.9780  1.1573  2.1706
15630TIP3   OH268380   5.836   1.369   2.869 -0.2972 -0.1603  0.1932
15630TIP3    H168381   5.785   1.447   2.888 -1.6102 -1.2036  1.0296
15630TIP3    H268382   5.871   1.385   2.781  0.8464  2.0733  1.0302
15631TIP3   OH268383   4.645   5.964  13.981 -0.3289 -0.0374 -0.3381
15631TIP3    H168384   4.616   6.055  13.975  0.2015  0.2495  1.2149
15631TIP3    H268385   4.564   5.913  13.983 -0.6409  0.4576 -0.3290
15632TIP3   OH268386   4.910   6.375  15.189  0.4732  0.1935  0.1324
15632TIP3    H168387   4.989   6.323  15.202  0.3541 -0.2408 -0.8447
15632TIP3    H268388   4.856   6.356  15.265  0.6723 -0.6786  0.0625
15633TIP3   OH268389   3.059   5.888   2.941 -0.2728  0.0132 -0.2944
15633TIP3    H168390   3.103   5.845   2.868  0.0691  0.9805 -0.6695
15633TIP3    H268391   3.064   5.824   3.013  0.1071 -0.6208 -0.8747
15634TIP3   OH268392   2.192   3.260  12.154 -0.3282  0.2781 -0.1477
15634TIP3    H168393   2.167   3.302  12.072 -1.3017  0.1154  0.0552
15634TIP3    H268394   2.284   3.238  12.143 -0.6108 -0.2966 -1.4305
15635TIP3   OH268395   1.867   6.328  17.210  0.0112  0.5994  0.0966
15635TIP3    H168396   1.817   6.383  17.150 -0.9457  0.9833  1.2268
15635TIP3    H268397   1.808   6.257  17.234  0.9996 -0.5548 -0.7894
15636TIP3   OH268398   5.705   2.625   1.068 -0.2731 -0.7508  0.1732
15636TIP3    H168399   5.780   2.650   1.014  0.0780 -0.9035  0.5834
15636TIP3    H268400   5.638   2.597   1.006 -1.0196  2.0726 -0.3733
15637TIP3   OH268401   6.129   6.082   1.218  0.0422 -0.2959  0.0139
15637TIP3    H168402   6.202   6.055   1.274 -0.3649 -1.5786 -0.0786
15637TIP3    H268403   6.161   6.068   1.129  0.1051  0.2419 -0.0502
15638TIP3   OH268404   5.217   6.275   0.540  0.0008  0.6220  0.1606
15638TIP3    H168405   5.267   6.194   0.527 -1.0308  0.0129 -0.0701
15638TIP3    H268406   5.225   6.294   0.634  2.9855  2.0801 -0.3191
15639TIP3   OH268407   2.086   6.337   4.255  0.1476 -0.1046  0.1453
15639TIP3    H168408   2.132   6.416   4.228 -1.4629  0.9340  0.4016
15639TIP3    H268409   2.014   6.368   4.310 -0.6545 -1.7214  0.0535
15640TIP3   OH268410   3.662   2.939  15.689  0.1038  0.1656  0.4064
15640TIP3    H168411   3.585   2.928  15.633  1.4934 -1.0797 -1.3094
15640TIP3    H268412   3.674   2.854  15.732  0.9972  0.0828  0.0173
15641TIP3   OH268413   6.524   5.739  11.505 -0.1283  0.3478 -0.6648
15641TIP3    H168414   6.599   5.764  11.559 -0.9954  0.5466  0.4780
15641TIP3    H268415   6.561   5.722  11.418  1.7206 -2.6119  0.6261
15642TIP3   OH268416   2.304   0.472   4.888 -0.2053  0.0150  0.0565
15642TIP3    H168417   2.340   0.498   4.803 -0.7314 -0.6252 -0.3715
15642TIP3    H268418   2.217   0.437   4.868 -0.8595  1.0609  1.0233
15643TIP3   OH268419   3.627   5.427   0.944  0.2031 -0.1487  0.1336
15643TIP3    H168420   3.580   5.500   0.903 -0.7003 -0.5097  0.5222
15643TIP3    H268421   3.587   5.349   0.907  1.7515 -0.4533 -0.9339
15644TIP3   OH268422   1.065   1.429   0.096  0.3257 -0.0992  0.2003
15644TIP3    H168423   1.014   1.429   0.177  1.8714  2.0568  1.2264
15644TIP3    H268424   1.024   1.496   0.042 -0.0664 -0.8140 -0.3940
15645TIP3   OH268425   3.364   1.402  13.192  0.2813 -0.4566 -0.1240
15645TIP3    H168426   3.450   1.404  13.152  0.1624 -0.6972 -0.3947
15645TIP3    H268427   3.310   1.458  13.137  0.0930 -0.8684 -0.3634
15646TIP3   OH268428   6.339   5.792   1.745  0.5653 -0.1378  0.0734
15646TIP3    H168429   6.300   5.787   1.658  0.3037 -0.7554  0.2192
15646TIP3    H268430   6.301   5.870   1.784 -0.6987 -0.8480  0.2904
15647TIP3   OH268431   2.229   2.227  15.950 -0.5061 -0.2354 -0.0580
15647TIP3    H168432   2.183   2.266  16.025 -1.5494 -1.8929  0.1983
15647TIP3    H268433   2.257   2.141  15.982  0.2308 -0.4042 -1.1520
15648TIP3   OH268434   1.061   5.101  12.830 -0.1972  0.2206  0.1319
15648TIP3    H168435   1.047   5.191  12.859 -1.5469  0.3712 -0.9673
15648TIP3    H268436   1.070   5.051  12.911  2.2984  1.5829  0.7453
15649TIP3   OH268437   2.732   5.062   1.777  0.2173 -0.7632  0.0045
15649TIP3    H168438   2.793   4.999   1.815 -1.6520 -1.5495  1.7474
15649TIP3    H268439   2.669   5.008   1.729 -0.1073 -0.0649 -0.3630
15650TIP3   OH268440   2.778   5.458   4.391  0.2774  0.8446  0.3161
15650TIP3    H168441   2.691   5.432   4.420  0.8977 -1.5797  0.1826
15650TIP3    H268442   2.836   5.391   4.429  1.7755  1.0351 -1.5705
15651TIP3   OH268443   0.375   6.093   4.173  0.0688 -0.3309 -0.3305
15651TIP3    H168444   0.310   6.162   4.157  1.0946  0.6301 -0.3726
15651TIP3    H268445   0.370   6.037   4.095 -0.0699  0.2486 -0.7393
15652TIP3   OH268446   6.370   1.549  14.304  0.4783  0.5428  0.3348
15652TIP3    H168447   6.372   1.632  14.352  1.5170 -0.0783  1.4023
15652TIP3    H268448   6.282   1.516  14.318  0.2042  1.2371  0.2966
15653TIP3   OH268449   6.312   4.039   0.105  0.1219  0.1396 -0.0775
15653TIP3    H168450   6.324   4.031   0.011 -2.1690 -2.1315 -0.2281
15653TIP3    H268451   6.377   3.980   0.143  0.0876 -0.0456 -0.3063
15654TIP3   OH268452   4.035   3.975  14.013  0.4251  0.4982 -0.2675
15654TIP3    H168453   4.130   3.977  14.014  0.3972  1.7248  0.2368
15654TIP3    H268454   4.009   3.982  14.105 -0.1495 -0.5738 -0.3310
15655TIP3   OH268455   2.486   0.740   2.108  0.0394  0.1389  0.3100
15655TIP3    H168456   2.540   0.814   2.077  1.1699 -1.0699 -0.6633
15655TIP3    H268457   2.396   0.768   2.091  0.4085  1.7224  0.8960
15656TIP3   OH268458   5.998   3.206  15.171 -0.2727 -0.1709  0.1797
15656TIP3    H168459   6.043   3.136  15.123  0.6053  0.0391  0.6826
15656TIP3    H268460   5.957   3.161  15.245  1.4739  0.0411  1.2949
15657TIP3   OH268461   0.090   0.440   3.250  0.2813  0.0060 -0.0152
15657TIP3    H168462   0.040   0.439   3.169 -0.6293 -2.1950  0.5462
15657TIP3    H268463   0.179   0.418   3.223 -0.6956 -4.2691 -0.0543
15658TIP3   OH268464   2.208   1.933  11.285 -0.1455 -0.0451 -0.0124
15658TIP3    H168465   2.214   2.026  11.261 -0.6319 -0.2473 -0.9550
15658TIP3    H268466   2.117   1.910  11.264  0.0472 -0.7935 -0.0084
15659TIP3   OH268467   1.707   4.383   0.142 -0.4219  0.4970 -0.0971
15659TIP3    H168468   1.779   4.441   0.117 -0.1980  0.3387  0.1754
15659TIP3    H268469   1.733   4.297   0.108  0.8706 -0.1692  2.4221
15660TIP3   OH268470   4.642   1.305   0.247  0.4948 -0.2096 -0.4720
15660TIP3    H168471   4.619   1.310   0.154  2.1306  0.7872 -0.8374
15660TIP3    H268472   4.589   1.232   0.280  0.4842 -1.1026 -2.3551
15661TIP3   OH268473   2.168   1.765   5.774 -0.2408  0.7567 -0.2047
15661TIP3    H168474   2.103   1.801   5.713 -0.8656 -0.9040 -0.5642
15661TIP3    H268475   2.240   1.736   5.717 -0.9868 -1.1407 -0.2294
15662TIP3   OH268476   6.348   5.010  16.408  0.5393  0.5225 -0.4476
15662TIP3    H168477   6.281   4.971  16.465  0.0968  0.4677 -1.0087
15662TIP3    H268478   6.430   4.971  16.439 -0.0299 -1.8797 -1.8283
15663TIP3   OH268479   5.366   2.527  14.063  0.1032 -0.3380 -0.0802
15663TIP3    H168480   5.402   2.614  14.042 -0.6068 -0.1834 -0.7295
15663TIP3    H268481   5.294   2.517  14.000 -0.3331 -1.0532  0.5410
15664TIP3   OH268482   2.736   0.823  11.839 -0.2651 -0.4054  0.0524
15664TIP3    H168483   2.641   0.834  11.845  0.0152  0.6165  3.3538
15664TIP3    H268484   2.771   0.878  11.908  2.5782 -3.3388  1.0480
15665TIP3   OH268485   2.029   5.075  12.180 -0.1949  0.7827  0.2626
15665TIP3    H168486   1.971   5.021  12.235 -0.0061 -2.7217 -2.7480
15665TIP3    H268487   1.972   5.145  12.148 -1.4602  0.2621  1.3105
15666TIP3   OH268488   4.243   4.337   3.468 -0.3084 -0.0979 -0.2913
15666TIP3    H168489   4.284   4.253   3.445 -1.4438 -1.0637  1.1193
15666TIP3    H268490   4.239   4.336   3.564  0.5776  2.0268 -0.2036
15667TIP3   OH268491   1.203   3.540  12.041 -0.4997 -0.4126  0.2052
15667TIP3    H168492   1.120   3.563  12.081 -0.1269  0.3520  0.5379
15667TIP3    H268493   1.184   3.460  11.991 -1.0711 -1.0968  1.5006
15668TIP3   OH268494   6.510   3.969  13.634 -0.0305 -0.3839  0.0149
15668TIP3    H168495   6.463   3.937  13.711 -0.6294  0.1825 -0.1013
15668TIP3    H268496   6.470   4.055  13.616  1.2932  0.2659  0.1177
15669TIP3   OH268497   0.712   3.035  11.348  0.5613  0.4246 -0.4787
15669TIP3    H168498   0.703   2.988  11.264  1.4796 -1.3224  0.3622
15669TIP3    H268499   0.623   3.060  11.371 -0.0415 -1.3515 -0.7423
15670TIP3   OH268500   3.235   1.359   5.081 -0.4257  0.4797  0.1426
15670TIP3    H168501   3.236   1.321   4.993 -0.1111  0.9267 -0.0460
15670TIP3    H268502   3.197   1.445   5.069  0.8533  1.0722  0.2243
15671TIP3   OH268503   3.516   1.195   0.076  0.5932 -0.0277  0.0703
15671TIP3    H168504   3.459   1.220   0.149 -1.4747 -2.3811 -0.6766
15671TIP3    H268505   3.577   1.132   0.115 -1.4005 -2.3710 -0.4452
15672TIP3   OH268506   1.471   3.814   2.151 -0.4088  0.3389 -0.5445
15672TIP3    H168507   1.468   3.908   2.137  1.0830  0.5113  0.1770
15672TIP3    H268508   1.450   3.803   2.244  1.6884  0.1619 -0.0619
15673TIP3   OH268509   4.853   2.417  15.934 -0.0916 -0.3711 -0.9137
15673TIP3    H168510   4.845   2.470  15.855 -0.4874 -0.9439 -1.2584
15673TIP3    H268511   4.847   2.481  16.006 -1.0938  0.0011 -1.3135
15674TIP3   OH268512   6.567   4.659  13.791  0.0059  0.3018 -0.5360
15674TIP3    H168513   6.510   4.707  13.851 -0.5460  1.0156 -1.6085
15674TIP3    H268514   6.507   4.606  13.738  0.6271 -1.8072  0.8127
15675TIP3   OH268515   4.305   4.609  11.238  0.3209 -0.1256 -0.4514
15675TIP3    H168516   4.365   4.535  11.241  2.8228  1.7845 -1.6577
15675TIP3    H268517   4.254   4.596  11.158  0.6700 -0.5784 -0.5983
15676TIP3   OH268518   0.868   1.747   1.754 -0.0229 -0.3832 -0.2333
15676TIP3    H168519   0.861   1.832   1.798  1.1896  0.6051 -1.8881
15676TIP3    H268520   0.961   1.725   1.758  0.0534 -0.4728 -1.8653
15677TIP3   OH268521   0.003   5.512  13.457 -0.1756  0.2078 -0.3391
15677TIP3    H168522  -0.022   5.430  13.415 -0.8198  0.1138  0.2122
15677TIP3    H268523  -0.066   5.574  13.431 -1.1010 -0.0941  1.3216
15678TIP3   OH268524   2.531   0.686  15.794 -0.4609  0.1629  0.2713
15678TIP3    H168525   2.471   0.709  15.866 -1.5294 -1.0972 -0.1862
15678TIP3    H268526   2.533   0.764  15.739 -1.3296  0.3823  0.5412
15679TIP3   OH268527   5.823   4.942  12.894 -0.1714 -0.1248 -0.1633
15679TIP3    H168528   5.884   4.868  12.898 -1.8703 -1.5527 -0.0026
15679TIP3    H268529   5.797   4.956  12.985  1.7505  2.0741  0.0787
15680TIP3   OH268530   0.794   3.787  17.275  0.5220 -0.2657  0.0720
15680TIP3    H168531   0.726   3.779  17.342  0.9145 -1.6215  0.3238
15680TIP3    H268532   0.763   3.732  17.203 -0.1174  1.5396 -1.0630
15681TIP3   OH268533   1.945   3.156  11.319 -0.2218 -0.4379  0.2104
15681TIP3    H168534   1.973   3.072  11.281 -0.8999 -0.2093 -0.8206
15681TIP3    H268535   1.994   3.222  11.270 -2.0361 -0.0726 -1.1368
15682TIP3   OH268536   4.832   5.533  16.114 -0.0131  0.2912 -0.7360
15682TIP3    H168537   4.806   5.518  16.023  1.5958 -0.5396 -1.0744
15682TIP3    H268538   4.920   5.496  16.120 -0.1538  0.2392  1.1983
15683TIP3   OH268539   0.999   3.474   4.298 -0.1939 -0.1482  0.2880
15683TIP3    H168540   0.916   3.516   4.322 -0.7866 -0.8986 -0.4042
15683TIP3    H268541   0.973   3.405   4.237  0.9392 -0.4510  0.1511
15684TIP3   OH268542   0.644   1.251   3.382  0.2654 -0.0306  0.1382
15684TIP3    H168543   0.657   1.157   3.396  0.5941  0.0495  0.3872
15684TIP3    H268544   0.555   1.268   3.412  0.5108 -0.1013  0.9198
15685TIP3   OH268545   5.254   0.342   5.306 -0.0627  0.5062  0.2280
15685TIP3    H168546   5.179   0.322   5.363 -0.1815  0.9410  0.2293
15685TIP3    H268547   5.299   0.258   5.295 -1.3027 -0.0311 -0.8563
15686TIP3   OH268548   5.104   3.267   6.306 -0.1290 -0.0557 -0.0860
15686TIP3    H168549   5.160   3.258   6.229 -0.0060 -1.6341  0.1554
15686TIP3    H268550   5.109   3.359   6.330  0.5074  0.2706 -1.4615
15687TIP3   OH268551   3.378   4.729  12.407 -0.1248  0.1267 -0.2424
15687TIP3    H168552   3.459   4.775  12.386  0.0117 -0.1949 -0.4393
15687TIP3    H268553   3.359   4.752  12.498  0.1011  0.3331 -0.2499
15688TIP3   OH268554   1.373   2.821   4.614  0.2670 -0.0335  0.3040
15688TIP3    H168555   1.447   2.813   4.673  1.7247  2.4278 -1.1210
15688TIP3    H268556   1.311   2.877   4.661  0.5132  0.1954  0.3554
15689TIP3   OH268557   3.365   1.963  14.220 -0.2303  0.3174  0.7666
15689TIP3    H168558   3.389   1.971  14.128  2.1688  1.0621  1.4216
15689TIP3    H268559   3.287   2.018  14.229  0.5087  1.5917 -0.4572
15690TIP3   OH268560   3.963   0.657  11.370  0.0907  0.1815  0.2834
15690TIP3    H168561   3.911   0.597  11.423 -0.2644 -1.3691 -1.7184
15690TIP3    H268562   3.992   0.603  11.295  1.5405  1.9632 -0.4834
15691TIP3   OH268563   5.982   3.789  14.843  0.0402  0.8869 -0.0234
15691TIP3    H168564   6.038   3.759  14.914 -0.1328  0.1033 -0.2073
15691TIP3    H268565   5.915   3.842  14.886 -0.9974 -0.8815  0.6204
15692TIP3   OH268566   1.796   3.132   5.679  0.6644  0.4454  0.2054
15692TIP3    H168567   1.782   3.120   5.773 -0.6269 -2.3518 -0.2750
15692TIP3    H268568   1.714   3.171   5.648  1.3911  2.1139  0.3363
15693TIP3   OH268569   4.418   0.231  11.381 -0.1230  0.0808  0.2398
15693TIP3    H168570   4.407   0.214  11.474 -0.6075  0.8787  0.3319
15693TIP3    H268571   4.470   0.312  11.377 -1.1476  0.7317 -0.1664
15694TIP3   OH268572   2.559   2.827  13.218 -0.3744  0.4966  0.0731
15694TIP3    H168573   2.653   2.840  13.203 -0.0259 -1.0292  0.8648
15694TIP3    H268574   2.526   2.788  13.138  0.0907 -0.9617  0.5836
15695TIP3   OH268575   3.984   0.864  16.140 -0.2317 -0.1706 -0.1856
15695TIP3    H168576   3.971   0.802  16.212 -1.3919  2.0502  1.5899
15695TIP3    H268577   4.013   0.945  16.184  0.0291  0.9271 -2.3220
15696TIP3   OH268578   2.529   5.370   1.321 -0.0776 -0.1357 -0.1385
15696TIP3    H168579   2.604   5.376   1.262  0.9229 -0.8306  1.0391
15696TIP3    H268580   2.516   5.459   1.352  1.3325 -0.2634  0.9187
15697TIP3   OH268581   1.836   6.713   2.138  0.3814  0.6101  0.5350
15697TIP3    H168582   1.812   6.791   2.087 -2.0131  0.7205  1.7740
15697TIP3    H268583   1.904   6.744   2.198  1.2413  1.1259 -0.6794
15698TIP3   OH268584   1.515   0.746  15.027 -0.1400  0.2239 -0.3087
15698TIP3    H168585   1.539   0.659  14.996  2.3057  0.4810  0.7375
15698TIP3    H268586   1.428   0.736  15.065  0.3984 -1.8959  0.3958
15699TIP3   OH268587   0.829   6.710   1.660  0.5076  0.7907 -0.3873
15699TIP3    H168588   0.751   6.733   1.710  1.0747  1.1405  0.3424
15699TIP3    H268589   0.796   6.683   1.574 -0.4576  0.3050  0.1405
15700TIP3   OH268590   0.501   5.753  12.656  0.2994 -0.0601 -0.0363
15700TIP3    H168591   0.478   5.832  12.606  0.7851  1.1198  1.5584
15700TIP3    H268592   0.570   5.712  12.605  1.3238  1.5436  0.0211
15701TIP3   OH268593   6.533   5.965  16.592 -0.3676 -0.2571  0.4618
15701TIP3    H168594   6.534   5.969  16.496  0.3498 -1.3240  0.4035
15701TIP3    H268595   6.617   5.925  16.615 -0.8450 -0.7044  1.4963
15702TIP3   OH268596   0.796   5.381   3.114  0.3070 -0.2394  0.1715
15702TIP3    H168597   0.809   5.385   3.208 -1.1331 -2.3838  0.5041
15702TIP3    H268598   0.881   5.403   3.076  0.3792  2.6613  1.8979
15703TIP3   OH268599   0.067   5.075  14.430  0.6446 -0.9062 -0.1762
15703TIP3    H168600  -0.025   5.049  14.424  0.6846 -0.7178 -1.9630
15703TIP3    H268601   0.073   5.153  14.374  1.8338 -0.7639  0.1507
15704TIP3   OH268602   1.843   5.378  11.020 -0.5458 -0.4164 -0.0548
15704TIP3    H168603   1.843   5.459  10.970 -1.0126  1.3078  2.6540
15704TIP3    H268604   1.753   5.368  11.051 -0.0811 -0.9854  1.1548
15705TIP3   OH268605   2.796   4.510  16.907 -0.2824 -0.4561  0.5156
15705TIP3    H168606   2.841   4.591  16.932 -1.7250  0.5806 -0.1061
15705TIP3    H268607   2.847   4.475  16.835  2.1260 -1.7943  2.7955
15706TIP3   OH268608   1.105   6.634  15.982 -0.7396 -0.0141 -0.3230
15706TIP3    H168609   1.092   6.570  15.912 -1.9339 -0.9612  0.7482
15706TIP3    H268610   1.021   6.680  15.989 -0.7061 -0.0767  0.6211
15707TIP3   OH268611   1.761   6.770   0.973 -0.4118 -0.2915 -0.2418
15707TIP3    H168612   1.814   6.787   1.051 -3.3195 -0.4145  1.8602
15707TIP3    H268613   1.808   6.814   0.902  1.2070  1.6817  1.9726
15708TIP3   OH268614   1.801   1.971   2.149  0.4337  0.5081  0.0203
15708TIP3    H168615   1.718   1.979   2.101  1.0807 -1.4307 -1.5154
15708TIP3    H268616   1.778   1.988   2.240 -1.4978  0.8770 -0.5116
15709TIP3   OH268617   6.272   3.826  16.356 -0.5888 -0.6772  0.0709
15709TIP3    H168618   6.196   3.813  16.300  0.4412 -0.4388 -1.4293
15709TIP3    H268619   6.304   3.737  16.373  0.0930 -0.6754 -1.1567
15710TIP3   OH268620   3.382   3.887   0.887 -0.5754 -0.3826  0.4535
15710TIP3    H168621   3.427   3.803   0.875  1.5347  0.9249 -1.1328
15710TIP3    H268622   3.330   3.898   0.808 -1.2480 -0.4211  0.8878
15711TIP3   OH268623   5.534   6.344   4.218 -0.4108  0.1919  0.3109
15711TIP3    H168624   5.455   6.353   4.272 -0.1973 -1.5761  0.9478
15711TIP3    H268625   5.606   6.344   4.281 -0.0289 -0.0175 -0.1284
15712TIP3   OH268626   0.711   6.494   0.564 -0.2461  0.0236  0.0748
15712TIP3    H168627   0.663   6.451   0.492 -1.4859 -0.1715  0.9934
15712TIP3    H268628   0.713   6.586   0.540 -1.6676  0.1304  0.3247
15713TIP3   OH268629   1.366   1.564   2.681 -0.4111  0.1192 -0.2252
15713TIP3    H168630   1.351   1.515   2.762 -0.8199  0.8069  0.1129
15713TIP3    H268631   1.396   1.650   2.709 -1.1651  0.5701 -0.7910
15714TIP3   OH268632   3.662   1.188  12.595  0.3830 -0.3155  0.3793
15714TIP3    H168633   3.596   1.190  12.526 -0.5072 -1.2310  1.1647
15714TIP3    H268634   3.713   1.109  12.577  0.0309 -0.6601  0.8473
15715TIP3   OH268635   1.535   4.072   5.468 -0.5535  0.0592 -0.3981
15715TIP3    H168636   1.581   4.025   5.538  0.1938  2.4574  0.7754
15715TIP3    H268637   1.447   4.087   5.504  0.0590  1.9524  0.3844
15716TIP3   OH268638   4.955   1.854  12.199 -0.1805 -0.0722  0.7031
15716TIP3    H168639   5.020   1.786  12.213 -0.0729 -0.1938 -0.3468
15716TIP3    H268640   5.002   1.936  12.214 -0.5102 -0.2237  2.7865
15717TIP3   OH268641   3.945   0.459   3.144  0.2102 -0.1815 -0.2899
15717TIP3    H168642   3.963   0.530   3.082 -1.0972 -1.5628 -2.2976
15717TIP3    H268643   3.861   0.481   3.183  0.4698  0.0860  0.1178
15718TIP3   OH268644   2.348   1.468   1.383 -0.9861 -0.9513 -0.2949
15718TIP3    H168645   2.316   1.557   1.367 -0.6982 -1.0778 -1.6685
15718TIP3    H268646   2.441   1.471   1.358 -0.9030 -1.5648 -0.0683
15719TIP3   OH268647   2.024   4.261   5.825  0.2898 -0.1712 -0.5434
15719TIP3    H168648   1.978   4.313   5.891 -1.6835  0.2209 -2.1744
15719TIP3    H268649   2.115   4.290   5.830 -0.2708  1.4419  0.4679
15720TIP3   OH268650   0.363   5.948   5.488 -0.1965  0.7663  0.4922
15720TIP3    H168651   0.304   5.999   5.431  0.1573 -0.3374 -0.8958
15720TIP3    H268652   0.447   5.994   5.481  0.0740  0.1406 -0.6117
15721TIP3   OH268653   6.407   5.474   2.743 -0.4875 -0.1205  0.1585
15721TIP3    H168654   6.365   5.437   2.665  0.6945 -0.8245 -0.1565
15721TIP3    H268655   6.423   5.566   2.720 -3.0262  0.5201  0.7774
15722TIP3   OH268656   1.872   2.750   1.699 -0.3443 -0.1707 -0.1117
15722TIP3    H168657   1.928   2.721   1.771  0.1378 -2.1340 -1.2505
15722TIP3    H268658   1.800   2.797   1.742  0.1232 -0.9912  1.6138
15723TIP3   OH268659   0.624   1.677  16.882 -0.2942  0.5971  0.4116
15723TIP3    H168660   0.558   1.681  16.813 -1.8885 -1.5795  1.7370
15723TIP3    H268661   0.583   1.719  16.957 -0.7558 -1.9641  1.6471
15724TIP3   OH268662   0.723   2.601   3.381 -0.3011 -0.4337  0.4310
15724TIP3    H168663   0.790   2.581   3.446 -1.4846 -2.6690  1.0222
15724TIP3    H268664   0.771   2.609   3.299  1.1808  2.1372  1.4767
15725TIP3   OH268665   0.222   6.569   3.904 -0.2082 -0.2985  0.1880
15725TIP3    H168666   0.229   6.659   3.875  1.7443 -0.3013  0.5429
15725TIP3    H268667   0.157   6.529   3.846 -1.9332  1.5985  0.7623
15726TIP3   OH268668   6.149   2.166   2.259  0.6311  0.3195 -0.4798
15726TIP3    H168669   6.133   2.252   2.300  0.9167 -0.2825  0.9155
15726TIP3    H268670   6.243   2.165   2.240  0.5450  0.4910 -0.9343
15727TIP3   OH268671   4.323   5.699  12.174 -0.4870 -0.0700  0.1279
15727TIP3    H168672   4.369   5.663  12.250  0.9246 -0.0905 -0.7237
15727TIP3    H268673   4.288   5.622  12.129 -3.8043  0.0842  2.2572
15728TIP3   OH268674   5.994   4.696  13.896  0.1043 -0.2822  0.0233
15728TIP3    H168675   6.089   4.697  13.885 -0.0011 -0.4361 -0.9394
15728TIP3    H268676   5.962   4.637  13.828 -0.7315  0.2827 -0.0843
15729TIP3   OH268677   5.003   0.767  17.253 -0.0881  0.2026 -0.3132
15729TIP3    H168678   5.028   0.712  17.179  1.0017  1.2634 -0.7519
15729TIP3    H268679   4.908   0.771  17.249 -0.2350 -1.9700 -0.0280
15730TIP3   OH268680   5.229   6.385  14.813  0.1663  0.9754  0.5787
15730TIP3    H168681   5.294   6.410  14.879 -1.1887  1.1842  1.8686
15730TIP3    H268682   5.179   6.314  14.854 -1.8274  2.2732  0.4915
15731TIP3   OH268683   4.984   1.467   0.465 -0.4474 -0.3693  0.3540
15731TIP3    H168684   4.950   1.465   0.376  1.6260 -1.2787 -0.4527
15731TIP3    H268685   5.054   1.533   0.463 -1.4328  0.7653  1.7263
15732TIP3   OH268686   4.631   0.601   4.645 -0.1067  0.0210  0.4408
15732TIP3    H168687   4.607   0.692   4.629 -1.3190 -0.3511  0.0110
15732TIP3    H268688   4.674   0.602   4.730  1.0610  1.1823 -0.1529
15733TIP3   OH268689   2.419   2.881  14.206 -0.1737  0.9605  0.8201
15733TIP3    H168690   2.401   2.959  14.153 -0.1703  1.4441  1.5165
15733TIP3    H268691   2.469   2.915  14.280  2.6093 -0.1645 -0.4776
15734TIP3   OH268692   0.991   1.995  12.257 -0.3390  0.2517 -0.0825
15734TIP3    H168693   1.042   2.034  12.186 -2.0146  1.2046 -0.8061
15734TIP3    H268694   0.927   1.940  12.213 -0.0885 -0.7558  0.7977
15735TIP3   OH268695   1.057   0.164  10.690 -0.0457  0.1993 -0.7147
15735TIP3    H168696   1.150   0.184  10.681  0.1982  0.9183  2.7199
15735TIP3    H268697   1.012   0.234  10.642  1.1628 -0.2213 -2.4897
15736TIP3   OH268698   1.371   4.716   0.004 -0.1004  0.0874 -0.1594
15736TIP3    H168699   1.350   4.722   0.098  1.4621 -0.9234  0.2857
15736TIP3    H268700   1.458   4.755  -0.003 -0.7162  1.2691 -1.4132
15737TIP3   OH268701   0.252   0.799  11.082  0.5017  0.3789 -0.6650
15737TIP3    H168702   0.272   0.849  11.161  0.9561 -1.5173  0.4703
15737TIP3    H268703   0.175   0.841  11.045 -2.9056 -1.6574  3.6028
15738TIP3   OH268704   6.311   2.377   2.174  0.0402  0.5508 -0.2839
15738TIP3    H168705   6.316   2.329   2.092 -1.8531  0.8185 -0.5808
15738TIP3    H268706   6.344   2.465   2.152  0.0467  0.4642 -0.6233
15739TIP3   OH268707   1.115   3.832  10.544  0.2691  0.2005  0.4321
15739TIP3    H168708   1.028   3.844  10.505  0.0974  0.1032  0.7796
15739TIP3    H268709   1.097   3.794  10.630  0.6660  0.0485  0.4453
15740TIP3   OH268710   5.518   5.573   5.295  0.2608 -0.2111 -0.0093
15740TIP3    H168711   5.455   5.556   5.225  2.3721 -0.8170 -1.8109
15740TIP3    H268712   5.568   5.491   5.303  2.9013  1.2455 -0.8249
15741TIP3   OH268713   3.672   1.903   0.041  0.3719  0.5138 -0.0613
15741TIP3    H168714   3.727   1.903   0.119 -0.0780  0.7024  0.2601
15741TIP3    H268715   3.733   1.898  -0.032  0.8470  1.6549  0.2636
15742TIP3   OH268716   3.669   5.081  15.678  0.0360 -0.4969 -0.1825
15742TIP3    H168717   3.641   5.084  15.769  0.2177 -0.8828 -0.1139
15742TIP3    H268718   3.595   5.045  15.630  0.3021 -1.2298 -0.0463
15743TIP3   OH268719   2.106   6.127   2.383 -0.1909  0.8744  0.8345
15743TIP3    H168720   2.023   6.093   2.347  0.0805 -0.2977  1.2889
15743TIP3    H268721   2.168   6.118   2.311  0.2240 -0.9702  1.3946
15744TIP3   OH268722   1.048   1.171   1.784 -0.0599  0.5861  0.2056
15744TIP3    H168723   0.957   1.151   1.807  0.1508 -2.1334 -1.1894
15744TIP3    H268724   1.041   1.236   1.714 -1.0596 -1.5428 -1.7479
15745TIP3   OH268725   5.741   5.325   4.720 -0.1739 -0.2164  0.2192
15745TIP3    H168726   5.730   5.395   4.784  0.0762 -1.6383  1.8533
15745TIP3    H268727   5.683   5.255   4.749 -0.2270 -0.8060 -1.2347
15746TIP3   OH268728   4.337   2.381   6.188 -0.5511 -0.5335  0.6803
15746TIP3    H168729   4.399   2.449   6.212 -0.8823  0.4565 -1.2082
15746TIP3    H268730   4.361   2.356   6.099 -1.3925 -1.8127  0.7859
15747TIP3   OH268731   4.782   2.701  12.439 -0.0997 -0.3959  0.0497
15747TIP3    H168732   4.727   2.624  12.435  1.8352 -1.7719 -0.8510
15747TIP3    H268733   4.750   2.758  12.369 -0.7942 -0.8662 -0.0183
15748TIP3   OH268734   6.349   5.719  12.601 -0.1379 -0.3658  0.5934
15748TIP3    H168735   6.344   5.722  12.506 -0.3825  0.6793  0.6365
15748TIP3    H268736   6.370   5.809  12.627  1.4240 -0.9477  1.4383
15749TIP3   OH268737   2.377   2.539  14.974 -0.2868  0.2467 -0.6034
15749TIP3    H168738   2.380   2.632  14.995  0.5036  0.1727 -0.3628
15749TIP3    H268739   2.455   2.503  15.017  0.1549 -0.2841 -1.8303
15750TIP3   OH268740   4.782   4.029  12.889  0.1440 -0.1358 -0.0962
15750TIP3    H168741   4.705   3.984  12.923  0.3494 -0.1747  0.3267
15750TIP3    H268742   4.753   4.119  12.873 -0.1726 -0.3293 -0.6061
15751TIP3   OH268743   5.440   4.144   4.444 -0.0466 -0.1664 -0.2833
15751TIP3    H168744   5.372   4.121   4.507 -2.3587  1.0674 -2.2635
15751TIP3    H268745   5.460   4.063   4.399  0.4636 -0.7136  0.8879
15752TIP3   OH268746   0.914   5.946   0.374  0.5980 -0.2371  0.2376
15752TIP3    H168747   0.925   6.008   0.446  1.0004  2.1067 -1.7803
15752TIP3    H268748   0.822   5.956   0.347  1.2022  0.9944 -1.4182
15753TIP3   OH268749   5.491   6.502   0.676  0.0332  0.4009 -0.1962
15753TIP3    H168750   5.406   6.518   0.636 -0.0329 -0.4743 -0.4217
15753TIP3    H268751   5.524   6.424   0.631  1.9305  2.0059 -1.6511
15754TIP3   OH268752   0.903   2.890   4.485 -0.1834  0.3207 -0.2876
15754TIP3    H168753   0.982   2.840   4.463  0.3206  1.5546 -1.3318
15754TIP3    H268754   0.846   2.879   4.408 -1.0676 -0.6051  0.4804
15755TIP3   OH268755   4.475   1.727  14.947 -0.3392 -0.2717  0.3558
15755TIP3    H168756   4.383   1.700  14.948 -0.9805  1.6014 -2.1082
15755TIP3    H268757   4.492   1.757  15.037 -2.7197  1.1006  0.4098
15756TIP3   OH268758   0.772   6.139   4.498 -0.5083 -0.1925 -0.5495
15756TIP3    H168759   0.795   6.144   4.405  1.1438  0.9137 -0.0962
15756TIP3    H268760   0.776   6.045   4.518  0.6054 -0.2973 -1.2337
15757TIP3   OH268761   2.882   0.318   4.877 -0.1220 -0.3998 -0.1288
15757TIP3    H168762   2.891   0.246   4.938 -0.7085 -2.9046 -2.8918
15757TIP3    H268763   2.970   0.355   4.869  0.4447 -1.6707  0.2473
15758TIP3   OH268764   5.461   3.905   4.322  0.0398 -0.2211  0.4693
15758TIP3    H168765   5.386   3.847   4.332 -0.0809 -0.1605 -0.0464
15758TIP3    H268766   5.500   3.878   4.238  0.0891  0.3180  0.3170
15759TIP3   OH268767   1.220   3.261  13.656  0.3516 -0.2061 -0.2946
15759TIP3    H168768   1.161   3.223  13.592 -1.6643  2.2391  0.0351
15759TIP3    H268769   1.187   3.230  13.741  0.9531 -0.6978 -0.2362
15760TIP3   OH268770   1.457   5.489   3.787 -0.0903  0.0665 -0.5614
15760TIP3    H168771   1.549   5.484   3.763  0.5546 -1.8189  2.1079
15760TIP3    H268772   1.428   5.397   3.789 -0.2271  0.0866  5.1313
15761TIP3   OH268773   5.137   2.271   6.181 -0.0574  0.2605  0.1615
15761TIP3    H168774   5.046   2.245   6.172 -0.5372  1.4159  1.3944
15761TIP3    H268775   5.133   2.364   6.204  1.4256  0.3432  0.1321
15762TIP3   OH268776   3.918   1.180  13.534 -0.0344 -0.6369 -0.0593
15762TIP3    H168777   3.932   1.190  13.440 -0.6415 -2.5717 -0.3748
15762TIP3    H268778   3.827   1.151  13.542 -0.3647  0.6754  1.2180
15763TIP3   OH268779   2.447   3.457  13.031  0.1455  0.2441 -0.2240
15763TIP3    H168780   2.536   3.483  13.055  0.4317  0.1029 -1.1310
15763TIP3    H268781   2.434   3.492  12.943 -1.3970  1.9476  0.6532
15764TIP3   OH268782   3.278   5.434   4.727 -0.2405 -0.6703 -0.0817
15764TIP3    H168783   3.300   5.354   4.774 -1.1255  0.1285  1.7375
15764TIP3    H268784   3.285   5.410   4.635  2.0007 -2.1457  0.4209
15765TIP3   OH268785   2.399   0.216   3.702  0.6796  0.1361  0.5641
15765TIP3    H168786   2.456   0.160   3.648  0.3135  0.7152 -0.4363
15765TIP3    H268787   2.445   0.300   3.705  0.2320  0.3920  0.3425
15766TIP3   OH268788   2.510   2.944   5.929  0.3963  0.0808 -0.0965
15766TIP3    H168789   2.595   2.904   5.949  0.2056 -0.1892  0.1737
15766TIP3    H268790   2.472   2.887   5.862 -0.7690 -1.3594  1.7514
15767TIP3   OH268791   6.458   6.573   5.710  0.7913  0.0950 -0.1890
15767TIP3    H168792   6.520   6.645   5.715  1.4405 -0.4315 -0.6116
15767TIP3    H268793   6.450   6.554   5.616 -1.6022  1.5338 -0.3014
15768TIP3   OH268794   3.739   0.128  10.638  0.1019 -0.2585  0.4788
15768TIP3    H168795   3.646   0.119  10.619  0.3307  0.6737 -1.1744
15768TIP3    H268796   3.782   0.062  10.582  0.4075 -1.0560  1.6301
15769TIP3   OH268797   3.000   3.414   3.978  0.3967  0.0503 -0.1916
15769TIP3    H168798   2.921   3.446   4.023  0.1666 -0.9485  0.1332
15769TIP3    H268799   3.038   3.492   3.937 -0.1934  0.7192  0.5212
15770TIP3   OH268800   4.714   4.683  13.971 -0.0538 -0.3093  0.2740
15770TIP3    H168801   4.705   4.609  13.911  0.2464 -1.1110  1.1985
15770TIP3    H268802   4.625   4.717  13.980 -0.2700 -0.8487  0.1992
15771TIP3   OH268803   4.729   1.516  17.268 -0.1586 -0.0500 -0.2943
15771TIP3    H168804   4.813   1.559  17.250  0.3024 -0.6348  0.4091
15771TIP3    H268805   4.677   1.530  17.189 -0.8840  3.7775  0.7692
15772TIP3   OH268806   2.489   1.700  17.029  0.0640 -0.4788  0.2344
15772TIP3    H168807   2.397   1.726  17.019 -0.1563 -0.5382  1.9393
15772TIP3    H268808   2.533   1.780  17.059  0.7341 -0.2493 -1.2839
15773TIP3   OH268809   2.321   1.307   6.013  0.4569 -0.2768 -0.5841
15773TIP3    H168810   2.262   1.275   6.081  1.7290  2.1654  1.7811
15773TIP3    H268811   2.390   1.241   6.008 -0.1080 -0.9076 -0.1479
15774TIP3   OH268812   4.258   1.849  12.732 -0.7313 -0.4389  0.0046
15774TIP3    H168813   4.346   1.811  12.727 -0.2312  0.6700  0.1079
15774TIP3    H268814   4.273   1.938  12.765 -2.1425 -1.2081  2.8343
15775TIP3   OH268815   3.513   2.386   2.821  0.1391 -0.0236 -0.2708
15775TIP3    H168816   3.517   2.375   2.726 -1.2203  1.4090 -0.5130
15775TIP3    H268817   3.596   2.428   2.844  0.1386  0.3316 -0.9223
15776TIP3   OH268818   2.705   2.210   1.902  0.2899  0.0906 -0.2110
15776TIP3    H168819   2.710   2.147   1.974 -1.3362  0.0951 -0.0764
15776TIP3    H268820   2.715   2.157   1.823  0.8763 -0.0718 -0.0311
15777TIP3   OH268821   1.811   3.703   4.635  0.2455  0.4559  0.2304
15777TIP3    H168822   1.871   3.732   4.566 -0.8604  0.7800 -0.6134
15777TIP3    H268823   1.760   3.633   4.594 -2.4938  2.6752 -0.2879
15778TIP3   OH268824   2.259   1.317   5.249  0.1424  0.7113 -0.1533
15778TIP3    H168825   2.248   1.404   5.211  0.6429  0.1915 -1.5236
15778TIP3    H268826   2.183   1.267   5.217  0.6890  0.2040 -0.6865
15779TIP3   OH268827   3.085   1.727  14.367 -0.4706  0.1422 -0.4599
15779TIP3    H168828   3.099   1.819  14.387  0.8109 -0.1906  0.2123
15779TIP3    H268829   3.109   1.681  14.447  1.2570 -0.9512 -1.5771
15780TIP3   OH268830   4.101   1.025  12.095 -0.0203  0.0093 -0.1549
15780TIP3    H168831   4.181   1.061  12.055  0.2751  0.9682  1.2503
15780TIP3    H268832   4.133   0.963  12.160 -0.4321 -0.0158  0.0194
15781TIP3   OH268833   0.794   6.493  15.710  0.4281 -0.0423  0.6901
15781TIP3    H168834   0.864   6.462  15.768 -0.3798 -2.0332  0.6329
15781TIP3    H268835   0.826   6.477  15.622  1.1685  1.9183  0.5723
15782TIP3   OH268836   1.701   5.423  14.037 -0.4697 -0.1784 -0.2923
15782TIP3    H168837   1.753   5.376  14.102 -0.5340 -0.1988 -0.2549
15782TIP3    H268838   1.758   5.494  14.007 -1.5466  1.6863  1.9942
15783TIP3   OH268839   5.147   3.148  14.041  0.5152 -0.5240  0.7657
15783TIP3    H168840   5.124   3.146  13.948 -0.8201  0.0096  1.0742
15783TIP3    H268841   5.243   3.143  14.042  0.7326  2.1951 -0.7507
15784TIP3   OH268842   1.830   4.947  13.122 -0.0215 -0.1239  0.0455
15784TIP3    H168843   1.891   4.891  13.073 -0.1124 -0.7314  0.6238
15784TIP3    H268844   1.886   5.008  13.169  0.0597  0.6522 -1.0243
15785TIP3   OH268845   4.889   2.998  16.125 -0.5763 -0.5950 -0.4580
15785TIP3    H168846   4.796   3.018  16.124 -0.7755 -1.3693  0.9622
15785TIP3    H268847   4.931   3.077  16.159 -0.6574 -0.0748 -1.5496
15786TIP3   OH268848   5.264   3.635  13.639 -0.3858 -0.7956 -0.0457
15786TIP3    H168849   5.253   3.695  13.565  1.4551  2.7421  2.3725
15786TIP3    H268850   5.304   3.557  13.601 -1.0051  0.2675 -3.0088
15787TIP3   OH268851   0.130   0.645   5.862  0.4992  0.0208  0.2314
15787TIP3    H168852   0.171   0.620   5.779 -0.2337 -0.0644 -0.0994
15787TIP3    H268853   0.187   0.715   5.895  0.0163  1.0211 -1.0094
15788TIP3   OH268854   2.050   1.400  12.318  0.4134  0.2978 -0.7787
15788TIP3    H168855   1.978   1.381  12.378 -0.2049  0.2090 -1.5364
15788TIP3    H268856   2.048   1.496  12.308 -0.6431  0.1561 -2.0617
15789TIP3   OH268857   0.661   6.020   3.891  0.1085 -0.1192 -0.0032
15789TIP3    H168858   0.700   5.949   3.839  0.2638 -0.0155 -0.0299
15789TIP3    H268859   0.589   5.979   3.938  0.3077 -0.3335  0.1146
15790TIP3   OH268860   6.473   1.616  16.853  0.0013  0.5531  0.1610
15790TIP3    H168861   6.391   1.567  16.844 -0.8663  1.9831  0.1145
15790TIP3    H268862   6.497   1.640  16.764  0.6483 -0.1504  0.1452
15791TIP3   OH268863   6.723   4.716   2.232  0.0201 -0.3477 -0.8183
15791TIP3    H168864   6.771   4.798   2.243  2.0006 -1.6011  0.2401
15791TIP3    H268865   6.653   4.721   2.297  1.5282 -0.4627  0.8475
15792TIP3   OH268866   4.693   1.538   5.875  0.9378 -0.0376  0.2010
15792TIP3    H168867   4.639   1.578   5.943  0.1967 -0.3898 -0.1716
15792TIP3    H268868   4.648   1.559   5.793  1.0416 -0.8434 -0.0701
15793TIP3   OH268869   3.729   0.371   1.690 -0.4219  0.0860  0.2678
15793TIP3    H168870   3.715   0.343   1.781 -1.6914  1.8627  0.6565
15793TIP3    H268871   3.648   0.347   1.645 -0.2155  0.1475 -0.1389
15794TIP3   OH268872   1.974   1.046   4.865  0.3520 -0.0993 -0.0218
15794TIP3    H168873   1.890   1.080   4.831 -0.0924 -1.9468 -0.8688
15794TIP3    H268874   2.027   1.032   4.786 -0.1925 -3.1640  0.0874
15795TIP3   OH268875   4.508   6.763  15.641 -0.7618 -0.2397 -0.0811
15795TIP3    H168876   4.575   6.782  15.707  1.1549 -0.0267 -2.0339
15795TIP3    H268877   4.490   6.670  15.652  0.7587 -0.5766 -0.3428
15796TIP3   OH268878   5.380   5.085  13.992 -0.4016 -0.4639  0.2164
15796TIP3    H168879   5.292   5.123  13.990  0.1194  0.7664  0.2506
15796TIP3    H268880   5.403   5.071  13.900 -0.4938 -0.4594  0.1931
15797TIP3   OH268881   5.034   4.316  14.778 -0.7517  0.1008  1.0220
15797TIP3    H168882   5.049   4.304  14.872  1.1680  1.4536  0.9108
15797TIP3    H268883   5.018   4.410  14.768 -1.3696 -0.1019  0.0361
15798TIP3   OH268884   1.236   1.767  13.192  0.3657 -0.4029  0.3770
15798TIP3    H168885   1.192   1.848  13.167 -1.2781 -1.3602  0.1058
15798TIP3    H268886   1.245   1.773  13.287  0.1057  0.0350  0.3757
15799TIP3   OH268887   5.645   4.489  16.191 -0.1180  0.0765  0.1064
15799TIP3    H168888   5.727   4.478  16.144 -0.5247  1.1091 -0.8526
15799TIP3    H268889   5.604   4.565  16.151 -0.3131  1.2085  2.3693
15800TIP3   OH268890   1.753   6.137  11.932  0.4052 -0.2712  0.1812
15800TIP3    H168891   1.807   6.168  12.006  0.0496 -2.8737  1.6021
15800TIP3    H268892   1.812   6.080  11.882  0.2059  0.2946 -0.7038
15801TIP3   OH268893   5.112   4.859   0.874  0.5590  0.9460 -0.2016
15801TIP3    H168894   5.113   4.766   0.898  1.8098  0.9941  0.0081
15801TIP3    H268895   5.137   4.859   0.781 -0.1652  1.0284 -0.3981
15802TIP3   OH268896   1.903   6.812   0.322 -0.2652  0.4298  0.2363
15802TIP3    H168897   1.921   6.905   0.330 -2.5467  0.8275  1.3194
15802TIP3    H268898   1.821   6.799   0.371 -1.0560 -1.7816 -1.5449
15803TIP3   OH268899   4.179   3.976   1.546  0.0006 -0.7036 -0.0382
15803TIP3    H168900   4.109   4.033   1.579 -0.5892 -1.8517  0.7030
15803TIP3    H268901   4.236   3.960   1.621  0.0794 -1.2251 -0.2055
15804TIP3   OH268902   0.033   2.454   1.252 -0.6570 -0.4065  0.2065
15804TIP3    H168903   0.105   2.495   1.203 -0.9047 -1.4153 -1.0042
15804TIP3    H268904   0.056   2.469   1.344 -0.7165  2.3956 -0.1888
15805TIP3   OH268905   5.721   6.246   2.902 -0.2119  0.6691  0.7183
15805TIP3    H168906   5.764   6.306   2.840  1.3836  0.3652  1.5024
15805TIP3    H268907   5.789   6.225   2.966 -1.5811  0.2588  2.0680
15806TIP3   OH268908   6.294   1.366   0.496 -0.3250 -0.2980  0.2946
15806TIP3    H168909   6.312   1.280   0.532 -2.4785 -2.0529 -2.5891
15806TIP3    H268910   6.377   1.395   0.460  0.0628 -1.8508 -0.0761
15807TIP3   OH268911   6.795   0.080   2.447 -0.3427  0.0491  0.2823
15807TIP3    H168912   6.735   0.071   2.373 -1.1997  0.7263  0.8699
15807TIP3    H268913   6.796  -0.007   2.487 -0.5288 -0.1041 -0.0417
15808TIP3   OH268914   6.176   1.565   6.741  0.3310 -0.2758 -0.2440
15808TIP3    H168915   6.173   1.592   6.649  0.8500 -0.4057 -0.3035
15808TIP3    H268916   6.090   1.526   6.757 -0.0019  0.3452 -0.4845
15809TIP3   OH268917   1.504   0.130   2.493  0.2633 -0.1593 -0.0167
15809TIP3    H168918   1.576   0.070   2.512 -0.1541 -0.2204  1.4564
15809TIP3    H268919   1.505   0.140   2.398  1.6502 -0.8572 -0.0859
15810TIP3   OH268920   5.624   1.967  11.377 -0.1814 -0.7021 -0.2926
15810TIP3    H168921   5.631   1.898  11.443 -0.8573 -0.6419 -0.1585
15810TIP3    H268922   5.696   2.027  11.397 -1.4119  0.2305  1.4468
15811TIP3   OH268923   1.870   3.892  13.474  0.2952  0.7823  0.0696
15811TIP3    H168924   1.931   3.964  13.461  1.6057 -0.3007  0.1950
15811TIP3    H268925   1.823   3.884  13.391  1.1691  0.8377 -0.4376
15812TIP3   OH268926   5.629   2.361  11.922  0.2210  0.2676 -0.3270
15812TIP3    H168927   5.672   2.276  11.908  1.3430  0.6371  0.7329
15812TIP3    H268928   5.602   2.358  12.014 -3.9137 -0.7693 -1.4717
15813TIP3   OH268929   5.082   5.001  12.329 -0.7957  0.3237 -0.3781
15813TIP3    H168930   5.074   5.061  12.403 -0.7170 -0.7536  0.5141
15813TIP3    H268931   4.999   4.953  12.328 -0.8715  0.4779 -1.0974
15814TIP3   OH268932   5.766   2.039  16.105 -0.6365 -0.2026  0.1491
15814TIP3    H168933   5.680   2.012  16.137 -0.6426  0.6987  0.9040
15814TIP3    H268934   5.819   2.050  16.184  0.2571 -0.9994 -0.3234
15815TIP3   OH268935   3.528   2.876   2.548 -0.2100  0.5075 -0.4002
15815TIP3    H168936   3.611   2.865   2.594  0.8315 -1.5037 -2.6902
15815TIP3    H268937   3.510   2.790   2.509 -2.9447  1.1308 -0.6551
15816TIP3   OH268938   0.367   4.829   0.914  1.2547 -0.5117 -0.0716
15816TIP3    H168939   0.438   4.804   0.973  2.5673 -1.2021 -1.8811
15816TIP3    H268940   0.289   4.831   0.969  2.1633 -2.6847  1.3549
15817TIP3   OH268941   5.997   6.536  17.255 -0.4576 -0.2395 -0.3460
15817TIP3    H168942   5.969   6.627  17.266  1.7377  0.3705  0.5018
15817TIP3    H268943   6.080   6.542  17.208 -0.6512 -1.8629 -0.9172
15818TIP3   OH268944   0.969   3.710   5.206 -0.2819  0.2210  0.4587
15818TIP3    H168945   0.876   3.687   5.198 -0.8122  1.0294  3.6261
15818TIP3    H268946   1.013   3.628   5.225 -0.2963 -0.1776 -1.1213
15819TIP3   OH268947   2.890   1.370   4.137  0.0356 -0.2682 -0.7245
15819TIP3    H168948   2.873   1.327   4.053  0.4675  1.3672 -1.6676
15819TIP3    H268949   2.803   1.395   4.169 -0.2040 -1.5944 -0.2636
15820TIP3   OH268950   5.729   1.440   5.888  0.1198  0.6511 -0.5073
15820TIP3    H168951   5.766   1.441   5.800  1.9214 -0.4355  0.2139
15820TIP3    H268952   5.743   1.350   5.919 -2.6340  0.3617  0.0058
15821TIP3   OH268953   5.381   0.287   2.286 -0.4400 -0.0361  0.2817
15821TIP3    H168954   5.291   0.264   2.264  0.4018 -1.1792 -2.1609
15821TIP3    H268955   5.396   0.249   2.372 -1.7108 -1.4626 -0.1110
15822TIP3   OH268956   5.499   2.821  14.686 -0.1934  0.2675  0.3646
15822TIP3    H168957   5.544   2.862  14.760 -1.2259 -0.3060  1.3294
15822TIP3    H268958   5.506   2.727  14.702 -0.9411  0.1538  0.0657
15823TIP3   OH268959   3.751   2.582  10.753  0.5591  0.0516  0.0940
15823TIP3    H168960   3.726   2.536  10.673  1.2880 -0.1670 -0.0130
15823TIP3    H268961   3.720   2.671  10.740  1.6107  0.2814 -0.8776
15824TIP3   OH268962   2.713   0.402   5.693  0.0265 -0.0811 -0.4025
15824TIP3    H168963   2.619   0.389   5.683 -0.0198 -0.3112  0.3205
15824TIP3    H268964   2.753   0.329   5.646 -0.1883 -1.2092  1.1378
15825TIP3   OH268965   0.891   3.024  14.925 -0.6524  0.8869 -0.0666
15825TIP3    H168966   0.864   2.964  14.995 -0.7268  1.4075  0.3549
15825TIP3    H268967   0.827   3.095  14.930 -2.1365 -0.2398 -2.2502
15826TIP3   OH268968   2.702   4.388   3.356 -0.7487 -0.0990 -0.0806
15826TIP3    H168969   2.762   4.438   3.301 -1.3767  0.8146  0.0483
15826TIP3    H268970   2.743   4.302   3.364 -0.3766 -0.0624 -1.5034
15827TIP3   OH268971   3.464   1.055   1.667 -0.1137 -0.2191  0.0197
15827TIP3    H168972   3.419   1.083   1.588 -0.6916  0.0545  0.4368
15827TIP3    H268973   3.533   0.996   1.637 -0.4392 -0.2512 -0.6662
15828TIP3   OH268974   5.371   4.360  10.680  0.5855  1.0054 -0.1911
15828TIP3    H168975   5.462   4.386  10.694  0.8141  0.1950 -0.1073
15828TIP3    H268976   5.347   4.315  10.761  0.5927 -0.0910 -0.7872
15829TIP3   OH268977   3.564   3.704  12.971  0.2828  0.5401  0.5133
15829TIP3    H168978   3.644   3.654  12.985  0.4175  0.7105  0.3587
15829TIP3    H268979   3.523   3.709  13.057  0.0122 -0.2664  0.4311
15830TIP3   OH268980   0.905   1.870   4.450 -0.0144 -0.3364 -0.6482
15830TIP3    H168981   0.840   1.878   4.520  0.0619 -0.5575 -0.5489
15830TIP3    H268982   0.984   1.911   4.486  1.4868 -4.5715  1.2926
15831TIP3   OH268983   0.181   4.613  15.430  0.4782  0.4828 -0.4538
15831TIP3    H168984   0.196   4.685  15.369 -0.6594  0.6278 -0.5694
15831TIP3    H268985   0.254   4.553  15.414  0.7450  1.0075 -1.2326
15832TIP3   OH268986   3.362   4.420  13.277 -0.5568 -0.8083 -0.4356
15832TIP3    H168987   3.428   4.419  13.346 -2.1517 -0.7672  1.1365
15832TIP3    H268988   3.410   4.445  13.198  0.9698  0.9380  1.0049
15833TIP3   OH268989   5.878   0.477   4.535 -0.6143 -0.0300 -0.1528
15833TIP3    H168990   5.859   0.569   4.519  2.2055  0.8724  1.3820
15833TIP3    H268991   5.834   0.457   4.618 -0.2769  0.2606  0.0981
15834TIP3   OH268992   4.299   2.405   5.623  0.1960  0.2214 -0.2035
15834TIP3    H168993   4.322   2.477   5.682  1.3785 -3.0832  3.5537
15834TIP3    H268994   4.378   2.390   5.572  0.5127  0.4847  0.1978
15835TIP3   OH268995   4.297   2.180   2.460  0.1953 -0.0247 -0.0502
15835TIP3    H168996   4.273   2.224   2.379  0.0507  1.9141  1.0339
15835TIP3    H268997   4.392   2.166   2.452  0.0234 -0.7203 -0.9597
15836TIP3   OH268998   0.952   6.473  12.647  0.1506 -0.0522 -0.3122
15836TIP3    H168999   0.868   6.452  12.688 -1.1430  0.1323 -2.7094
15836TIP3    H269000   0.964   6.404  12.581  1.3713  0.5006 -0.6865
15837TIP3   OH269001   4.696   0.895  14.630 -1.3185 -0.1785  0.1911
15837TIP3    H169002   4.751   0.971  14.610 -0.5136 -1.2898 -1.9880
15837TIP3    H269003   4.665   0.910  14.720  0.2005  1.8780  0.3964
15838TIP3   OH269004   1.640   2.912  15.803  0.3719 -0.3287 -1.0293
15838TIP3    H169005   1.640   2.870  15.717  0.4914 -0.1902 -1.0967
15838TIP3    H269006   1.704   2.983  15.795  0.0913 -0.0684 -0.9430
15839TIP3   OH269007   4.311   4.225  15.012 -0.4107  0.1195 -0.5423
15839TIP3    H169008   4.223   4.188  15.020 -0.2546  0.4236  3.3807
15839TIP3    H269009   4.370   4.153  15.030  0.0134  0.9043  1.3307
15840TIP3   OH269010   4.743   3.093   4.594 -0.6817  0.0947 -0.4219
15840TIP3    H169011   4.745   3.168   4.653 -0.2645  0.1428 -0.4948
15840TIP3    H269012   4.670   3.040   4.625 -0.0299 -0.2320  0.5703
15841TIP3   OH269013   2.379   0.495  17.267 -0.7509  0.1454 -0.0580
15841TIP3    H169014   2.442   0.559  17.298 -0.9700  0.3508 -0.0307
15841TIP3    H269015   2.341   0.457  17.346 -2.8827  2.2281 -0.0208
15842TIP3   OH269016   4.295   5.713   1.527  0.0979 -0.3291  0.3698
15842TIP3    H169017   4.209   5.673   1.519  0.1354 -0.6382  1.4267
15842TIP3    H269018   4.349   5.647   1.571  1.0261 -0.3411 -0.7411
15843TIP3   OH269019   0.798   2.383   5.532 -0.1357  0.0543  0.2896
15843TIP3    H169020   0.734   2.443   5.494  0.0306  0.2363  0.2962
15843TIP3    H269021   0.882   2.412   5.497  0.0542  0.3989  1.0128
15844TIP3   OH269022   6.672   3.335   2.663  0.1153 -0.4404  0.1517
15844TIP3    H169023   6.732   3.390   2.612  0.6677  0.4564  1.7188
15844TIP3    H269024   6.586   3.349   2.622  0.4947  0.4924 -0.3471
15845TIP3   OH269025   5.121   5.072  13.913  0.0420  0.0622 -0.0721
15845TIP3    H169026   5.051   5.026  13.959 -0.2096  0.9649  0.4557
15845TIP3    H269027   5.166   5.003  13.864  1.4303 -1.2381  2.9126
15846TIP3   OH269028   0.275   4.230  16.595  0.0970 -0.2021 -0.2995
15846TIP3    H169029   0.255   4.237  16.688 -0.5700  2.1719 -0.5808
15846TIP3    H269030   0.369   4.210  16.592  0.6164  1.8447  0.9022
15847TIP3   OH269031   1.492   5.585  15.276  0.0718 -0.4032 -0.1678
15847TIP3    H169032   1.481   5.593  15.370  0.9951  1.5648 -0.1957
15847TIP3    H269033   1.428   5.646  15.239  0.6840 -0.1098 -0.7668
15848TIP3   OH269034   0.392   5.263   2.622  0.4295  0.5987  0.6847
15848TIP3    H169035   0.308   5.225   2.596  1.1861 -0.3153 -0.5180
15848TIP3    H269036   0.453   5.233   2.554  1.4564  2.3371  0.8103
15849TIP3   OH269037   3.313   6.448   4.204  0.4321 -0.8212 -0.4636
15849TIP3    H169038   3.314   6.430   4.298 -0.0273  0.6015 -0.1735
15849TIP3    H269039   3.222   6.475   4.186  0.8233  0.1165 -1.0742
15850TIP3   OH269040   3.051   3.842   2.773 -0.3320 -0.1438  0.0580
15850TIP3    H169041   3.021   3.852   2.683  0.9548 -0.4357 -0.4079
15850TIP3    H269042   3.012   3.760   2.802 -0.1937 -0.3922 -0.4529
15851TIP3   OH269043   3.254   0.328   2.236  0.0090  0.7364 -0.2172
15851TIP3    H169044   3.221   0.391   2.172 -1.4527  1.5062  1.2434
15851TIP3    H269045   3.262   0.378   2.317  1.4083 -0.3286  0.3205
15852TIP3   OH269046   1.868   6.573   3.596  0.0857  0.1222  0.6076
15852TIP3    H169047   1.925   6.504   3.629  0.0440  0.2069  0.8613
15852TIP3    H269048   1.917   6.653   3.609 -0.5357  0.3120  1.8732
15853TIP3   OH269049   4.300   4.216   2.842 -0.5059 -0.2410 -0.0859
15853TIP3    H169050   4.214   4.188   2.811 -0.1501 -0.7969 -0.5947
15853TIP3    H269051   4.330   4.279   2.775 -1.2678  1.3170  1.0060
15854TIP3   OH269052   0.227   3.939   4.715 -0.0170  0.4765 -0.0774
15854TIP3    H169053   0.157   3.878   4.740  0.1325  0.1434 -0.4675
15854TIP3    H269054   0.226   3.938   4.619  0.1946  0.8513 -0.0839
15855TIP3   OH269055   4.763   3.000  11.124  0.3464 -0.2178  0.3948
15855TIP3    H169056   4.675   2.965  11.110 -0.7499  2.5582  0.1144
15855TIP3    H269057   4.821   2.923  11.117 -1.7866 -1.6765 -2.0868
15856TIP3   OH269058   6.583   0.582  16.522  0.3810  0.2089  0.5363
15856TIP3    H169059   6.636   0.544  16.452 -0.0934  0.1952  0.1833
15856TIP3    H269060   6.624   0.551  16.602  0.0420 -0.9911  0.2599
15857TIP3   OH269061   3.049   0.962  11.771  0.4553 -0.9017 -0.1049
15857TIP3    H169062   3.083   0.942  11.858 -3.1593 -2.1638  1.1202
15857TIP3    H269063   3.034   0.877  11.730 -2.1517 -0.4829 -0.1490
15858TIP3   OH269064   0.800   1.609   4.397 -0.2879  0.3674  0.0672
15858TIP3    H169065   0.790   1.703   4.382  1.3754  0.9516  2.3835
15858TIP3    H269066   0.711   1.574   4.391 -0.8056  1.9002 -1.7878
15859TIP3   OH269067   4.757   1.072  11.810 -0.1641 -0.3261 -0.1670
15859TIP3    H169068   4.733   0.982  11.791 -0.1037 -0.4800  0.5047
15859TIP3    H269069   4.839   1.086  11.761  0.4780 -1.0069  0.7052
15860TIP3   OH269070   1.771   1.251   1.799 -0.6696  0.6712  0.4464
15860TIP3    H169071   1.751   1.344   1.791 -0.4377  0.5952 -1.2395
15860TIP3    H269072   1.866   1.247   1.813 -0.7002  0.6839  0.6665
15861TIP3   OH269073   5.179   2.131  14.704 -0.3172 -0.2353 -0.3693
15861TIP3    H169074   5.103   2.113  14.760 -0.1887  0.3426 -0.0109
15861TIP3    H269075   5.150   2.202  14.647  0.8020  1.7776  1.5081
15862TIP3   OH269076   1.478   3.561  17.166  0.3038  0.5933  0.1585
15862TIP3    H169077   1.428   3.604  17.097  0.6939 -0.9675 -1.1196
15862TIP3    H269078   1.418   3.560  17.241  0.4733  3.7803  0.3893
15863TIP3   OH269079   1.999   3.054   0.479  0.4106  0.2621 -0.8306
15863TIP3    H169080   2.005   3.149   0.488 -0.1682  0.1813  0.6174
15863TIP3    H269081   2.081   3.022   0.517  0.7434  0.2011 -1.6057
15864TIP3   OH269082   6.819   4.427  12.854  0.0360 -0.2905  0.0020
15864TIP3    H169083   6.864   4.450  12.935  2.1818 -2.1569 -0.5904
15864TIP3    H269084   6.872   4.468  12.785 -1.8239  1.3758 -0.4771
15865TIP3   OH269085   2.944   5.055  14.993  0.0380  0.4071  0.6955
15865TIP3    H169086   2.875   5.104  14.948 -1.3768 -0.0775  2.3121
15865TIP3    H269087   2.927   5.068  15.086 -0.0613 -2.7182  1.1536
15866TIP3   OH269088   0.138   1.558   4.302 -0.3682 -0.5689  0.4042
15866TIP3    H169089   0.111   1.470   4.328 -0.2217 -0.4660  0.8954
15866TIP3    H269090   0.068   1.587   4.243 -0.9598 -0.5958  1.0862
15867TIP3   OH269091   5.577   1.679  10.863 -0.4034 -0.1893  0.0229
15867TIP3    H169092   5.486   1.702  10.882 -0.6286 -0.8025 -0.2892
15867TIP3    H269093   5.574   1.586  10.840  0.2844 -0.1824 -0.1126
15868TIP3   OH269094   6.441   3.751   4.703 -0.1310 -0.4770  0.1227
15868TIP3    H169095   6.443   3.834   4.655 -1.0876 -0.1437  0.6388
15868TIP3    H269096   6.382   3.696   4.652 -1.4274 -0.0022  1.0977
15869TIP3   OH269097   5.955   2.339  13.679  0.0083  0.5139  0.3522
15869TIP3    H169098   5.942   2.397  13.603  3.7445  1.1087  0.0646
15869TIP3    H269099   5.946   2.251  13.643  0.9169  0.8053 -0.6366
15870TIP3   OH269100   4.837   1.064  16.262 -0.1456  0.2085 -0.0364
15870TIP3    H169101   4.874   0.980  16.237 -0.2127  0.4798 -1.0821
15870TIP3    H269102   4.882   1.128  16.206 -1.5479  0.6374 -0.7129
15871TIP3   OH269103   6.748   3.487  12.674  0.1328  0.7744  0.6262
15871TIP3    H169104   6.736   3.557  12.610 -0.5592  1.9677  2.0291
15871TIP3    H269105   6.734   3.529  12.758  0.0331 -0.9855  1.5118
15872TIP3   OH269106   1.681   2.629  11.771  0.1600 -0.3331  0.4189
15872TIP3    H169107   1.678   2.569  11.696 -0.4297  0.7434 -0.4445
15872TIP3    H269108   1.600   2.611  11.819  0.9590 -1.6318  1.2851
15873TIP3   OH269109   1.709   6.366   1.209  0.1236  0.2555 -0.2877
15873TIP3    H169110   1.716   6.315   1.128 -1.0581 -0.6894  0.1875
15873TIP3    H269111   1.768   6.322   1.270  0.1121  0.2477 -0.2819
15874TIP3   OH269112   0.277   0.999   5.438  0.0781 -0.1207  0.6155
15874TIP3    H169113   0.325   0.941   5.378 -0.4998 -2.2983  2.1902
15874TIP3    H269114   0.184   0.982   5.417 -0.1108 -0.5342  1.7663
15875TIP3   OH269115   1.519   2.700   5.445  0.1451 -0.0492  0.4832
15875TIP3    H169116   1.538   2.680   5.354 -2.2419 -1.0839  0.1578
15875TIP3    H269117   1.567   2.635   5.495  1.7756  0.7651 -0.0032
15876TIP3   OH269118   6.210   0.456  14.977  0.3902  0.2716  0.1831
15876TIP3    H169119   6.223   0.522  14.910  0.4081 -1.8893 -2.0077
15876TIP3    H269120   6.298   0.426  15.000  0.3432  0.4384  0.5851
15877TIP3   OH269121   0.576   4.434  14.987  0.4123 -0.0483  0.1818
15877TIP3    H169122   0.606   4.355  15.033  1.2865 -0.9805 -1.9614
15877TIP3    H269123   0.480   4.429  14.991  0.4702  0.0499  2.1659
15878TIP3   OH269124   1.534   2.704  14.137 -0.4549  0.1389 -0.4328
15878TIP3    H169125   1.526   2.718  14.043  0.7903  1.5865 -0.3421
15878TIP3    H269126   1.564   2.613  14.145  1.4351  0.6470 -1.5317
15879TIP3   OH269127   6.219   4.168  12.550  0.0051  0.2844 -0.5275
15879TIP3    H169128   6.132   4.186  12.587  0.5302 -0.2318  0.9891
15879TIP3    H269129   6.280   4.187  12.622  0.8405 -3.5204 -0.1497
15880TIP3   OH269130   1.386   3.259  15.122 -0.1307  0.1898 -0.1370
15880TIP3    H169131   1.296   3.277  15.150  0.4060  1.5099  0.7525
15880TIP3    H269132   1.439   3.325  15.167  1.2869 -0.5898 -0.6518
15881TIP3   OH269133   2.396   3.649  12.800 -0.2393 -0.6709 -0.2980
15881TIP3    H169134   2.316   3.616  12.759 -1.4266 -1.2619  2.3973
15881TIP3    H269135   2.368   3.730  12.844  0.7369 -0.6522  0.2953
15882TIP3   OH269136   2.084   2.840   4.016  0.2987 -0.0717 -0.2923
15882TIP3    H169137   2.112   2.807   3.931  0.1055  0.8767 -0.7315
15882TIP3    H269138   1.996   2.804   4.028 -1.0086  2.4064 -1.9900
15883TIP3   OH269139   4.549   6.802  12.149 -0.3233  0.0858  0.0657
15883TIP3    H169140   4.465   6.846  12.137  0.6719  1.8494 -0.5580
15883TIP3    H269141   4.531   6.733  12.213 -2.3041  0.2461 -0.2922
15884TIP3   OH269142   4.967   5.633  15.493 -0.1411  0.0333  0.1119
15884TIP3    H169143   4.895   5.571  15.505  1.3597 -1.5207  1.4047
15884TIP3    H269144   4.973   5.678  15.578  1.0776 -0.6110  0.3811
15885TIP3   OH269145   1.056   2.016  13.407 -0.0609  0.1395  0.2084
15885TIP3    H169146   1.057   2.078  13.480 -0.9839  0.9969 -0.5020
15885TIP3    H269147   1.148   2.007  13.382  0.0801  1.2134  0.3180
15886TIP3   OH269148   2.088   5.397   6.363 -0.0045 -0.2031 -0.2112
15886TIP3    H169149   2.037   5.475   6.344 -0.0460 -0.3446 -0.6863
15886TIP3    H269150   2.030   5.324   6.340 -0.1139 -0.3847  0.5968
15887TIP3   OH269151   6.225   2.931  16.517 -0.2612 -0.2075 -0.1351
15887TIP3    H169152   6.302   2.970  16.559 -0.1491  2.8693 -2.9532
15887TIP3    H269153   6.259   2.857  16.468  0.6622  0.2331 -0.1629
15888TIP3   OH269154   4.340   3.347   4.928  0.1256  0.5959  0.6347
15888TIP3    H169155   4.357   3.438   4.956 -0.0234  0.4058  1.3527
15888TIP3    H269156   4.418   3.299   4.955 -1.2412 -0.1594  3.3709
15889TIP3   OH269157   5.690   4.463  11.166 -0.1158 -0.6100 -0.0153
15889TIP3    H169158   5.632   4.520  11.217  0.6835 -0.4979  0.7848
15889TIP3    H269159   5.718   4.518  11.092 -0.8936 -0.6166 -0.3227
15890TIP3   OH269160   2.726   6.757  15.294  0.7289  0.3609 -0.2478
15890TIP3    H169161   2.789   6.723  15.230 -0.3559  2.2377 -2.3799
15890TIP3    H269162   2.650   6.700  15.285  1.4115 -0.7922  1.0483
15891TIP3   OH269163   4.388   4.129  11.902 -0.1285 -0.0034  0.1486
15891TIP3    H169164   4.428   4.196  11.847  0.7335 -0.4647  0.2085
15891TIP3    H269165   4.317   4.094  11.848  1.3807 -1.1920 -1.1344
15892TIP3   OH269166   3.842   0.635   4.345  0.1270 -0.0933 -0.2274
15892TIP3    H169167   3.899   0.693   4.294 -0.6329  2.1704  1.4039
15892TIP3    H269168   3.755   0.651   4.310  0.3702 -3.4003 -2.5782
15893TIP3   OH269169   6.114   2.322  13.999  0.2911  0.1159 -0.1787
15893TIP3    H169170   6.099   2.400  13.945  0.1555 -0.2054 -0.6070
15893TIP3    H269171   6.028   2.302  14.036  0.2412 -0.0841 -0.4072
15894TIP3   OH269172   1.408   4.976   2.335 -0.1509 -0.0137 -0.3564
15894TIP3    H169173   1.365   4.890   2.341  1.1304 -0.6336  0.1882
15894TIP3    H269174   1.431   4.984   2.243  0.0854 -0.4355 -0.3369
15895TIP3   OH269175   6.586   1.398  13.330 -0.5484  0.0120 -0.2726
15895TIP3    H169176   6.553   1.457  13.398  0.0123  1.6026 -1.3642
15895TIP3    H269177   6.678   1.384  13.352 -0.5435 -0.0267 -0.3152
15896TIP3   OH269178   3.736   1.022   6.767 -0.4165  0.4003 -0.7617
15896TIP3    H169179   3.826   1.025   6.799 -0.2119  1.0132 -1.4009
15896TIP3    H269180   3.703   0.937   6.797  0.9483 -0.6233 -2.0596
15897TIP3   OH269181   0.246   4.433   0.479  0.7568 -0.2942 -0.0768
15897TIP3    H169182   0.176   4.372   0.503 -0.7604  1.4437  0.0929
15897TIP3    H269183   0.290   4.391   0.406 -1.1463 -0.9827 -0.8768
15898TIP3   OH269184   0.549   0.538   5.231 -0.5375 -0.0361 -0.1316
15898TIP3    H169185   0.631   0.520   5.277 -1.1306 -0.2818  0.8328
15898TIP3    H269186   0.577   0.569   5.145  0.5861  0.6093  0.4487
15899TIP3   OH269187   0.919   5.447   2.310 -0.5144  0.1327  0.1921
15899TIP3    H169188   0.842   5.396   2.285 -0.3345  0.7457 -1.6627
15899TIP3    H269189   0.908   5.462   2.403 -4.0454  2.5749 -0.5285
15900TIP3   OH269190   3.687   0.561   3.279 -0.0460 -0.4891  0.0779
15900TIP3    H169191   3.656   0.549   3.369 -2.1556 -0.6438 -0.6573
15900TIP3    H269192   3.672   0.654   3.261 -0.3857 -0.6344 -0.3905
15901TIP3   OH269193   5.223   5.695  16.756  0.4567 -0.0252  0.0187
15901TIP3    H169194   5.160   5.624  16.744  0.8643 -0.3754 -0.0326
15901TIP3    H269195   5.266   5.675  16.840 -0.9162  1.2944  1.0714
15902TIP3   OH269196   6.143   4.350  11.458  0.5459  0.1287 -0.2280
15902TIP3    H169197   6.080   4.309  11.398  0.5419 -0.6268  0.2878
15902TIP3    H269198   6.137   4.299  11.538  1.1335  0.6439  0.1489
15903TIP3   OH269199   3.256   2.132  17.129 -0.0956  0.2485  0.0061
15903TIP3    H169200   3.206   2.213  17.115 -0.5516  0.0812  0.6244
15903TIP3    H269201   3.226   2.100  17.214  1.2083  0.2505  0.4879
15904TIP3   OH269202   1.121   3.781   5.508  0.2758 -0.7187  0.5405
15904TIP3    H169203   1.194   3.762   5.450  0.3636 -0.5126  0.5819
15904TIP3    H269204   1.091   3.867   5.481 -0.1707 -0.9512  0.3015
15905TIP3   OH269205   1.765   0.219   0.078 -0.3151 -0.3649  0.6407
15905TIP3    H169206   1.727   0.191   0.161 -0.8890  1.5947  1.0563
15905TIP3    H269207   1.857   0.191   0.083  0.0225  1.0291  2.5551
15906TIP3   OH269208   3.070   5.336  13.417 -0.6167 -0.2134 -0.4891
15906TIP3    H169209   3.085   5.363  13.508  0.2365 -0.2235 -0.6202
15906TIP3    H269210   3.154   5.350  13.374 -1.0904  0.0301 -1.3446
15907TIP3   OH269211   2.662   0.123   5.531 -0.1318  0.1774  0.0448
15907TIP3    H169212   2.599   0.099   5.599 -0.0190 -0.6366 -0.1353
15907TIP3    H269213   2.609   0.163   5.462 -0.3841 -0.0082  0.1295
15908TIP3   OH269214   2.698   0.421   2.771  0.3951  0.4163 -1.1365
15908TIP3    H169215   2.627   0.485   2.771  0.5431  0.6064  0.4897
15908TIP3    H269216   2.692   0.378   2.685 -1.9746  0.1023 -0.8391
15909TIP3   OH269217   2.974   6.143  15.781  0.5718 -0.4426 -0.2766
15909TIP3    H169218   2.908   6.105  15.723  1.2760 -3.7795  0.9970
15909TIP3    H269219   2.971   6.088  15.860  2.9416  1.0528  0.9070
15910TIP3   OH269220   6.219   5.992   0.964  0.4403  0.0268  0.7483
15910TIP3    H169221   6.278   5.921   0.989 -0.8599 -1.1196  0.6551
15910TIP3    H269222   6.175   5.959   0.885 -0.5317  0.7416  0.9876
15911TIP3   OH269223   0.521   6.271  12.954  0.7238  0.3734  0.2317
15911TIP3    H169224   0.516   6.176  12.962  0.4782  0.4064  0.4722
15911TIP3    H269225   0.483   6.305  13.035  1.3197  0.6732  0.3876
15912TIP3   OH269226   0.237   1.555  15.806  0.1658  0.0527 -0.2170
15912TIP3    H169227   0.159   1.552  15.862 -1.1195 -0.3023 -1.9879
15912TIP3    H269228   0.220   1.626  15.744  1.7622  0.7292  0.0835
15913TIP3   OH269229   5.670   3.285   0.748  0.0842 -0.2270  0.2526
15913TIP3    H169230   5.656   3.195   0.775 -0.8221  0.1291  1.0236
15913TIP3    H269231   5.743   3.282   0.687  0.7233 -1.3427  1.0745
15914TIP3   OH269232   0.791   2.060  14.960 -0.1590 -0.0107 -0.1569
15914TIP3    H169233   0.809   2.027  14.872  1.6916  0.7883 -0.0942
15914TIP3    H269234   0.877   2.078  14.997 -1.0078  1.6042  1.0877
15915TIP3   OH269235   0.011   2.015  14.211 -0.1259 -0.4037  0.5272
15915TIP3    H169236   0.006   2.086  14.275  0.2013  0.4250 -0.3543
15915TIP3    H269237   0.085   2.038  14.155  0.6477 -1.9824  0.8738
15916TIP3   OH269238   5.247   2.590  15.075  0.0773  0.2846  0.1690
15916TIP3    H169239   5.181   2.573  15.008  0.6288 -1.3983  0.0345
15916TIP3    H269240   5.198   2.585  15.158 -0.2401  0.5155 -0.0008
15917TIP3   OH269241   5.052   2.281   4.039  0.2714 -0.2397  0.3287
15917TIP3    H169242   4.996   2.217   3.995 -0.6840  0.8221 -0.0271
15917TIP3    H269243   5.105   2.318   3.969 -0.8696  1.0631  0.1236
15918TIP3   OH269244   3.671   2.026  14.332  0.2471  0.2264 -0.2342
15918TIP3    H169245   3.609   2.043  14.261  3.0177  0.5099 -2.6565
15918TIP3    H269246   3.675   2.109  14.380 -0.0042  0.7305 -1.0696
15919TIP3   OH269247   5.885   4.113  14.960  0.2266 -0.2134 -0.8337
15919TIP3    H169248   5.862   4.186  14.901 -0.2479 -0.3546 -0.8278
15919TIP3    H269249   5.945   4.152  15.024  2.6887 -0.6065 -2.8195
15920TIP3   OH269250   1.819   1.511  12.587  0.2041 -0.8401 -0.1793
15920TIP3    H169251   1.907   1.542  12.568 -0.0094  0.5801  1.0380
15920TIP3    H269252   1.781   1.493  12.501  0.5802  1.6754 -0.9169
15921TIP3   OH269253   6.406   5.940  15.712 -0.1562 -0.3197 -0.1670
15921TIP3    H169254   6.435   5.952  15.802 -0.0119  1.3223 -0.4166
15921TIP3    H269255   6.351   5.862  15.715  2.9399 -2.5426  0.6045
15922TIP3   OH269256   2.213   5.930  13.948  0.5942 -0.1578 -0.0139
15922TIP3    H169257   2.298   5.885  13.951  0.2001 -0.8488  1.1410
15922TIP3    H269258   2.208   5.976  14.032 -0.2787 -0.3038  0.0111
15923TIP3   OH269259   2.308   3.530   2.546 -0.0640 -0.6289 -0.3635
15923TIP3    H169260   2.248   3.600   2.520  1.0650  1.0687  1.4620
15923TIP3    H269261   2.312   3.472   2.470 -0.8671  1.3908 -1.9941
15924TIP3   OH269262   2.027   2.603   5.696 -0.2650 -0.5337  0.3726
15924TIP3    H169263   2.069   2.598   5.610 -0.8280 -1.6757  0.1559
15924TIP3    H269264   2.062   2.683   5.735  0.0049 -0.0143 -0.9102
15925TIP3   OH269265   4.815   5.178   2.685  0.0515 -0.4789 -0.0907
15925TIP3    H169266   4.858   5.262   2.669 -1.1502 -0.2185 -2.1125
15925TIP3    H269267   4.829   5.161   2.778  0.8670  1.6539  0.1972
15926TIP3   OH269268   5.552   3.423   2.265  0.3427 -0.7700  0.4815
15926TIP3    H169269   5.499   3.483   2.211 -0.2082  0.7996  2.7207
15926TIP3    H269270   5.642   3.447   2.246  0.1720 -0.6002 -0.1447
15927TIP3   OH269271   1.383   1.252  11.166  0.3176  0.1657  0.5196
15927TIP3    H169272   1.435   1.317  11.214 -0.6214  1.9394 -0.8042
15927TIP3    H269273   1.367   1.293  11.081 -0.1350 -1.9038 -0.4238
15928TIP3   OH269274   4.258   2.982   3.786  0.3132  0.1649 -0.2198
15928TIP3    H169275   4.196   3.028   3.843 -0.7514  0.2251 -1.4089
15928TIP3    H269276   4.303   2.921   3.844 -1.6230 -0.6396  0.4699
15929TIP3   OH269277   6.448   6.723  15.542 -0.4197  0.4161 -0.7050
15929TIP3    H169278   6.515   6.785  15.570  0.5101  0.0803 -2.1356
15929TIP3    H269279   6.481   6.687  15.459 -1.2977 -1.4298 -0.2863
15930TIP3   OH269280   2.898   5.085  15.298  0.0119 -0.2754  0.3336
15930TIP3    H169281   2.823   5.134  15.332 -2.1358 -1.7563 -2.1158
15930TIP3    H269282   2.866   4.996  15.285  2.2998 -1.0305 -0.4809
15931TIP3   OH269283   3.957   3.763   4.919 -0.5486  0.0684 -0.3904
15931TIP3    H169284   4.011   3.830   4.878 -2.7671  1.4737 -1.1635
15931TIP3    H269285   3.989   3.681   4.883  0.7367  0.8983 -1.1927
15932TIP3   OH269286   2.026   0.807  11.775  0.6424  0.1144 -0.3026
15932TIP3    H169287   2.010   0.731  11.719  0.8457 -0.4849  0.4610
15932TIP3    H269288   1.947   0.814  11.829  0.6328  0.4352 -0.3565
15933TIP3   OH269289   0.510   2.921  12.019  0.2318 -0.4178  0.7083
15933TIP3    H169290   0.426   2.948  11.980 -0.0389  0.2126  1.7254
15933TIP3    H269291   0.553   2.872  11.949  0.6298  2.4054 -1.1109
15934TIP3   OH269292   5.663   3.050   5.814  0.0196 -0.5343  0.1293
15934TIP3    H169293   5.646   3.140   5.841  0.1095 -0.4542 -0.0796
15934TIP3    H269294   5.662   2.999   5.895 -1.4488 -0.5668  0.1162
15935TIP3   OH269295   0.181   5.909   4.884 -0.6244 -0.1047  0.0504
15935TIP3    H169296   0.234   5.880   4.959  1.0486 -0.7803 -1.3425
15935TIP3    H269297   0.149   5.995   4.909  2.1457  0.8535  0.4994
15936TIP3   OH269298   0.497   3.191  11.844 -0.2066 -0.0127  1.0030
15936TIP3    H169299   0.544   3.237  11.914  0.8650  0.7202 -0.1765
15936TIP3    H269300   0.453   3.260  11.796 -0.3737 -0.4506  0.5278
15937TIP3   OH269301   4.985   4.514  13.265 -0.1626 -0.4567  0.0154
15937TIP3    H169302   4.995   4.567  13.186  2.0715 -1.4918 -0.4483
15937TIP3    H269303   4.928   4.442  13.239 -1.6523  0.6859  0.1136
15938TIP3   OH269304   4.008   4.070   4.607  0.3354  0.0275  0.0124
15938TIP3    H169305   4.039   4.012   4.538  1.2700  1.9539 -1.2362
15938TIP3    H269306   3.912   4.064   4.603  0.4024 -0.4970 -0.8897
15939TIP3   OH269307   3.919   0.364   4.327 -0.1730  0.3005  0.2286
15939TIP3    H169308   3.881   0.352   4.240  1.6582 -0.9021 -0.4535
15939TIP3    H269309   3.892   0.451   4.354  0.0167  1.0706 -1.9860
15940TIP3   OH269310   2.404   3.909   2.587  0.2019  0.3916 -0.2500
15940TIP3    H169311   2.412   4.005   2.594 -1.8548  0.3848  3.4727
15940TIP3    H269312   2.322   3.896   2.539  0.2156  0.5076 -0.3062
15941TIP3   OH269313   2.634   5.985  15.953 -0.5023  0.6745 -0.0774
15941TIP3    H169314   2.579   6.041  15.898 -0.5088  2.8561  2.0373
15941TIP3    H269315   2.604   6.003  16.043  0.4088 -1.7661  0.7436
15942TIP3   OH269316   6.791   1.672   5.648  0.3209  0.1464  0.4798
15942TIP3    H169317   6.768   1.587   5.612  0.3850  0.9376 -1.4793
15942TIP3    H269318   6.708   1.721   5.649  0.8721  1.2313 -1.7371
15943TIP3   OH269319   3.435   3.762   2.148 -0.3061 -0.3369 -0.8258
15943TIP3    H169320   3.382   3.685   2.131 -2.5887  1.0879 -0.3071
15943TIP3    H269321   3.433   3.812   2.067 -1.2591  0.5795 -0.2576
15944TIP3   OH269322   2.018   0.840   1.041 -0.4925 -0.4421 -0.2361
15944TIP3    H169323   1.962   0.917   1.034  0.2920 -0.0806 -3.3883
15944TIP3    H269324   1.957   0.766   1.037 -1.1791 -0.0125  1.9785
15945TIP3   OH269325   6.380   0.040   1.936  0.1494  0.3163 -0.0450
15945TIP3    H169326   6.361   0.055   2.028  1.4870  2.5050 -0.0846
15945TIP3    H269327   6.364   0.125   1.894 -2.3862 -1.1338 -2.1891
15946TIP3   OH269328   3.496   6.083   3.557 -0.2552  0.1633  0.3203
15946TIP3    H169329   3.409   6.109   3.529  0.0145  2.3142  1.2898
15946TIP3    H269330   3.491   6.085   3.653  0.7095 -0.1668  0.3804
15947TIP3   OH269331   2.627   0.453   6.017  0.2093  0.0925  0.3403
15947TIP3    H169332   2.537   0.468   6.048  0.6180  0.6000  1.3018
15947TIP3    H269333   2.682   0.488   6.086  1.1648 -0.8329  0.0578
15948TIP3   OH269334   5.900   4.562   5.229  0.2237 -0.2280  0.0909
15948TIP3    H169335   5.966   4.631   5.240  0.0265 -0.1445  0.7382
15948TIP3    H269336   5.840   4.574   5.303 -1.4488  0.7121 -1.3600
15949TIP3   OH269337   3.015   4.763   4.926 -0.1232 -0.1718 -1.3118
15949TIP3    H169338   3.059   4.679   4.918  0.4390 -0.2063  1.4551
15949TIP3    H269339   3.062   4.821   4.867  1.5313 -1.0167 -0.8386
15950TIP3   OH269340   1.336   5.898  14.227 -0.0691 -0.4819  0.0220
15950TIP3    H169341   1.408   5.841  14.254  0.7653  0.2509 -0.6311
15950TIP3    H269342   1.258   5.842  14.233  0.7971 -1.8440 -1.1116
15951TIP3   OH269343   1.531   4.155  13.515  0.1340 -0.5292  0.1590
15951TIP3    H169344   1.493   4.206  13.444  0.9322  0.0515  0.1427
15951TIP3    H269345   1.615   4.197  13.533 -0.7455  0.2939  2.4969
15952TIP3   OH269346   5.224   3.181  13.473 -0.3475  0.4085 -0.2212
15952TIP3    H169347   5.224   3.085  13.477  1.4959  0.3037 -2.0831
15952TIP3    H269348   5.143   3.203  13.427  0.2234 -0.3736 -1.6408
15953TIP3   OH269349   3.371   5.352  15.133 -0.1585 -0.0639  0.2787
15953TIP3    H169350   3.444   5.373  15.192  1.3029  0.1785 -1.5795
15953TIP3    H269351   3.360   5.257  15.143  0.0286 -0.0170  0.9959
15954TIP3   OH269352   3.037   3.972   1.794  0.0964  0.0942  0.3574
15954TIP3    H169353   3.091   3.895   1.776 -0.9385 -0.5358 -0.1012
15954TIP3    H269354   2.994   3.991   1.710 -0.5384  0.4760  0.7664
15955TIP3   OH269355   6.319   5.705   2.589 -0.7370 -0.0472  0.8616
15955TIP3    H169356   6.350   5.677   2.503  0.6326 -0.2820  1.4227
15955TIP3    H269357   6.232   5.741   2.573 -0.8083 -0.8256 -0.4967
15956TIP3   OH269358   3.275   5.889  11.363 -0.6930 -0.5528  0.6915
15956TIP3    H169359   3.341   5.851  11.306 -1.2552 -1.8091  0.8609
15956TIP3    H269360   3.217   5.937  11.304  0.4939  0.7498  0.5708
15957TIP3   OH269361   2.210   5.215   1.315 -0.3885 -0.1700 -0.0524
15957TIP3    H169362   2.258   5.220   1.232 -0.5854  0.2381 -0.1389
15957TIP3    H269363   2.152   5.140   1.305 -0.2645 -0.2453 -0.2060
15958TIP3   OH269364   0.302   5.284   0.646 -0.1417  0.5511  0.4656
15958TIP3    H169365   0.257   5.336   0.712 -0.1764 -0.3969  1.1880
15958TIP3    H269366   0.307   5.196   0.683  1.6849  0.4780  0.0969
15959TIP3   OH269367   5.231   1.180  11.959 -0.4213 -0.2540  0.4436
15959TIP3    H169368   5.196   1.091  11.956  0.5009 -0.7097  2.0310
15959TIP3    H269369   5.325   1.169  11.946 -0.0684  0.2789  2.3340
15960TIP3   OH269370   6.405   2.109  13.452  0.2610  0.0374 -0.0157
15960TIP3    H169371   6.359   2.095  13.370  1.0286 -1.6414 -0.1810
15960TIP3    H269372   6.370   2.042  13.511 -0.4694  1.3866  1.1108
15961TIP3   OH269373   5.998   0.674  17.058  0.6723  0.7440 -0.0009
15961TIP3    H169374   6.083   0.688  17.017  0.5675  0.8366 -0.1866
15961TIP3    H269375   6.011   0.599  17.116  0.2978 -0.7151 -1.7500
15962TIP3   OH269376   5.613   2.698   4.522  0.1699 -0.2285  0.1573
15962TIP3    H169377   5.632   2.610   4.490  0.2230  0.1712 -0.9416
15962TIP3    H269378   5.699   2.735   4.542 -0.0383 -1.5936  3.8648
15963TIP3   OH269379   5.817   5.023   5.742  0.1884 -0.1914  0.5273
15963TIP3    H169380   5.861   4.938   5.734  0.9251  0.4112 -2.6021
15963TIP3    H269381   5.881   5.080   5.784  0.3691 -0.7011  0.9566
15964TIP3   OH269382   4.045   0.263  16.982 -0.0198 -0.4019  0.5396
15964TIP3    H169383   4.105   0.294  17.050 -0.2758 -0.8878  0.9836
15964TIP3    H269384   4.014   0.178  17.013 -0.3752 -0.4874 -0.0363
15965TIP3   OH269385   4.040   3.219  13.920  0.2144 -0.3305  0.2256
15965TIP3    H169386   4.005   3.210  14.009  0.1157  2.3471  0.4964
15965TIP3    H269387   3.965   3.199  13.863 -0.4201  0.4836  0.7649
15966TIP3   OH269388   3.454   2.371  11.337  0.2126  0.6768  0.2365
15966TIP3    H169389   3.547   2.368  11.314  0.2438 -0.7124  0.4943
15966TIP3    H269390   3.409   2.361  11.253  0.2972  0.9160  0.1620
15967TIP3   OH269391   0.458   2.587  12.527  0.1195  1.0813 -0.2307
15967TIP3    H169392   0.544   2.555  12.498 -0.2364  0.0720 -0.1759
15967TIP3    H269393   0.399   2.513  12.513 -0.5326  1.4022  0.7807
15968TIP3   OH269394   6.259   5.222   0.933  0.0050  0.6681 -0.3020
15968TIP3    H169395   6.187   5.166   0.903  1.6161 -1.0958 -0.9250
15968TIP3    H269396   6.241   5.234   1.027  0.2195 -1.8389  0.1035
15969TIP3   OH269397   4.738   4.968   4.171  0.7305 -0.2789  0.3254
15969TIP3    H169398   4.799   4.944   4.241  4.2101  1.8711 -1.7845
15969TIP3    H269399   4.682   5.035   4.209  3.0816  1.4122  0.8865
15970TIP3   OH269400   1.836   2.786   1.093  0.7714  0.4053 -0.4765
15970TIP3    H169401   1.789   2.848   1.149  1.3616 -1.5542  2.2545
15970TIP3    H269402   1.922   2.825   1.081  0.0358  1.7339 -1.6208
15971TIP3   OH269403   4.597   0.904   4.675  0.1108 -0.5921 -0.2376
15971TIP3    H169404   4.513   0.947   4.656  0.5255  0.4316  0.1968
15971TIP3    H269405   4.588   0.877   4.767  0.9505  1.2256  0.4197
15972TIP3   OH269406   6.173   0.880  13.861  0.3794  0.0371 -0.0298
15972TIP3    H169407   6.078   0.891  13.855  0.5023  0.5645 -1.1219
15972TIP3    H269408   6.207   0.921  13.782  1.5877  0.6707  0.7926
15973TIP3   OH269409   0.451   2.801  13.783  0.0045 -0.1681  1.0045
15973TIP3    H169410   0.422   2.851  13.860  1.1457 -1.1037  2.0684
15973TIP3    H269411   0.384   2.733  13.772  1.3139 -1.8773  3.0221
15974TIP3   OH269412   5.359   4.562   1.143 -0.1156 -0.1624  0.3767
15974TIP3    H169413   5.438   4.559   1.197  0.3780  0.0436 -0.3195
15974TIP3    H269414   5.381   4.510   1.066  0.1134  1.6373 -0.8135
15975TIP3   OH269415   6.223   2.918  17.125 -0.7472 -0.3747  0.1616
15975TIP3    H169416   6.300   2.932  17.070 -0.3829 -3.8322 -0.3259
15975TIP3    H269417   6.258   2.884  17.207 -1.6660 -0.5845  0.4735
15976TIP3   OH269418   2.743   3.700   3.370  0.5780 -0.0086 -0.2288
15976TIP3    H169419   2.810   3.720   3.304  1.8377 -1.5963  0.5293
15976TIP3    H269420   2.774   3.620   3.412 -1.6835 -0.6297  0.3233
15977TIP3   OH269421   4.864   3.715  14.417  0.2490 -0.2188 -0.2969
15977TIP3    H169422   4.886   3.643  14.357  0.3750 -2.0323  1.8858
15977TIP3    H269423   4.848   3.673  14.501  1.1808  2.3830  1.2597
15978TIP3   OH269424   0.292   4.988   5.479 -0.1029  0.4863  0.0317
15978TIP3    H169425   0.376   4.987   5.524  0.6928 -0.3870 -1.4405
15978TIP3    H269426   0.311   5.029   5.394 -0.8549 -0.9992 -0.8740
15979TIP3   OH269427   5.143   5.854  16.431 -0.2410  0.3559 -0.0004
15979TIP3    H169428   5.057   5.813  16.421 -0.4436  0.2618  1.8847
15979TIP3    H269429   5.200   5.783  16.461 -0.2053  1.0500  1.6271
15980TIP3   OH269430   4.786   2.438   5.207  0.0563  0.3025  0.3814
15980TIP3    H169431   4.721   2.404   5.145  0.1116  1.1177 -0.1312
15980TIP3    H269432   4.858   2.374   5.203  0.5869  0.9679 -1.3157
15981TIP3   OH269433   1.985   3.221   0.872  0.2271 -0.0723 -0.1516
15981TIP3    H169434   2.077   3.194   0.868  0.6311  0.5249  3.5661
15981TIP3    H269435   1.983   3.292   0.935 -2.9062 -0.6065  0.4539
15982TIP3   OH269436   4.121   4.097  16.318 -0.3737 -0.5802 -0.2603
15982TIP3    H169437   4.186   4.117  16.251  1.4533 -1.0439  1.3331
15982TIP3    H269438   4.044   4.147  16.291  1.8039  3.0175 -0.2266
15983TIP3   OH269439   1.353   2.095   4.860  0.4566  0.1223 -0.1377
15983TIP3    H169440   1.377   2.037   4.933 -1.7138 -2.0299 -1.0900
15983TIP3    H269441   1.268   2.132   4.886  0.0728 -0.0040 -1.1854
15984TIP3   OH269442   1.765   0.796  11.831  0.4076 -0.1423 -0.3208
15984TIP3    H169443   1.754   0.702  11.820  2.1986 -0.2733 -1.0992
15984TIP3    H269444   1.695   0.835  11.778 -0.5143 -1.0117  0.2296
15985TIP3   OH269445   3.748   5.172  14.333  0.2435  0.2203 -0.0926
15985TIP3    H169446   3.757   5.226  14.255 -2.2114  1.9405  0.7386
15985TIP3    H269447   3.668   5.121  14.317 -0.4202  0.7755  1.3978
15986TIP3   OH269448   2.042   0.656   1.529  0.6942 -0.2854 -0.2211
15986TIP3    H169449   1.959   0.609   1.541  1.4133 -1.4517  0.2823
15986TIP3    H269450   2.061   0.649   1.436  0.2795 -0.0999 -0.3215
15987TIP3   OH269451   6.206   0.842   1.017 -0.0581 -0.4192  0.0052
15987TIP3    H169452   6.155   0.768   0.985  1.1921 -0.5005 -1.8412
15987TIP3    H269453   6.234   0.888   0.938 -1.8005  2.7187  1.1402
15988TIP3   OH269454   6.061   4.040   0.262 -0.6056  0.0814  0.1611
15988TIP3    H169455   6.146   4.061   0.224 -0.6290  0.5461  0.3626
15988TIP3    H269456   6.057   4.093   0.342 -1.4632  0.7484 -0.3174
15989TIP3   OH269457   5.602   5.883   4.993  1.0971  0.1203  0.4226
15989TIP3    H169458   5.533   5.844   4.939  0.4729  1.0955  0.5049
15989TIP3    H269459   5.560   5.898   5.078  2.1423 -1.6609  1.2909
15990TIP3   OH269460   1.748   6.019   1.448  0.3840 -0.1221  0.7584
15990TIP3    H169461   1.781   6.089   1.392 -2.1981 -0.2147 -0.9918
15990TIP3    H269462   1.824   5.990   1.498  2.2573  1.5618 -1.0141
15991TIP3   OH269463   4.724   1.475  11.662  0.1594  0.1284 -0.0453
15991TIP3    H169464   4.643   1.492  11.709 -1.4916 -3.3349 -1.4516
15991TIP3    H269465   4.731   1.547  11.599 -2.0043  0.3115 -0.1153
15992TIP3   OH269466   3.909   6.022  14.267 -0.0573  0.2682 -0.4850
15992TIP3    H169467   3.952   6.083  14.327 -0.5255  1.1575 -1.0536
15992TIP3    H269468   3.910   5.938  14.313  1.1097  0.5763  0.0564
15993TIP3   OH269469   4.652   3.391   1.219  0.3097 -0.7169  0.1645
15993TIP3    H169470   4.557   3.383   1.215  0.3989 -2.1123  0.8162
15993TIP3    H269471   4.684   3.341   1.144  0.5068  0.5314 -0.6086
15994TIP3   OH269472   4.437   5.529  10.879 -0.3079  0.4132 -0.8971
15994TIP3    H169473   4.531   5.542  10.872 -0.2026  0.6607  0.7526
15994TIP3    H269474   4.423   5.438  10.852  0.1479  0.9516 -3.0311
15995TIP3   OH269475   2.820   4.611   0.426 -0.1909 -0.5359 -0.3129
15995TIP3    H169476   2.861   4.539   0.474 -0.9804 -0.7643  0.0320
15995TIP3    H269477   2.888   4.643   0.367 -0.0046 -1.9498 -0.8832
15996TIP3   OH269478   2.209   6.248  12.315 -0.1717  0.5067 -0.1113
15996TIP3    H169479   2.160   6.167  12.331 -0.1981  0.2737 -1.3165
15996TIP3    H269480   2.283   6.242  12.375 -1.3814  0.6788  1.4529
15997TIP3   OH269481   2.609   6.190  13.127  1.0595 -0.2413  0.1636
15997TIP3    H169482   2.684   6.151  13.082  1.2262  0.4481 -0.1608
15997TIP3    H269483   2.615   6.284  13.108 -0.1970 -0.2523 -0.3445
15998TIP3   OH269484   1.082   0.023   4.376 -0.3633  0.5460  0.0945
15998TIP3    H169485   1.088   0.005   4.470 -0.8981  0.7504  0.1720
15998TIP3    H269486   1.018   0.094   4.369 -0.4460  0.4239 -0.4340
15999TIP3   OH269487   0.199   4.963  12.025 -0.4533 -0.0826 -0.3986
15999TIP3    H169488   0.266   4.940  12.090 -1.3389 -0.6554  0.3161
15999TIP3    H269489   0.209   4.895  11.957  0.7580  0.7640 -1.0966
16000TIP3   OH269490   5.324   0.656   3.053 -0.1166 -0.5576  0.2103
16000TIP3    H169491   5.315   0.729   2.992  0.4211  0.0103  0.8056
16000TIP3    H269492   5.371   0.589   3.003  2.0184  0.6187  0.5731
16001TIP3   OH269493   1.900   1.620  11.511  0.2271 -0.5699 -0.1935
16001TIP3    H169494   1.849   1.544  11.539  0.4659 -0.5965  0.1815
16001TIP3    H269495   1.956   1.586  11.440 -0.9918 -0.2978 -1.2992
16002TIP3   OH269496   6.410   4.609   0.375  0.4112 -0.1799 -0.1764
16002TIP3    H169497   6.357   4.531   0.361 -0.8700  0.6843 -0.2557
16002TIP3    H269498   6.417   4.618   0.470 -2.5711  1.6517 -0.0852
16003TIP3   OH269499   5.067   5.702   1.574  0.4660  0.5678  0.7522
16003TIP3    H169500   5.015   5.776   1.605  0.3508  0.5049  0.7097
16003TIP3    H269501   5.036   5.686   1.485 -0.9325 -0.8128  1.4523
16004TIP3   OH269502   5.515   5.676  14.034 -0.2291 -0.3212 -0.9660
16004TIP3    H169503   5.436   5.698  14.084  0.1496 -1.3672  0.1249
16004TIP3    H269504   5.546   5.594  14.073  1.5189  0.1866 -1.2293
16005TIP3   OH269505   1.097   2.530   4.428 -0.0809 -0.3497  0.1797
16005TIP3    H169506   1.160   2.506   4.495  1.5047 -1.0807 -1.5399
16005TIP3    H269507   1.128   2.615   4.396 -0.9570  0.1003  0.5080
16006TIP3   OH269508   0.345   1.046  14.412 -0.1277 -0.4616 -0.0730
16006TIP3    H169509   0.358   1.039  14.317 -0.9202 -1.9369 -0.0954
16006TIP3    H269510   0.250   1.052  14.422 -0.0532 -0.5026  0.6399
16007TIP3   OH269511   5.183   6.805   1.973 -0.0917 -0.0035 -0.0217
16007TIP3    H169512   5.278   6.805   1.979 -0.1686 -0.1233  1.5303
16007TIP3    H269513   5.162   6.729   1.919  0.6633 -0.4652  0.3314
16008TIP3   OH269514   3.345   3.260  13.368  0.9859 -0.3545 -0.0305
16008TIP3    H169515   3.257   3.252  13.405  1.3590  0.6295  1.1268
16008TIP3    H269516   3.368   3.171  13.343 -0.8420 -0.4317 -1.5589
16009TIP3   OH269517   2.063   0.245  12.193  0.0307  0.3948 -0.0070
16009TIP3    H169518   1.985   0.201  12.225  0.1519  0.5860  0.5550
16009TIP3    H269519   2.128   0.175  12.183  0.7841  0.6576  2.5826
16010TIP3   OH269520   5.333   2.042   5.270  0.2448 -0.1750  0.0222
16010TIP3    H169521   5.401   1.990   5.228  0.6541  0.5989 -0.2893
16010TIP3    H269522   5.367   2.132   5.268 -0.1071 -0.0022  1.2330
16011TIP3   OH269523   5.406   3.933   3.160 -0.7628  0.5945 -0.2463
16011TIP3    H169524   5.361   3.975   3.087  0.1940  3.5726  0.8017
16011TIP3    H269525   5.382   3.985   3.237  0.9360 -0.4237  1.0136
16012TIP3   OH269526   3.793   5.140   1.992  0.2896  0.3118  0.1348
16012TIP3    H169527   3.705   5.164   1.964  0.5390 -0.7444 -1.6452
16012TIP3    H269528   3.819   5.209   2.053 -0.7461  2.0668 -1.3720
16013TIP3   OH269529   5.328   5.900  15.080  0.3283 -0.5082  0.6799
16013TIP3    H169530   5.416   5.923  15.049 -0.3018  0.3853 -0.4671
16013TIP3    H269531   5.277   5.980  15.070 -1.0177 -1.4453 -0.0783
16014TIP3   OH269532   1.167   1.684   0.455  0.0346  0.6376 -0.3920
16014TIP3    H169533   1.101   1.615   0.445 -0.5725  1.4859 -2.5607
16014TIP3    H269534   1.143   1.729   0.535 -1.4349  0.2979 -0.6346
16015TIP3   OH269535   0.338   5.968   3.475 -0.0527 -0.2227 -0.1717
16015TIP3    H169536   0.361   5.963   3.382  0.5705  0.5692 -0.0640
16015TIP3    H269537   0.405   5.915   3.519 -0.0054 -0.1148 -0.1142
16016TIP3   OH269538   5.239   1.334   2.445  0.0819 -0.1868 -0.0383
16016TIP3    H169539   5.290   1.414   2.452 -1.0543  0.5145  0.4536
16016TIP3    H269540   5.274   1.289   2.368  0.2044  1.1735 -0.8022
16017TIP3   OH269541   4.131   3.121   3.104  1.0282 -0.6014 -0.2864
16017TIP3    H169542   4.168   3.080   3.182 -2.4960 -0.7210  1.4469
16017TIP3    H269543   4.135   3.054   3.036  2.8994 -0.9513  0.1690
16018TIP3   OH269544   4.316   0.139   4.518  0.0923 -0.1050 -0.3383
16018TIP3    H169545   4.332   0.054   4.558  2.4866  0.3292 -0.2896
16018TIP3    H269546   4.365   0.201   4.571 -0.4928  1.1245 -1.1927
16019TIP3   OH269547   1.920   2.881  14.592  0.3510  0.1239 -0.3171
16019TIP3    H169548   1.992   2.862  14.532 -0.3883 -1.2747 -0.7749
16019TIP3    H269549   1.853   2.815  14.572 -1.3800  1.8643 -0.4202
16020TIP3   OH269550   1.547   3.760  11.821 -0.4230 -0.0585 -0.1617
16020TIP3    H169551   1.544   3.677  11.775  1.2571  0.4433 -1.2127
16020TIP3    H269552   1.514   3.740  11.909  1.6939 -2.2346  0.1879
16021TIP3   OH269553   5.038   0.676  16.352 -0.2153  0.2518  0.0201
16021TIP3    H169554   4.946   0.697  16.338  0.0148 -0.1401 -2.4317
16021TIP3    H269555   5.050   0.590  16.312  1.3637  0.6136 -0.3558
16022TIP3   OH269556   6.251   4.572   6.098  0.4027  0.0952 -0.1235
16022TIP3    H169557   6.227   4.621   6.019  0.7691  1.1147  0.3958
16022TIP3    H269558   6.173   4.576   6.153 -0.1738 -1.3930 -0.8011
16023TIP3   OH269559   4.684   0.304  14.250 -0.0686 -0.0072 -0.0753
16023TIP3    H169560   4.743   0.250  14.197  1.6448  1.0775  0.6879
16023TIP3    H269561   4.665   0.249  14.327 -0.3484 -0.4962 -0.4903
16024TIP3   OH269562   4.113   6.281  12.458  0.1096 -0.3745  0.2312
16024TIP3    H169563   4.198   6.308  12.493  0.4156 -0.3254 -0.5400
16024TIP3    H269564   4.134   6.219  12.388 -0.4874 -0.3601  0.0305
16025TIP3   OH269565   0.009   4.656   2.634 -0.3669 -0.6004 -0.1755
16025TIP3    H169566   0.046   4.681   2.719 -2.4223  1.5223  0.1672
16025TIP3    H269567  -0.070   4.606   2.656 -0.8629 -0.1116 -0.8125
16026TIP3   OH269568   2.079   4.560   0.645  0.2541  0.2420 -0.4296
16026TIP3    H169569   2.046   4.566   0.555 -2.1874 -1.4930  0.2917
16026TIP3    H269570   2.133   4.481   0.645  1.0417  0.7755 -0.5921
16027TIP3   OH269571   3.832   5.694   2.244 -0.3129 -0.5817  0.4296
16027TIP3    H169572   3.815   5.638   2.168  0.4775 -0.5476  0.2264
16027TIP3    H269573   3.749   5.694   2.293 -0.9966 -0.1729 -0.7083
16028TIP3   OH269574   0.137   1.812   2.989  0.2231 -0.3536 -0.1729
16028TIP3    H169575   0.103   1.738   3.040 -1.1082  0.2243 -0.2068
16028TIP3    H269576   0.127   1.785   2.898 -0.3262 -0.1187 -0.1871
16029TIP3   OH269577   0.116   2.248  14.105 -0.5008 -0.0551 -0.4791
16029TIP3    H169578   0.119   2.325  14.162  0.7861 -0.1067 -0.4487
16029TIP3    H269579   0.060   2.274  14.032  0.4084  1.1463 -0.7733
16030TIP3   OH269580   5.641   5.824   0.426  0.2920  0.2593 -0.6038
16030TIP3    H169581   5.605   5.752   0.374 -0.6555  1.7873 -2.1216
16030TIP3    H269582   5.587   5.824   0.505 -2.2601  1.6545 -2.2591
16031TIP3   OH269583   2.782   1.752   6.108  0.1716  0.1126  0.1020
16031TIP3    H169584   2.773   1.819   6.175 -2.1906  0.5964 -0.6589
16031TIP3    H269585   2.719   1.685   6.132 -0.2314 -0.0165 -1.2732
16032TIP3   OH269586   4.530   0.949   5.352  0.6505 -0.0371 -0.1715
16032TIP3    H169587   4.626   0.952   5.347  0.7233  2.4378  1.6700
16032TIP3    H269588   4.511   0.966   5.444 -1.6271  0.5344 -0.7242
16033TIP3   OH269589   5.550   6.241   2.193 -0.3537  0.3688 -0.1907
16033TIP3    H169590   5.539   6.147   2.209 -0.7635  0.9157  3.1641
16033TIP3    H269591   5.644   6.254   2.189 -0.2368  0.0574  1.2153
16034TIP3   OH269592   5.873   3.289  12.019 -0.8560  0.2049 -0.1825
16034TIP3    H169593   5.894   3.380  11.999 -2.2924  0.5450 -0.1759
16034TIP3    H269594   5.792   3.293  12.069 -1.5887 -1.1461 -1.2258
16035TIP3   OH269595   4.151   1.965   2.314  0.2159  0.2584  0.2908
16035TIP3    H169596   4.239   1.940   2.344  0.1120  0.8824  1.1179
16035TIP3    H269597   4.131   2.045   2.363 -1.3655 -0.6129  1.0893
16036TIP3   OH269598   3.563   1.450  14.023 -0.2398  0.4617 -0.1188
16036TIP3    H169599   3.505   1.402  13.964  1.0577  0.9231 -1.7967
16036TIP3    H269600   3.509   1.520  14.059 -1.6092 -1.0565  0.8530
16037TIP3   OH269601   5.342   6.636   4.963  0.1593 -0.0171 -0.1616
16037TIP3    H169602   5.265   6.678   5.000  0.1194  0.1201 -0.4033
16037TIP3    H269603   5.377   6.700   4.900  2.1806  1.1842  2.0881
16038TIP3   OH269604   4.331   1.845  16.019  0.9679  0.2935 -0.3396
16038TIP3    H169605   4.253   1.824  16.070  0.9811  1.1590  0.0541
16038TIP3    H269606   4.298   1.902  15.948  1.3955  1.5475  0.4582
16039TIP3   OH269607   3.834   3.469   3.993 -0.4060 -0.4405 -0.1876
16039TIP3    H169608   3.881   3.397   3.951  1.1431  0.0568  0.6596
16039TIP3    H269609   3.850   3.456   4.087  0.3069  1.3053 -0.0645
16040TIP3   OH269610   3.068   6.431   3.141  0.0170  0.0272 -0.1993
16040TIP3    H169611   3.111   6.395   3.218  1.6426 -1.2088 -1.6501
16040TIP3    H269612   2.983   6.387   3.139 -0.0458  0.0891  0.9027
16041TIP3   OH269613   0.740   1.897   4.657 -0.8301  0.3276  0.5671
16041TIP3    H169614   0.706   1.809   4.675 -0.0514  0.1547  1.2213
16041TIP3    H269615   0.670   1.956   4.683 -1.1355 -0.0782  0.6666
16042TIP3   OH269616   3.744   2.898   4.930  0.3176 -0.8068  0.4320
16042TIP3    H169617   3.804   2.848   4.985 -0.2890 -0.7849  1.1249
16042TIP3    H269618   3.679   2.933   4.991  0.0841 -0.1303 -0.1979
16043TIP3   OH269619   5.657   1.680  13.853 -0.4646 -0.4581 -0.5667
16043TIP3    H169620   5.750   1.664  13.833 -0.2040  0.7646 -0.3381
16043TIP3    H269621   5.613   1.666  13.769 -0.2783 -2.4962 -0.3641
16044TIP3   OH269622   6.461   5.415  12.420  0.3318  0.7784  0.0397
16044TIP3    H169623   6.382   5.371  12.451  0.0384  1.0216 -0.3594
16044TIP3    H269624   6.432   5.464  12.342  0.7117  1.4634  0.3299
16045TIP3   OH269625   2.435   3.905  16.984  0.7834 -0.4135 -0.3102
16045TIP3    H169626   2.440   3.984  16.931  0.1030 -1.3013 -1.7485
16045TIP3    H269627   2.341   3.886  16.989  0.8639 -0.4440  1.0504
16046TIP3   OH269628   2.711   0.059  11.238 -0.2501  0.4797  0.5345
16046TIP3    H169629   2.624   0.096  11.252 -0.1587  0.5132  1.0310
16046TIP3    H269630   2.757   0.126  11.186 -0.6054  0.3400  0.0325
16047TIP3   OH269631   1.671   1.802   5.165 -0.1259  0.0504 -0.5989
16047TIP3    H169632   1.719   1.719   5.162  0.2448  0.2266  0.2188
16047TIP3    H269633   1.636   1.806   5.254  1.5916  1.7309  0.0505
16048TIP3   OH269634   3.616   1.608  16.268  0.9245 -0.6352  0.3516
16048TIP3    H169635   3.567   1.667  16.210 -1.2850 -2.6405  0.0954
16048TIP3    H269636   3.657   1.545  16.208  0.1796 -1.5849  0.8330
16049TIP3   OH269637   2.806   3.804   1.911 -0.0587 -0.4529 -0.0550
16049TIP3    H169638   2.774   3.861   1.840 -0.6012 -1.5741 -0.7297
16049TIP3    H269639   2.735   3.741   1.924  0.7207 -1.2371  0.3940
16050TIP3   OH269640   3.721   5.933   4.639 -0.5041 -0.2869 -0.0766
16050TIP3    H169641   3.731   6.024   4.609  1.8000  0.4723  2.7627
16050TIP3    H269642   3.810   5.897   4.638 -1.2021 -2.0608  0.1914
16051TIP3   OH269643   0.551   0.068   4.805  0.4377  0.2798  0.0372
16051TIP3    H169644   0.638   0.054   4.769  0.5227  1.9534 -0.4746
16051TIP3    H269645   0.566   0.083   4.899  0.7924  1.2226 -0.1589
16052TIP3   OH269646   1.853   0.688  11.464  0.0539  0.4884  0.3379
16052TIP3    H169647   1.847   0.625  11.536 -1.6567  1.8811  1.4491
16052TIP3    H269648   1.912   0.646  11.400 -1.7275 -2.6080  0.6509
16053TIP3   OH269649   6.041   1.512   4.374 -0.4102  0.0530 -0.2880
16053TIP3    H169650   6.109   1.483   4.314 -0.0179  0.2559  0.0583
16053TIP3    H269651   5.964   1.461   4.349 -0.7950  1.5080 -2.2475
16054TIP3   OH269652   0.952   0.456  14.857 -0.2565  0.0144  0.3954
16054TIP3    H169653   0.917   0.408  14.783  2.3179  0.5592 -1.2424
16054TIP3    H269654   0.890   0.528  14.870 -0.2004  0.5252 -1.9279
16055TIP3   OH269655   2.336   0.722  14.180 -0.0599 -0.1566 -0.2364
16055TIP3    H169656   2.308   0.777  14.106 -1.0748 -1.8374 -1.1279
16055TIP3    H269657   2.271   0.652  14.184  0.8522 -0.9430  1.3023
16056TIP3   OH269658   4.291   2.503  12.578  0.7919  0.1087  0.4930
16056TIP3    H169659   4.354   2.557  12.529 -0.1977  1.1098  0.3014
16056TIP3    H269660   4.292   2.418  12.533  1.4859  0.3388  0.0652
16057TIP3   OH269661   2.588   3.492  10.647 -0.7765 -0.3871  1.0358
16057TIP3    H169662   2.571   3.501  10.554 -1.2078  0.3517  1.1830
16057TIP3    H269663   2.512   3.446  10.681 -2.3920  2.5607  1.6237
16058TIP3   OH269664   2.635   4.764   0.697  0.1450  0.4345 -0.4521
16058TIP3    H169665   2.690   4.688   0.711 -1.8048 -0.7898  0.8667
16058TIP3    H269666   2.634   4.809   0.782 -0.1960  0.9025 -0.7014
16059TIP3   OH269667   3.263   2.673   1.389 -0.5902  0.2059  0.0256
16059TIP3    H169668   3.249   2.685   1.483  2.3763 -0.1240  0.5630
16059TIP3    H269669   3.305   2.754   1.361 -0.8159  0.0101 -0.8794
16060TIP3   OH269670   5.901   4.752   3.647  0.3241  0.1994  0.4560
16060TIP3    H169671   5.997   4.748   3.651  0.3747 -0.0631 -0.8086
16060TIP3    H269672   5.877   4.689   3.579 -0.6720  0.9936  0.0532
16061TIP3   OH269673   6.485   4.514  12.281  0.6447 -0.4173 -0.5493
16061TIP3    H169674   6.401   4.537  12.321  0.3442 -1.0306 -0.8363
16061TIP3    H269675   6.533   4.597  12.278 -0.8047  0.3984 -2.4550
16062TIP3   OH269676   6.597   1.229   5.236  0.4858  0.0968  0.1896
16062TIP3    H169677   6.685   1.192   5.228  0.2181 -0.6003  0.4466
16062TIP3    H269678   6.574   1.217   5.328 -1.3927 -3.2379 -0.6347
16063TIP3   OH269679   2.451   3.445  11.111  0.1297 -0.1495 -0.1962
16063TIP3    H169680   2.437   3.496  11.032 -1.7248 -0.4959 -0.1119
16063TIP3    H269681   2.530   3.394  11.093 -0.3398 -0.3177 -1.8840
16064TIP3   OH269682   4.853   1.431   5.433 -0.4880  0.1253  0.0169
16064TIP3    H169683   4.865   1.500   5.498 -1.9826 -0.9575  1.4806
16064TIP3    H269684   4.821   1.477   5.355  1.0069  1.3887  0.1277
16065TIP3   OH269685   0.083   2.714  16.333 -0.4442  0.1158  0.4328
16065TIP3    H169686   0.123   2.654  16.270 -1.4721 -0.2461  0.1021
16065TIP3    H269687  -0.010   2.715  16.309 -0.8578 -0.0284  1.9278
16066TIP3   OH269688   1.002   0.701  14.657 -0.6387 -0.3414 -0.3207
16066TIP3    H169689   0.925   0.751  14.630  0.4997  0.4552 -2.1870
16066TIP3    H269690   0.996   0.618  14.610 -0.8001 -0.6379  0.2134
16067TIP3   OH269691   2.924   2.317  14.800  0.1228  0.1285 -0.1679
16067TIP3    H169692   2.880   2.309  14.715 -0.5895  0.5459  0.1515
16067TIP3    H269693   2.944   2.227  14.826 -0.1395 -0.0342 -0.5325
16068TIP3   OH269694   3.843   1.319  13.266  0.2927  0.2651 -0.3514
16068TIP3    H169695   3.919   1.371  13.292 -0.7891  1.3564  0.6940
16068TIP3    H269696   3.768   1.372  13.291 -0.8394 -1.4533 -0.0262
16069TIP3   OH269697   4.739   3.986   2.246  0.3302 -0.3098 -0.1763
16069TIP3    H169698   4.770   3.900   2.219  1.0365  0.2115 -1.0788
16069TIP3    H269699   4.797   4.047   2.201 -1.2472  0.6612 -0.9310
16070TIP3   OH269700   3.582   1.481   0.617 -0.4344 -0.5802 -0.1496
16070TIP3    H169701   3.494   1.518   0.605  0.4135  1.6649  0.4953
16070TIP3    H269702   3.579   1.442   0.705 -0.3386  0.7801  0.4647
16071TIP3   OH269703   1.403   2.496  13.630  0.3596  0.2149  0.7991
16071TIP3    H169704   1.456   2.452  13.564  1.1414 -0.1493  1.6616
16071TIP3    H269705   1.377   2.578  13.588  0.3495 -0.2724 -0.1759
16072TIP3   OH269706   2.615   4.322  16.807  0.0350  0.0538  0.5430
16072TIP3    H169707   2.676   4.382  16.849  2.6596 -1.2367 -1.2687
16072TIP3    H269708   2.630   4.334  16.713 -1.1168 -1.6822  0.0987
16073TIP3   OH269709   3.622   5.441  15.327 -0.2163 -0.2929 -0.4767
16073TIP3    H169710   3.688   5.456  15.260 -0.2040 -3.2256 -1.1919
16073TIP3    H269711   3.666   5.460  15.409  0.6704  0.4515 -1.1199
16074TIP3   OH269712   3.317   4.392   5.366  0.1080 -0.0037 -0.4591
16074TIP3    H169713   3.382   4.323   5.371 -1.8557 -1.7469  2.6756
16074TIP3    H269714   3.273   4.377   5.282  2.1681 -0.1903 -1.5385
16075TIP3   OH269715   5.432   4.486   3.899 -0.2675  0.5800  0.0123
16075TIP3    H169716   5.356   4.500   3.956  0.3587  1.0013  0.7529
16075TIP3    H269717   5.471   4.572   3.889  1.3017  0.0410  1.3276
16076TIP3   OH269718   3.660   6.464   0.029 -0.4981  0.4421  0.0194
16076TIP3    H169719   3.711   6.539  -0.003 -2.1465  1.7137  0.2630
16076TIP3    H269720   3.693   6.389  -0.021 -0.1102  1.6575 -1.6068
16077TIP3   OH269721   4.992   5.802  10.555  0.3869  0.3729  0.1708
16077TIP3    H169722   5.018   5.892  10.573  1.4197 -0.2142  1.6142
16077TIP3    H269723   4.933   5.779  10.626 -0.3894  0.1049 -0.5425
16078TIP3   OH269724   1.144   4.791  12.426  0.1782  0.0884  0.2022
16078TIP3    H169725   1.228   4.835  12.442  0.4938  0.1817 -1.5444
16078TIP3    H269726   1.113   4.831  12.345 -1.0143 -0.7593  0.2471
16079TIP3   OH269727   3.486   2.998   1.050  0.0494  0.0209  0.0178
16079TIP3    H169728   3.424   2.975   0.980  0.4857 -1.0310 -0.0336
16079TIP3    H269729   3.536   3.071   1.014 -0.0130 -0.2389 -0.5999
16080TIP3   OH269730   4.685   5.782   0.994  0.4048 -0.1019  0.5341
16080TIP3    H169731   4.707   5.739   1.076  0.9239 -0.0061  0.4443
16080TIP3    H269732   4.656   5.711   0.936  2.6651 -0.5365 -0.0979
16081TIP3   OH269733   0.701   3.070   0.354 -0.1760 -0.1350 -0.5617
16081TIP3    H169734   0.732   3.153   0.392  0.8256 -0.6595 -0.2205
16081TIP3    H269735   0.631   3.042   0.413 -1.0076  0.8264 -1.0802
16082TIP3   OH269736   1.537   0.267   4.048  0.7338  0.7635  0.1168
16082TIP3    H169737   1.547   0.172   4.053  0.4644  0.5801 -2.0411
16082TIP3    H269738   1.624   0.299   4.029  0.8127  0.9483  0.7845
16083TIP3   OH269739   2.281   6.521  16.145 -0.2752  0.0404 -0.0289
16083TIP3    H169740   2.294   6.571  16.065 -1.6136  0.9826  0.3126
16083TIP3    H269741   2.335   6.567  16.210 -1.7175  1.2527  0.3493
16084TIP3   OH269742   2.815   2.057   1.499 -0.1179 -0.6187 -0.0489
16084TIP3    H169743   2.788   1.989   1.561 -1.7946 -0.0286 -0.0967
16084TIP3    H269744   2.757   2.131   1.517  0.7145  0.2854 -0.9708
16085TIP3   OH269745   0.769   0.274   6.708  0.5538 -0.4888 -0.2038
16085TIP3    H169746   0.860   0.291   6.730  0.4767 -0.6427  0.2341
16085TIP3    H269747   0.735   0.225   6.783  0.5517 -1.8261 -1.0564
16086TIP3   OH269748   3.467   5.932   4.209  0.1747  0.1779  0.0755
16086TIP3    H169749   3.448   5.992   4.281 -0.7665  0.5262 -0.4403
16086TIP3    H269750   3.555   5.901   4.225  0.1073  0.5470  1.1714
16087TIP3   OH269751   5.695   1.643   0.985 -0.1600  0.3574 -0.3266
16087TIP3    H169752   5.761   1.577   1.006 -1.1512 -1.2227 -2.0379
16087TIP3    H269753   5.679   1.632   0.891 -2.2132  1.2966 -0.1110
16088TIP3   OH269754   2.267   2.102   0.883  0.2611 -0.5104  0.0236
16088TIP3    H169755   2.195   2.137   0.936  0.3683  1.0763 -0.8476
16088TIP3    H269756   2.308   2.037   0.939 -1.4344 -0.9627  0.7980
16089TIP3   OH269757   4.153   3.244  11.231  0.7564  0.4499  0.3496
16089TIP3    H169758   4.119   3.312  11.289 -2.0955  0.1071 -0.8327
16089TIP3    H269759   4.210   3.290  11.170  2.6616  1.0220  2.5071
16090TIP3   OH269760   6.042   4.520  14.348  0.0510  0.2159  0.8084
16090TIP3    H169761   5.998   4.506  14.265  2.0075 -1.6654  0.0263
16090TIP3    H269762   5.972   4.521  14.413 -1.2754 -0.9768 -0.5618
16091TIP3   OH269763   2.102   2.693  15.828 -0.1038  0.2612  0.4028
16091TIP3    H169764   2.171   2.626  15.825  0.3833  0.7918 -0.3413
16091TIP3    H269765   2.122   2.743  15.907  0.7990  0.8650 -0.1967
16092TIP3   OH269766   6.634   1.096  14.921  0.0285  0.2438  0.5628
16092TIP3    H169767   6.683   1.119  15.000  2.5243 -0.8238 -0.6052
16092TIP3    H269768   6.569   1.033  14.951 -1.4996  2.6036  2.3703
16093TIP3   OH269769   5.384   2.728   1.179 -0.2089  0.2168  0.5027
16093TIP3    H169770   5.471   2.765   1.193  0.2194 -0.0458 -1.3823
16093TIP3    H269771   5.393   2.636   1.203  0.2335  0.0178 -0.4156
16094TIP3   OH269772   1.524   1.948  12.689 -0.1910 -0.2809 -0.3623
16094TIP3    H169773   1.613   1.914  12.676  0.4480  0.9303  0.7757
16094TIP3    H269774   1.519   1.968  12.783 -1.6952 -0.4095 -0.4010
16095TIP3   OH269775   5.160   6.348  12.924 -0.1415  0.0482 -0.2640
16095TIP3    H169776   5.170   6.261  12.887 -0.2377  0.0210 -0.2262
16095TIP3    H269777   5.238   6.360  12.978  0.4627  0.4592 -1.2156
16096TIP3   OH269778   4.396   5.849   0.735 -0.4311 -0.3228  0.3508
16096TIP3    H169779   4.430   5.902   0.807  0.7363 -0.4720 -0.0857
16096TIP3    H269780   4.301   5.854   0.745 -0.3317  1.6593  0.4428
16097TIP3   OH269781   1.327   5.911   2.724 -0.3458  0.0683  0.3346
16097TIP3    H169782   1.391   5.865   2.779  0.9215  0.8448 -0.4660
16097TIP3    H269783   1.309   5.991   2.772  1.2046  1.0215 -0.6209
16098TIP3   OH269784   1.835   4.230   0.529  0.0794  0.2019 -0.5887
16098TIP3    H169785   1.789   4.293   0.474 -0.0337  0.0396 -0.6791
16098TIP3    H269786   1.776   4.155   0.534 -1.1621  1.2907  1.9956
16099TIP3   OH269787   3.182   5.168  17.146  0.6392  0.1669  0.6525
16099TIP3    H169788   3.252   5.108  17.172  1.0557  0.5479  0.4168
16099TIP3    H269789   3.102   5.116  17.153  1.2150 -1.1577 -1.8274
16100TIP3   OH269790   0.463   0.379  15.747  0.6212  0.3968  0.4923
16100TIP3    H169791   0.477   0.399  15.654 -2.6778 -0.5234 -0.3123
16100TIP3    H269792   0.414   0.454  15.780 -0.4521 -0.4136  0.7860
16101TIP3   OH269793   6.329   0.683  14.023  0.7186 -0.2965 -0.1872
16101TIP3    H169794   6.274   0.746  14.071 -0.8823 -0.9314 -1.1795
16101TIP3    H269795   6.358   0.731  13.946  0.5324 -0.3673 -0.3005
16102TIP3   OH269796   1.698   3.585   1.486  0.3730  0.3086 -0.2533
16102TIP3    H169797   1.687   3.566   1.393 -0.1896  0.0535 -0.1393
16102TIP3    H269798   1.680   3.501   1.530  1.9364  0.0992  0.0013
16103TIP3   OH269799   6.112   0.984  14.486  0.7580  0.5459 -0.2147
16103TIP3    H169800   6.080   1.071  14.508  0.5278  0.3614  0.1908
16103TIP3    H269801   6.082   0.929  14.559  2.1588  0.4083  0.2717
16104TIP3   OH269802   5.697   2.803   4.189  0.8852  0.4854  0.0768
16104TIP3    H169803   5.760   2.834   4.123 -0.5033  0.7051 -1.1702
16104TIP3    H269804   5.709   2.864   4.262  1.8442  0.7728 -0.2991
16105TIP3   OH269805   6.609   0.323   6.571  0.2480  0.3539 -0.2068
16105TIP3    H169806   6.703   0.341   6.569  0.6081 -1.4318 -0.5890
16105TIP3    H269807   6.601   0.243   6.624 -0.6288 -1.6957 -3.2741
16106TIP3   OH269808   5.561   2.834   0.293 -0.0135 -0.0881 -0.7672
16106TIP3    H169809   5.520   2.903   0.345  0.9000 -0.2494  0.1900
16106TIP3    H269810   5.539   2.856   0.203 -2.2474 -0.2093 -0.2897
16107TIP3   OH269811   1.100   6.411   2.462  0.7165  0.4395  0.0151
16107TIP3    H169812   1.007   6.413   2.436  0.3366 -0.5835  1.2717
16107TIP3    H269813   1.105   6.342   2.528  2.4220  0.3673 -0.1828
16108TIP3   OH269814   0.753   6.323  13.343 -0.3984 -0.4551 -0.6430
16108TIP3    H169815   0.847   6.330  13.361 -0.4174  0.6902 -0.9508
16108TIP3    H269816   0.744   6.243  13.292  0.2331 -1.3220  0.5987
16109TIP3   OH269817   4.789   6.365  12.561  0.1533 -0.1162  0.6062
16109TIP3    H169818   4.844   6.358  12.639  0.6866 -2.5880  0.0520
16109TIP3    H269819   4.729   6.290  12.566  0.5618 -0.6402 -1.6041
16110TIP3   OH269820   6.542   2.000   4.402  0.2749  0.3567 -0.3370
16110TIP3    H169821   6.465   1.993   4.459  1.3049 -1.7841  0.8400
16110TIP3    H269822   6.518   1.950   4.324  1.0435 -1.6974  0.7114
16111TIP3   OH269823   0.104   3.565   5.109  0.3095  0.0865 -0.2287
16111TIP3    H169824   0.082   3.657   5.097 -2.0322 -0.6061 -1.6110
16111TIP3    H269825   0.146   3.540   5.026 -1.9299 -0.8435 -1.1246
16112TIP3   OH269826   3.107   2.924   3.471 -0.2450 -0.2147 -0.2048
16112TIP3    H169827   3.168   2.853   3.491 -0.0288 -0.2997 -1.1140
16112TIP3    H269828   3.056   2.935   3.550  0.0802 -1.0287  0.1264
16113TIP3   OH269829   1.465   0.682  13.357 -0.0163  0.1162 -0.7343
16113TIP3    H169830   1.408   0.734  13.301 -0.1949  0.3528 -0.3362
16113TIP3    H269831   1.454   0.592  13.326 -1.1645  0.0646 -0.1860
16114TIP3   OH269832   0.746   2.202   4.916  0.1335 -0.7829  0.0580
16114TIP3    H169833   0.806   2.245   4.977 -0.5168 -0.1597  0.2594
16114TIP3    H269834   0.684   2.155   4.972 -1.0684  0.6005 -0.0959
16115TIP3   OH269835   1.558   1.585   4.560  0.3856  0.6699 -0.7745
16115TIP3    H169836   1.573   1.526   4.633 -2.4604 -0.0580 -0.7425
16115TIP3    H269837   1.557   1.673   4.599  1.7793  0.5360 -0.4102
16116TIP3   OH269838   1.497   0.189   3.261 -0.4375  0.2406  0.0441
16116TIP3    H169839   1.476   0.244   3.336  0.8206  1.0757 -0.2034
16116TIP3    H269840   1.480   0.099   3.291  0.7389  0.5100  1.5647
16117TIP3   OH269841   5.172   6.248  16.097  0.3298  0.4006  0.1128
16117TIP3    H169842   5.136   6.186  16.161 -0.0288 -0.1261 -0.5900
16117TIP3    H269843   5.234   6.300  16.147  0.4826 -0.3963  0.7708
16118TIP3   OH269844   3.482   1.025   4.224 -0.1626 -0.3676 -0.6533
16118TIP3    H169845   3.448   0.945   4.182  2.7699 -0.6609 -2.6416
16118TIP3    H269846   3.506   0.997   4.312 -1.1334 -1.1477 -0.6235
16119TIP3   OH269847   0.600   5.995  14.157  0.2164  0.5921 -0.2800
16119TIP3    H169848   0.545   5.918  14.171 -0.0652  0.9346  0.5248
16119TIP3    H269849   0.686   5.970  14.189  0.9986 -0.5342 -3.0915
16120TIP3   OH269850   0.880   1.560   1.140  0.8743 -0.2077  0.0201
16120TIP3    H169851   0.929   1.532   1.062 -0.2455  0.1974 -0.8340
16120TIP3    H269852   0.827   1.633   1.110 -1.4568 -1.6410  0.5322
16121TIP3   OH269853   2.790   0.754   3.609 -0.4370  0.4448  0.0094
16121TIP3    H169854   2.837   0.815   3.552 -0.4699  1.2411  0.8142
16121TIP3    H269855   2.704   0.744   3.567 -0.0405  0.0765 -0.7209
16122TIP3   OH269856   3.847   3.943  11.081 -0.0291  0.2428  0.1821
16122TIP3    H169857   3.800   3.866  11.048 -0.2579  0.1941  0.6331
16122TIP3    H269858   3.788   3.983  11.145 -0.0967  1.0463 -0.3709
16123TIP3   OH269859   2.475   2.172   0.339  0.5925  0.3856  0.3461
16123TIP3    H169860   2.571   2.176   0.334  0.5607  2.1530  0.6031
16123TIP3    H269861   2.448   2.264   0.332 -0.9715  0.1136  2.5883
16124TIP3   OH269862   6.101   5.391  16.383 -0.1838  0.1466  0.0365
16124TIP3    H169863   6.128   5.309  16.342  0.3276  1.4980 -2.3619
16124TIP3    H269864   6.135   5.385  16.472 -1.5326 -2.9339  0.4318
16125TIP3   OH269865   0.721   6.406  12.847  0.0481 -0.3200  0.2163
16125TIP3    H169866   0.687   6.485  12.806  0.1973 -1.4517 -2.2328
16125TIP3    H269867   0.645   6.362  12.884 -0.6701 -1.0027 -1.9804
16126TIP3   OH269868   2.830   4.678  10.709  0.1206 -0.3272 -0.4456
16126TIP3    H169869   2.813   4.772  10.708 -0.6830 -0.4703 -0.2348
16126TIP3    H269870   2.908   4.667  10.655  0.5429  0.5276 -0.0058
16127TIP3   OH269871   1.030   3.987  14.204  0.5991 -0.4682  0.1017
16127TIP3    H169872   0.970   4.019  14.271  1.3749 -0.0508  0.5978
16127TIP3    H269873   0.973   3.959  14.132 -0.2912 -2.0685  1.4183
16128TIP3   OH269874   1.944   1.569  14.635  0.0982  0.2980 -0.1945
16128TIP3    H169875   1.884   1.584  14.563  0.1275  1.3466 -0.0073
16128TIP3    H269876   1.944   1.474  14.647  0.1053  0.1159 -1.5678
16129TIP3   OH269877   0.578   3.438  14.906  0.1421  0.7113  0.2333
16129TIP3    H169878   0.648   3.449  14.970  0.5709  0.6021 -0.2134
16129TIP3    H269879   0.533   3.357  14.933  0.6262  0.4017  0.1101
16130TIP3   OH269880   6.040   5.169   5.921  0.2265 -0.2579  0.8360
16130TIP3    H169881   6.128   5.178   5.883 -0.1552 -0.7977 -0.2099
16130TIP3    H269882   6.000   5.255   5.909  0.0334 -0.4856 -0.1949
16131TIP3   OH269883   4.283   2.085  13.522  0.1815 -0.1728 -0.0649
16131TIP3    H169884   4.364   2.067  13.475  0.8531 -0.9798  1.3801
16131TIP3    H269885   4.294   2.042  13.607 -1.0571  1.1431  0.7888
16132TIP3   OH269886   1.933   1.156  12.529 -0.4688  1.0190 -0.3787
16132TIP3    H169887   1.903   1.164  12.439 -1.5561  1.6530  0.0263
16132TIP3    H269888   1.885   1.081  12.565  0.0214  0.7161 -0.3463
16133TIP3   OH269889   0.062   3.716   4.741 -0.0576  0.0500 -0.1361
16133TIP3    H169890  -0.013   3.702   4.800 -0.2474 -0.2344 -0.4429
16133TIP3    H269891   0.099   3.629   4.728 -1.9497 -0.4240 -2.9863
16134TIP3   OH269892   0.182   5.324  10.733  0.2596 -0.5406  0.2384
16134TIP3    H169893   0.118   5.391  10.754  0.0022 -0.6490 -0.1885
16134TIP3    H269894   0.265   5.358  10.767  0.4213  0.6959 -1.3424
16135TIP3   OH269895   6.450   6.280   2.144  0.0294  0.1493 -0.0703
16135TIP3    H169896   6.484   6.355   2.193 -0.2127 -0.3127  0.8236
16135TIP3    H269897   6.359   6.273   2.171  0.3929 -1.2625  0.8655
16136TIP3   OH269898   1.444   4.834   0.273  0.3022  0.1839  0.2034
16136TIP3    H169899   1.428   4.823   0.367  0.8414 -0.0393  0.2671
16136TIP3    H269900   1.535   4.808   0.260  0.2412  0.2465 -0.3787
16137TIP3   OH269901   4.897   2.346  13.856 -0.5262 -0.8322 -0.3306
16137TIP3    H169902   4.851   2.398  13.923  1.0699  2.0094 -1.3663
16137TIP3    H269903   4.851   2.367  13.774 -1.0503 -2.5639 -0.5063
16138TIP3   OH269904   0.978   0.391  11.389  0.1545  0.0906  0.0258
16138TIP3    H169905   1.064   0.353  11.372  0.4690  1.7552 -2.3873
16138TIP3    H269906   0.916   0.323  11.365  0.7509 -0.1288 -0.8936
16139TIP3   OH269907   0.309   5.552   2.321 -0.3244  0.1502  0.1526
16139TIP3    H169908   0.352   5.567   2.405 -2.4368 -0.6374  1.4125
16139TIP3    H269909   0.342   5.621   2.264 -0.4449  1.9878  2.2373
16140TIP3   OH269910   4.754   3.692  12.182  0.0543 -0.4228  0.2837
16140TIP3    H169911   4.816   3.726  12.246 -0.1183  1.5764 -0.5987
16140TIP3    H269912   4.784   3.602  12.166  1.6682 -0.0722  1.1776
16141TIP3   OH269913   4.972   5.973  17.190  0.2041 -0.6171 -0.6153
16141TIP3    H169914   4.878   5.992  17.190  0.1418 -0.9206 -0.6534
16141TIP3    H269915   4.977   5.878  17.175  0.3638 -1.4381  4.0405
16142TIP3   OH269916   3.447   6.129  14.825 -0.3890  0.6107 -0.1269
16142TIP3    H169917   3.471   6.037  14.841  0.2363  0.8944  0.5799
16142TIP3    H269918   3.373   6.145  14.884 -1.7097  0.0303 -1.5859
16143TIP3   OH269919   3.543   1.711   2.517 -0.3378  0.2218  0.2655
16143TIP3    H169920   3.527   1.662   2.597  0.9620  1.5449  1.3568
16143TIP3    H269921   3.551   1.802   2.545 -1.1822  0.8804 -1.5404
16144TIP3   OH269922   3.667   6.524   2.159  0.3690  0.0052  0.0138
16144TIP3    H169923   3.693   6.513   2.251  0.4370 -1.1561 -0.1410
16144TIP3    H269924   3.737   6.578   2.122 -0.5063  1.8702  1.0368
16145TIP3   OH269925   1.775   5.271  14.496  0.1088  0.3420 -0.4599
16145TIP3    H169926   1.853   5.307  14.455  0.7914 -1.2930 -0.6483
16145TIP3    H269927   1.778   5.304  14.586  1.9386 -1.0528  0.0226
16146TIP3   OH269928   4.663   4.708   1.086  0.3296  0.2158  0.1624
16146TIP3    H169929   4.592   4.665   1.135  1.7099 -1.0305  1.1393
16146TIP3    H269930   4.618   4.771   1.029 -1.3795  1.4365  2.7252
16147TIP3   OH269931   1.266   3.556  14.076  0.2921 -0.4748  0.3692
16147TIP3    H169932   1.239   3.575  13.986  0.7101 -0.7533  0.1824
16147TIP3    H269933   1.207   3.608  14.130  0.9757  0.8587 -0.1135
16148TIP3   OH269934   0.204   0.002   0.202 -0.0938 -0.2964 -0.4504
16148TIP3    H169935   0.196   0.097   0.187  0.0144 -0.4501 -1.5470
16148TIP3    H269936   0.166  -0.012   0.289 -1.8705  0.5075 -1.0629
16149TIP3   OH269937   3.665   3.395  15.494  0.2444  0.3952  0.3011
16149TIP3    H169938   3.620   3.452  15.556 -0.8982  0.3815 -0.5026
16149TIP3    H269939   3.713   3.333  15.549 -1.0026  0.1779  1.1706
16150TIP3   OH269940   1.792   4.692   4.047 -0.4390  0.1657 -0.5460
16150TIP3    H169941   1.824   4.718   3.961 -1.1381 -0.3571 -0.9689
16150TIP3    H269942   1.865   4.709   4.106 -0.1189  0.9700 -1.1687
16151TIP3   OH269943   5.520   1.899  16.151 -0.5774  0.0863  0.2581
16151TIP3    H169944   5.448   1.896  16.213  0.5359  2.0299  1.6830
16151TIP3    H269945   5.582   1.833  16.183  0.0044  1.0999  1.2504
16152TIP3   OH269946   2.344   2.761   4.075  0.3467 -0.5106  0.2859
16152TIP3    H169947   2.290   2.684   4.059 -0.0631  0.0172 -0.9292
16152TIP3    H269948   2.283   2.826   4.111 -0.7645  1.3995 -4.6369
16153TIP3   OH269949   4.769   1.311   4.721  0.0486 -0.5193 -0.0685
16153TIP3    H169950   4.682   1.291   4.686 -0.1814  0.3475  0.0008
16153TIP3    H269951   4.767   1.278   4.811 -0.4581  0.1354  0.1665
16154TIP3   OH269952   3.845   3.038   0.030  0.3819 -0.0012 -0.0680
16154TIP3    H169953   3.859   3.002  -0.057  2.2847 -0.9978  0.5985
16154TIP3    H269954   3.753   3.020   0.050  0.1753 -0.5465 -1.5097
16155TIP3   OH269955   2.300   5.348   1.659 -0.0259 -0.0137  0.4512
16155TIP3    H169956   2.263   5.422   1.707  1.5459  1.4256 -0.4848
16155TIP3    H269957   2.263   5.356   1.571 -0.7247 -1.0064  0.6515
16156TIP3   OH269958   3.286   3.561  14.742 -0.0850  0.5371  0.5926
16156TIP3    H169959   3.360   3.527  14.693 -0.9271 -0.3828 -0.0663
16156TIP3    H269960   3.225   3.593  14.675 -0.8041  0.1965  1.0736
16157TIP3   OH269961   1.865   1.589   5.124  0.9515  0.2563  0.0667
16157TIP3    H169962   1.827   1.501   5.117 -0.4016  1.0020 -2.1602
16157TIP3    H269963   1.958   1.576   5.106  0.7462 -0.7190 -0.3222
16158TIP3   OH269964   0.675   1.932  15.561 -0.0839  0.1230  0.0619
16158TIP3    H169965   0.583   1.915  15.580 -0.4142  1.5391 -0.1997
16158TIP3    H269966   0.716   1.846  15.564 -1.4561 -0.5577 -0.0848
16159TIP3   OH269967   5.749   2.912  17.244 -0.1994  0.1316  0.3344
16159TIP3    H169968   5.659   2.879  17.240  0.6546 -2.4379  1.1134
16159TIP3    H269969   5.762   2.937  17.335 -0.1861  0.6655  0.1858
16160TIP3   OH269970   5.753   1.652  12.140  0.2269  0.0647  0.8936
16160TIP3    H169971   5.823   1.718  12.144 -0.0230  0.2884  1.5279
16160TIP3    H269972   5.762   1.614  12.053  0.1238  1.2139  0.3696
16161TIP3   OH269973   2.128   1.811   6.764 -0.4546 -0.2247  0.3037
16161TIP3    H169974   2.133   1.739   6.826 -0.6066  0.3025  0.9354
16161TIP3    H269975   2.043   1.801   6.721 -0.9467  0.2175  1.1785
16162TIP3   OH269976   5.743   3.800   3.024  0.0032  0.1328  0.7254
16162TIP3    H169977   5.728   3.709   3.000  4.5989 -0.1172 -1.7808
16162TIP3    H269978   5.680   3.850   2.971 -0.4234 -1.4178 -0.2563
16163TIP3   OH269979   1.279   6.530  13.425  0.1596 -0.2020 -0.2444
16163TIP3    H169980   1.327   6.493  13.351  1.4449 -0.0458  0.5027
16163TIP3    H269981   1.262   6.621  13.399  1.4149  0.1166  0.0273
16164TIP3   OH269982   1.099   0.249  16.236 -0.6971  0.0939  0.3307
16164TIP3    H169983   1.021   0.293  16.270 -0.9835  0.2361 -0.5102
16164TIP3    H269984   1.153   0.320  16.202 -0.0121  0.0339  1.2752
16165TIP3   OH269985   4.979   3.729   4.670  1.2503 -0.0662 -0.0694
16165TIP3    H169986   4.999   3.667   4.740  1.4474 -1.3175 -1.2008
16165TIP3    H269987   4.914   3.683   4.616 -1.2962  2.1184  1.0004
16166TIP3   OH269988   4.982   2.019  15.313 -0.0128 -0.2809 -1.0469
16166TIP3    H169989   4.916   2.042  15.378  0.1161 -2.5254 -0.1019
16166TIP3    H269990   4.933   2.006  15.232 -0.4413  0.2209 -0.8754
16167TIP3   OH269991   2.408   2.074   1.998 -0.0722  0.1084  0.4062
16167TIP3    H169992   2.447   2.022   2.068 -0.1156 -0.7025 -0.1631
16167TIP3    H269993   2.477   2.079   1.931 -1.0953 -1.7676 -0.8239
16168TIP3   OH269994   0.921   0.252   2.605  0.2330 -0.8930 -0.0262
16168TIP3    H169995   0.979   0.177   2.618  0.8017 -0.2534  1.1737
16168TIP3    H269996   0.943   0.284   2.517  0.6430 -1.5651 -0.1695
16169TIP3   OH269997   6.255   4.385  14.532 -0.0716 -0.2038  0.3817
16169TIP3    H169998   6.259   4.295  14.501 -1.1785  0.3494 -1.3968
16169TIP3    H269999   6.192   4.428  14.475  1.3117  1.9963  0.4589
16170TIP3   OH270000   1.578   2.117   2.656 -0.4272 -0.0778  0.3449
16170TIP3    H170001   1.557   2.210   2.658  0.2881  0.0864  0.4267
16170TIP3    H270002   1.604   2.097   2.746 -1.6659 -0.6141  0.5917
16171TIP3   OH270003   2.528   2.504   5.463  0.1921 -0.2328  0.4093
16171TIP3    H170004   2.580   2.575   5.502 -1.0940  0.2566  1.2966
16171TIP3    H270005   2.455   2.549   5.420  0.5105 -0.9047 -0.8369
16172TIP3   OH270006   3.027   0.167  11.010 -0.1216  0.0984 -0.0823
16172TIP3    H170007   3.067   0.188  10.925  1.2608 -1.6197  0.1079
16172TIP3    H270008   2.937   0.198  11.002  0.1818  0.6056 -1.9280
16173TIP3   OH270009   0.043   3.219   2.105  0.0849  0.1239 -0.2555
16173TIP3    H170010  -0.020   3.283   2.135  0.7030  0.4048  0.4594
16173TIP3    H270011   0.129   3.258   2.125  0.4765 -0.4208 -0.8467
16174TIP3   OH270012   3.628   4.074  14.389 -0.3782  0.0503 -0.2705
16174TIP3    H170013   3.571   4.000  14.372  0.0173 -0.0891 -1.0223
16174TIP3    H270014   3.601   4.141  14.326  0.0133  0.1301 -0.3573
16175TIP3   OH270015   1.717   5.891  14.409 -0.1709 -0.0429  0.2184
16175TIP3    H170016   1.669   5.972  14.388  0.3532  0.1105 -0.3953
16175TIP3    H270017   1.790   5.920  14.463 -0.0804 -0.1358  0.1445
16176TIP3   OH270018   5.656   0.527  14.677  0.2441 -0.1347 -0.0682
16176TIP3    H170019   5.705   0.475  14.612 -1.2900 -1.1317 -0.4592
16176TIP3    H270020   5.565   0.520  14.648  0.0215  2.9219 -0.1918
16177TIP3   OH270021   3.353   1.563  16.377  0.3302  0.6366  0.1818
16177TIP3    H170022   3.307   1.615  16.312 -0.5525  0.0233  0.3121
16177TIP3    H270023   3.446   1.581  16.360  0.1439  0.0552 -1.6114
16178TIP3   OH270024   1.397   1.965  16.661 -0.4054  0.2101  0.4216
16178TIP3    H170025   1.317   1.960  16.610  0.1502 -0.0335 -0.4372
16178TIP3    H270026   1.467   1.970  16.595  0.2672  0.6080  1.1577
16179TIP3   OH270027   0.747   0.914   5.439  0.1131  0.1192 -0.2678
16179TIP3    H170028   0.716   0.941   5.352  0.8349  0.8563 -0.3085
16179TIP3    H270029   0.698   0.969   5.500  0.1178  0.0977 -0.2445
16180TIP3   OH270030   3.500   3.069   0.108 -0.0280  0.3410  0.7138
16180TIP3    H170031   3.434   3.004   0.132 -2.2100  2.4902  0.7600
16180TIP3    H270032   3.517   3.053   0.016 -3.9171  2.4574 -0.4902
16181TIP3   OH270033   4.017   5.214   1.527  0.4578 -0.7547  0.0363
16181TIP3    H170034   3.948   5.165   1.481  0.4466  0.3781 -1.1760
16181TIP3    H270035   4.066   5.258   1.458  0.2435  1.2448  1.1161
16182TIP3   OH270036   6.780   3.390   1.187 -0.6688  0.4375  0.7279
16182TIP3    H170037   6.711   3.388   1.121  0.5320 -1.0870 -0.5096
16182TIP3    H270038   6.734   3.405   1.270 -2.9593 -4.2840  0.4589
16183TIP3   OH270039   0.647   4.471   5.359 -0.2724  0.7581  0.3987
16183TIP3    H170040   0.679   4.405   5.421 -1.2359  0.6137  0.7409
16183TIP3    H270041   0.691   4.449   5.277 -0.1630  0.0240  0.6485
16184TIP3   OH270042   3.568   1.077   0.958  0.7940 -0.3227 -0.2531
16184TIP3    H170043   3.503   1.053   1.025  1.7070 -0.2596  0.6664
16184TIP3    H270044   3.644   1.106   1.008  1.7269 -0.8842 -1.3290
16185TIP3   OH270045   6.180   3.778   3.206  0.2938  0.1274 -0.3551
16185TIP3    H170046   6.184   3.684   3.185  0.1186 -0.2013  1.0143
16185TIP3    H270047   6.234   3.787   3.285  1.6400  1.4734 -1.4141
16186TIP3   OH270048   2.936   3.504   5.458  0.4222  1.1142  0.0017
16186TIP3    H170049   3.005   3.517   5.523 -0.4694 -0.0261  1.1905
16186TIP3    H270050   2.863   3.557   5.489 -0.1979  0.1373  0.2489
16187TIP3   OH270051   5.300   1.506   1.136  0.2968 -0.4957  0.3770
16187TIP3    H170052   5.296   1.560   1.215  0.7760 -2.3050  1.6934
16187TIP3    H270053   5.264   1.561   1.067 -0.1414  1.1335  1.8603
16188TIP3   OH270054   0.465   3.215  12.708 -0.6774  0.3095  0.3710
16188TIP3    H170055   0.383   3.175  12.735 -2.4375  1.4806 -2.9461
16188TIP3    H270056   0.448   3.309  12.710  0.4767  0.5543 -0.6444
16189TIP3   OH270057   3.283   0.909  16.973 -0.0278  0.4724 -0.2298
16189TIP3    H170058   3.322   0.882  17.056 -0.3993  0.1134 -0.1706
16189TIP3    H270059   3.328   0.990  16.950  0.9368 -0.0815 -0.2883
16190TIP3   OH270060   2.252   1.317   3.942  0.2612 -0.1147  0.2641
16190TIP3    H170061   2.185   1.338   4.008 -0.3771 -1.3783  0.0220
16190TIP3    H270062   2.330   1.296   3.993  0.1075  0.0797  0.5838
16191TIP3   OH270063   4.441   2.754  12.466  0.2287 -0.2225 -0.6552
16191TIP3    H170064   4.526   2.744  12.508 -1.5269 -1.0007  2.8958
16191TIP3    H270065   4.403   2.832  12.506 -1.6008 -1.1232 -0.5924
16192TIP3   OH270066   3.684   5.088  13.317  0.3103  0.2592  0.1749
16192TIP3    H170067   3.669   5.177  13.347  0.6628 -0.3096  2.1287
16192TIP3    H270068   3.770   5.091  13.275 -0.2428  1.1088 -0.8917
16193TIP3   OH270069   3.570   1.867   1.356  0.4172  0.4311  0.1882
16193TIP3    H170070   3.653   1.823   1.338 -0.2988 -0.4908 -0.9873
16193TIP3    H270071   3.506   1.818   1.303 -1.2746 -0.3733  2.8870
16194TIP3   OH270072   6.320   1.874   6.426 -0.2164 -0.1783  0.0879
16194TIP3    H170073   6.401   1.893   6.380  1.0725 -0.1874  2.2860
16194TIP3    H270074   6.298   1.955   6.472  0.8352 -1.3964  2.8354
16195TIP3   OH270075   5.376   0.849   3.654 -0.0124  0.2906  0.3374
16195TIP3    H170076   5.382   0.945   3.660 -1.1912  0.4049 -0.0704
16195TIP3    H270077   5.392   0.830   3.561  1.3045  0.0001  0.6265
16196TIP3   OH270078   1.116   4.504   2.688 -0.0132 -0.2920  0.5440
16196TIP3    H170079   1.071   4.537   2.610  0.4118 -0.8667  0.0525
16196TIP3    H270080   1.206   4.490   2.658  0.4054  0.4945  1.4171
16197TIP3   OH270081   6.470   4.018  10.700  0.2216  0.6456  0.1442
16197TIP3    H170082   6.545   3.964  10.677  1.7741  2.9879 -0.4323
16197TIP3    H270083   6.446   4.061  10.618 -2.3029 -0.6828  0.1189
16198TIP3   OH270084   5.362   5.420   1.085  0.7074 -0.3530  0.0540
16198TIP3    H170085   5.448   5.417   1.129 -0.0387 -2.6626  1.4440
16198TIP3    H270086   5.303   5.455   1.151  0.5462  1.3007 -0.9296
16199TIP3   OH270087   2.727   0.937  15.546  0.0210 -0.2997 -0.4358
16199TIP3    H170088   2.659   1.005  15.551 -0.0028 -0.2163 -1.9288
16199TIP3    H270089   2.802   0.981  15.507 -0.1320 -1.2474 -1.8061
16200TIP3   OH270090   3.792   0.377   2.907 -0.6666 -0.1897  0.0395
16200TIP3    H170091   3.767   0.431   2.832  2.3873  2.3689  0.7874
16200TIP3    H270092   3.729   0.400   2.975 -0.8234  0.6739 -0.3927
16201TIP3   OH270093   5.096   2.175  16.247  0.6518  0.4277 -0.2065
16201TIP3    H170094   5.184   2.178  16.209  1.1372  0.0183  0.8531
16201TIP3    H270095   5.057   2.095  16.211  1.2242 -0.1251  0.3729
16202TIP3   OH270096   6.452   2.645   2.763 -0.1313  0.0942 -0.4769
16202TIP3    H170097   6.454   2.735   2.795  2.1023 -0.5164  1.2134
16202TIP3    H270098   6.542   2.615   2.770 -0.7119 -2.0300 -1.7593
16203TIP3   OH270099   5.477   5.962  13.888 -0.3315 -0.7136 -0.0212
16203TIP3    H170100   5.538   5.969  13.962  0.3377  0.4443 -0.6606
16203TIP3    H270101   5.396   6.002  13.920  0.0113 -0.0559  0.0438
16204TIP3   OH270102   6.296   5.392  10.677 -0.1599 -0.4977 -0.5017
16204TIP3    H170103   6.304   5.474  10.629  0.7094 -0.5860 -0.5205
16204TIP3    H270104   6.370   5.394  10.739 -0.8168 -0.7316  0.2923
16205TIP3   OH270105   4.885   5.666   0.701 -0.1371  0.2984 -0.0522
16205TIP3    H170106   4.859   5.679   0.610 -1.8824  2.0878  0.6701
16205TIP3    H270107   4.804   5.674   0.751  0.9219  0.1866  1.7417
16206TIP3   OH270108   2.311   3.884  12.987 -0.0179 -0.6143 -0.1110
16206TIP3    H170109   2.304   3.953  12.921 -1.2363  0.4052  1.0518
16206TIP3    H270110   2.220   3.865  13.011  0.4405 -0.3796  1.8678
16207TIP3   OH270111   2.934   3.751  12.509 -0.1730 -0.4951  0.7578
16207TIP3    H170112   2.994   3.677  12.495 -1.2983 -1.4642  1.0424
16207TIP3    H270113   2.870   3.718  12.572 -0.8057  0.6588  0.7180
16208TIP3   OH270114   1.014   0.292   3.409 -0.1027  0.3374  0.0639
16208TIP3    H170115   0.981   0.365   3.355  0.8991 -0.3144 -1.4576
16208TIP3    H270116   1.074   0.245   3.352  1.4400 -0.0438  1.9606
16209TIP3   OH270117   4.381   5.759  16.915  0.3922 -0.3994  0.5155
16209TIP3    H170118   4.305   5.756  16.856 -1.1506 -3.6572  2.4988
16209TIP3    H270119   4.437   5.827  16.878 -3.5018  2.1863 -1.0130
16210TIP3   OH270120   1.940   2.531   1.070  0.5039  0.3306  0.0675
16210TIP3    H170121   2.012   2.561   1.125  0.9946 -0.0517 -0.3611
16210TIP3    H270122   1.892   2.610   1.047  0.3814  0.5134  0.9150
16211TIP3   OH270123   2.557   4.488   4.777 -0.6192  0.0751  0.1314
16211TIP3    H170124   2.584   4.402   4.811 -0.6258  0.1861  0.4179
16211TIP3    H270125   2.619   4.507   4.707  0.0504  0.3321  0.7858
16212TIP3   OH270126   5.834   5.865   3.033 -0.0134  0.5993 -0.0170
16212TIP3    H170127   5.863   5.786   2.988  0.5169 -1.2189  3.3022
16212TIP3    H270128   5.901   5.930   3.013  0.8601 -0.5186 -0.8279
16213TIP3   OH270129   6.696   1.176   4.808  0.4464  0.4055 -0.3128
16213TIP3    H170130   6.773   1.185   4.752 -1.0343 -1.8478 -2.8618
16213TIP3    H270131   6.725   1.118   4.878  1.8537  1.8874  0.3698
16214TIP3   OH270132   4.770   1.963   6.088 -0.1580  0.0471  0.3726
16214TIP3    H170133   4.829   1.889   6.100  0.2944  0.1956 -0.8242
16214TIP3    H270134   4.813   2.036   6.132  0.3119  0.0388 -0.0745
16215TIP3   OH270135   5.459   2.590   5.142 -0.5428 -0.3095  0.1124
16215TIP3    H170136   5.475   2.540   5.222  0.1113 -0.5716 -0.1789
16215TIP3    H270137   5.466   2.526   5.072  0.5114  0.2268 -0.2813
16216TIP3   OH270138   3.651   3.054  10.342 -0.3902  0.5600 -0.2430
16216TIP3    H170139   3.675   3.129  10.286  2.3675  1.3979  1.9691
16216TIP3    H270140   3.576   3.085  10.392  0.2910  1.5962  0.1455
16217TIP3   OH270141   0.116   2.062   2.901  0.1264 -0.3519  0.3978
16217TIP3    H170142   0.198   2.087   2.859  0.9697 -2.1248  0.9287
16217TIP3    H270143   0.133   1.975   2.939 -1.7356 -0.4031  1.2215
16218TIP3   OH270144   0.060   0.042   3.189 -0.0765  0.0262 -0.2151
16218TIP3    H170145   0.011   0.117   3.155  1.4125  2.2791  2.4094
16218TIP3    H270146   0.009   0.011   3.264 -1.0226 -2.0568 -1.6740
16219TIP3   OH270147   0.828   3.518   4.628  0.0098 -0.0260  0.3212
16219TIP3    H170148   0.844   3.456   4.700  1.7978 -0.4017 -0.3560
16219TIP3    H270149   0.857   3.602   4.662 -3.6112  0.7624  1.6995
16220TIP3   OH270150   6.201   3.721  11.281  0.1988  0.1848 -0.0448
16220TIP3    H170151   6.252   3.716  11.200 -0.5702 -1.3729 -0.4378
16220TIP3    H270152   6.129   3.780  11.260  1.3556  1.7584  0.2739
16221TIP3   OH270153   4.347   1.896   0.875  0.1083  0.1620  0.0344
16221TIP3    H170154   4.269   1.950   0.868  0.1459  0.0954 -0.9359
16221TIP3    H270155   4.388   1.924   0.957 -1.2879 -0.2931  0.9096
16222TIP3   OH270156   2.205   0.666  16.329 -0.6035 -0.3707  0.2381
16222TIP3    H170157   2.139   0.716  16.376 -1.4395 -1.9340  0.7790
16222TIP3    H270158   2.267   0.639  16.397 -1.3134 -1.8467  0.3323
16223TIP3   OH270159   1.241   6.268   0.385 -0.2397  0.4486  0.4561
16223TIP3    H170160   1.293   6.339   0.423  1.9179  0.3035 -2.0484
16223TIP3    H270161   1.260   6.192   0.440  0.9138  0.8076  0.5798
16224TIP3   OH270162   3.646   5.912   6.187  0.3120  0.0781 -0.2672
16224TIP3    H170163   3.693   5.841   6.144  0.7360  1.2358 -1.7714
16224TIP3    H270164   3.689   5.921   6.272  1.2274 -0.4762 -0.6652
16225TIP3   OH270165   4.008   6.329   2.473  0.5195  0.3301 -0.0721
16225TIP3    H170166   4.097   6.364   2.479  0.4774  0.8644 -2.0742
16225TIP3    H270167   3.987   6.334   2.379 -1.7197  0.4711  0.4098
16226TIP3   OH270168   1.691   1.759   1.550 -0.0111  0.2406  0.6942
16226TIP3    H170169   1.768   1.708   1.575 -0.8636 -1.0351  0.7644
16226TIP3    H270170   1.708   1.786   1.460 -0.0854 -1.1893  0.2506
16227TIP3   OH270171   6.791   3.230  16.427  0.2400 -0.0171 -0.3681
16227TIP3    H170172   6.807   3.294  16.497 -1.0053  0.6358 -0.6744
16227TIP3    H270173   6.816   3.146  16.466  1.3444  0.5765  0.2302
16228TIP3   OH270174   4.552   1.974   1.180 -0.0129  0.3134 -0.4034
16228TIP3    H170175   4.575   1.996   1.270  1.4240  1.2157 -0.9821
16228TIP3    H270176   4.605   1.898   1.160  0.0078  0.3952 -0.6545
16229TIP3   OH270177   2.895   6.384   6.407  0.9655  0.0048 -0.2193
16229TIP3    H170178   2.822   6.323   6.404  1.5778 -0.7888  0.7285
16229TIP3    H270179   2.914   6.395   6.500  1.9920  0.2774 -0.4435
16230TIP3   OH270180   0.058   5.361  14.621  0.7071 -0.0074 -0.3679
16230TIP3    H170181   0.052   5.444  14.667 -1.5122 -0.8212  0.9225
16230TIP3    H270182   0.150   5.337  14.624  0.9347  1.0833  1.6460
16231TIP3   OH270183   3.685   4.108  11.224 -0.6914 -0.0816  0.2239
16231TIP3    H170184   3.651   4.146  11.304  1.0258  0.1345  0.8740
16231TIP3    H270185   3.739   4.177  11.185  0.7678 -1.1408  0.3424
16232TIP3   OH270186   1.153   2.539  16.425  0.5579 -0.3284 -0.1057
16232TIP3    H170187   1.212   2.498  16.361  0.3446 -0.2024 -0.3844
16232TIP3    H270188   1.084   2.579  16.372 -0.5506 -1.6843  0.2784
16233TIP3   OH270189   6.375   3.403   4.036  0.6269  0.5775 -0.0379
16233TIP3    H170190   6.283   3.386   4.059  0.2026  1.4265 -1.0745
16233TIP3    H270191   6.386   3.360   3.951  1.4937 -0.4245  0.5706
16234TIP3   OH270192   3.717   2.985   3.567 -0.5088 -0.3441  0.1518
16234TIP3    H170193   3.790   3.029   3.610 -0.1332  1.1759 -1.9417
16234TIP3    H270194   3.645   2.991   3.629  0.7405 -0.6299  1.6716
16235TIP3   OH270195   0.237   4.721  14.601  0.1545 -0.4624  0.0723
16235TIP3    H170196   0.246   4.812  14.571 -1.5378 -0.5626 -0.8089
16235TIP3    H270197   0.319   4.679  14.574  0.3664  0.4530 -0.7521
16236TIP3   OH270198   5.822   0.911  15.895 -0.3201  0.2111  0.6230
16236TIP3    H170199   5.828   0.828  15.942  1.0176 -0.3349 -0.4882
16236TIP3    H270200   5.775   0.890  15.815 -0.2252  0.5832  0.4697
16237TIP3   OH270201   4.260   4.266   1.247  0.2900 -0.3735  0.6374
16237TIP3    H170202   4.278   4.339   1.306  1.3485 -0.2889  0.2382
16237TIP3    H270203   4.339   4.260   1.192 -0.1022 -1.3239  0.1577
16238TIP3   OH270204   4.103   2.059   2.045 -0.2152  0.3173 -0.7354
16238TIP3    H170205   4.146   2.077   2.128 -0.6867 -0.2404 -0.3719
16238TIP3    H270206   4.152   2.112   1.981  1.2482 -0.6143 -0.3985
16239TIP3   OH270207   3.376   6.482   0.048 -0.3527  0.1327 -0.1881
16239TIP3    H170208   3.465   6.516   0.049 -0.7137  1.0833  0.0334
16239TIP3    H270209   3.386   6.388   0.035  0.6868  0.2253 -0.0584
16240TIP3   OH270210   0.795   5.925   4.774  0.2115  0.2642 -0.4959
16240TIP3    H170211   0.843   5.865   4.830  0.0173  0.6797  0.1248
16240TIP3    H270212   0.772   5.873   4.696 -0.5398 -0.6628  0.3291
16241TIP3   OH270213   1.174   5.257  14.427  0.4281  0.6516  0.1579
16241TIP3    H170214   1.224   5.227  14.351  2.0385 -0.4450  1.6101
16241TIP3    H270215   1.140   5.178  14.467  4.9138  0.5041  4.1587
16242TIP3   OH270216   0.936   0.945   2.635  0.6179  0.3284  0.3448
16242TIP3    H170217   0.883   0.871   2.665  1.6956  0.2663  2.1664
16242TIP3    H270218   0.874   1.000   2.586 -0.6322 -0.8170  0.5994
16243TIP3   OH270219   3.686   2.301   6.278 -0.3975  0.5028 -0.4596
16243TIP3    H170220   3.683   2.207   6.293 -0.8710  0.7719  1.2573
16243TIP3    H270221   3.594   2.328   6.279 -0.3201  0.8382 -1.9549
16244TIP3   OH270222   5.163   5.166   1.981  0.1580 -0.6349  0.6032
16244TIP3    H170223   5.100   5.109   1.937 -0.6123 -0.1319  1.0488
16244TIP3    H270224   5.218   5.105   2.032  0.2451 -1.1013 -0.0370
16245TIP3   OH270225   5.214   4.250   3.855 -0.6811  0.2462 -0.3938
16245TIP3    H170226   5.280   4.210   3.912 -1.6543 -0.9261 -0.0860
16245TIP3    H270227   5.212   4.342   3.883  2.4237  0.8547 -1.9157
16246TIP3   OH270228   2.820   3.953   0.585  0.3942  0.2238 -0.0706
16246TIP3    H170229   2.907   3.957   0.625  0.0122  0.4694  0.7529
16246TIP3    H270230   2.836   3.954   0.491  1.3869 -1.9705  0.0490
16247TIP3   OH270231   4.179   4.064  16.877 -0.0991 -0.2929 -0.0095
16247TIP3    H170232   4.085   4.081  16.880 -0.4749 -2.3048 -0.0153
16247TIP3    H270233   4.203   4.082  16.786 -0.6693 -0.7683 -0.2584
16248TIP3   OH270234   3.338   0.475   2.946 -0.2763 -0.8195  0.4470
16248TIP3    H170235   3.386   0.497   3.026 -0.4568 -1.7219  0.8026
16248TIP3    H270236   3.394   0.414   2.899 -0.2054 -0.3532 -0.0869
16249TIP3   OH270237   3.722   4.211  10.577  0.3419  0.6421  0.2632
16249TIP3    H170238   3.734   4.232  10.484  3.1691 -1.4190  0.0769
16249TIP3    H270239   3.655   4.142  10.578 -0.1008  1.0622 -0.1955
16250TIP3   OH270240   1.170   0.911  12.158  0.5984  0.2486 -0.0117
16250TIP3    H170241   1.155   0.869  12.243  1.5112  0.8511  0.4540
16250TIP3    H270242   1.131   0.998  12.167  1.3911  0.6010  0.0692
16251TIP3   OH270243   0.588   0.300   2.066  0.1686 -1.2225 -0.3138
16251TIP3    H170244   0.682   0.286   2.076  0.8610  2.4081 -1.0363
16251TIP3    H270245   0.563   0.352   2.142 -1.0048 -1.0154 -0.8275
16252TIP3   OH270246   6.449   6.793   4.709 -0.2214 -0.2785 -0.2038
16252TIP3    H170247   6.418   6.828   4.626 -1.7393 -0.3374  0.3113
16252TIP3    H270248   6.536   6.830   4.721 -1.3550  2.4741 -0.1696
16253TIP3   OH270249   3.334   3.150   1.611 -0.1685 -0.1721  0.8257
16253TIP3    H170250   3.305   3.220   1.669 -1.2456  0.8281 -0.8939
16253TIP3    H270251   3.427   3.167   1.598  0.1942 -0.6551  2.5638
16254TIP3   OH270252   0.868   3.222   0.503  0.4573 -0.3914 -0.1642
16254TIP3    H170253   0.865   3.279   0.580  0.7290 -0.6110  0.0093
16254TIP3    H270254   0.918   3.146   0.532 -0.4125 -0.9894 -0.2129
16255TIP3   OH270255   4.783   4.340   5.126 -0.0075  0.6811  0.1245
16255TIP3    H170256   4.759   4.424   5.165 -1.3644 -0.2158  1.2675
16255TIP3    H270257   4.823   4.291   5.198  1.7022  0.7021 -0.7845
16256TIP3   OH270258   6.760   6.806   0.772 -0.1965 -0.0788  0.3926
16256TIP3    H170259   6.829   6.740   0.774  0.3772  0.5040  0.0405
16256TIP3    H270260   6.683   6.761   0.807  0.0843 -1.0530 -0.2172
16257TIP3   OH270261   3.847   6.584   2.356 -0.1891  0.0440  0.6620
16257TIP3    H170262   3.903   6.610   2.429 -0.6478  0.7617  0.7550
16257TIP3    H270263   3.898   6.517   2.310  1.1905  1.4119  0.1684
16258TIP3   OH270264   2.921   6.210  16.241  0.0517  0.2969 -0.0172
16258TIP3    H170265   3.013   6.218  16.265 -0.4010 -1.7096  2.5100
16258TIP3    H270266   2.920   6.142  16.174  0.2678 -0.4384  0.7289
16259TIP3   OH270267   0.633   2.104  17.203  0.1218 -0.1623  0.3144
16259TIP3    H170268   0.719   2.092  17.163  0.1503  0.5507  0.1588
16259TIP3    H270269   0.571   2.096  17.131  0.0058 -1.3293  0.5337
16260TIP3   OH270270   1.482   0.837   2.264 -0.4016  0.0534  0.1889
16260TIP3    H170271   1.473   0.920   2.217 -1.0211 -0.3401 -0.4019
16260TIP3    H270272   1.520   0.861   2.348  2.4384  0.5920 -1.1711
16261TIP3   OH270273   6.152   0.897   4.280  0.2078  0.8323 -0.1134
16261TIP3    H170274   6.238   0.936   4.299  0.8574 -0.2772 -0.7525
16261TIP3    H270275   6.092   0.942   4.339  1.3353  1.1669  0.7890
16262TIP3   OH270276   0.273   5.908   2.816 -0.4086  0.6573 -0.3839
16262TIP3    H170277   0.358   5.918   2.859 -0.6370 -1.5428  0.6043
16262TIP3    H270278   0.221   5.855   2.876 -1.8888  0.4559 -1.8033
16263TIP3   OH270279   6.167   3.592   1.293  0.5284  0.0084  0.3162
16263TIP3    H170280   6.126   3.546   1.219 -4.4267  2.0725  1.6262
16263TIP3    H270281   6.201   3.673   1.254 -1.0530  0.5688  0.0801
16264TIP3   OH270282   1.177   2.819   4.386 -0.0452 -0.3996 -0.6339
16264TIP3    H170283   1.242   2.849   4.450  0.2995 -0.1383 -1.1021
16264TIP3    H270284   1.178   2.887   4.319  0.2439 -1.1229 -1.3588
16265TIP3   OH270285   2.678   5.326   2.978  0.3108 -0.4855 -0.0555
16265TIP3    H170286   2.645   5.289   2.896  0.1331 -0.0560 -0.1823
16265TIP3    H270287   2.773   5.324   2.969  0.2808  0.9410 -0.9095
16266TIP3   OH270288   2.643   1.427   4.188 -0.2749 -0.1431 -0.1996
16266TIP3    H170289   2.585   1.492   4.228  1.4322  1.1103  0.2714
16266TIP3    H270290   2.610   1.418   4.098 -1.3541  0.3586  0.1374
16267TIP3   OH270291   2.343   2.777   5.794 -0.2913 -0.2997  0.1665
16267TIP3    H170292   2.322   2.837   5.723 -1.3785 -0.9056 -0.0371
16267TIP3    H270293   2.265   2.780   5.851  0.3800 -0.1613  1.0924
16268TIP3   OH270294   6.135   1.144  13.157  0.0479  0.7977 -0.1259
16268TIP3    H170295   6.223   1.178  13.174  0.2380  0.5509 -0.6080
16268TIP3    H270296   6.148   1.079  13.088 -0.4936  0.6517 -0.0871
16269TIP3   OH270297   5.060   1.592   2.962  0.3707  0.0707  0.0255
16269TIP3    H170298   5.069   1.507   2.918 -0.2749 -0.1564  0.3105
16269TIP3    H270299   5.000   1.641   2.906  0.8196  0.3720 -0.1882
16270TIP3   OH270300   4.091   3.876  10.537 -0.1351  0.1400  0.1960
16270TIP3    H170301   4.052   3.879  10.625  0.2584 -0.4070  0.3956
16270TIP3    H270302   4.046   3.803  10.494  0.6857 -0.5102  0.4387
16271TIP3   OH270303   1.857   3.177  12.696  0.7305 -0.2789 -0.4482
16271TIP3    H170304   1.898   3.182  12.782 -0.0871 -0.7400 -0.0308
16271TIP3    H270305   1.919   3.127  12.642  0.5576 -1.2918  0.2816
16272TIP3   OH270306   6.199   2.151   6.439  0.1880 -0.0916  0.1416
16272TIP3    H170307   6.167   2.223   6.384  0.6465  1.4530  1.8242
16272TIP3    H270308   6.251   2.195   6.507  0.7445 -2.0577  1.0141
16273TIP3   OH270309   2.413   5.375   5.476 -0.4948 -0.2780  0.0224
16273TIP3    H170310   2.436   5.363   5.383  0.4243 -0.4447  0.2632
16273TIP3    H270311   2.423   5.288   5.514  0.6342  0.1003  0.6022
16274TIP3   OH270312   0.388   0.826   4.821  0.0312 -0.0178  0.2568
16274TIP3    H170313   0.357   0.783   4.901 -1.1569 -0.3342 -0.3718
16274TIP3    H270314   0.447   0.895   4.852 -1.1921  0.5036  1.4591
16275TIP3   OH270315   5.167   4.323   5.095  0.0417 -0.0111  0.9583
16275TIP3    H170316   5.121   4.401   5.064 -0.4099  0.4007  2.6292
16275TIP3    H270317   5.216   4.292   5.018  0.8697  2.3666  0.4878
16276TIP3   OH270318   1.527   0.354  14.554 -0.1714  0.1252 -0.4352
16276TIP3    H170319   1.613   0.387  14.577 -0.5970 -0.3202  1.9610
16276TIP3    H270320   1.471   0.377  14.629 -1.8648 -0.5718 -1.4408
16277TIP3   OH270321   2.660   0.975   2.274  0.2406  0.1463 -0.0074
16277TIP3    H170322   2.630   0.998   2.186 -1.6955 -0.3152  0.4922
16277TIP3    H270323   2.733   0.915   2.260 -0.2829 -0.2036 -1.3055
16278TIP3   OH270324   2.551   4.792   2.088 -0.7074 -0.0668 -0.4317
16278TIP3    H170325   2.493   4.724   2.121 -2.2108  1.8412  0.9282
16278TIP3    H270326   2.633   4.746   2.070 -1.7891 -2.2946  0.1461
16279TIP3   OH270327   3.288   4.374  11.988  0.3497  1.2533  0.7571
16279TIP3    H170328   3.312   4.406  11.901 -1.1339  0.6480  0.0927
16279TIP3    H270329   3.234   4.297  11.971  0.9175  0.5013  2.2535
16280TIP3   OH270330   4.837   1.964  15.095  0.4404 -0.3412 -0.0524
16280TIP3    H170331   4.742   1.977  15.101  0.6827  0.3703  2.6906
16280TIP3    H270332   4.849   1.869  15.096 -0.3063 -0.4741 -1.9064
16281TIP3   OH270333   6.406   0.336  12.639 -0.0316  0.0416  0.3865
16281TIP3    H170334   6.371   0.423  12.659  1.0781  0.1543  1.9189
16281TIP3    H270335   6.388   0.324  12.546 -1.4271  1.3402  0.4651
16282TIP3   OH270336   1.760   3.473  13.456 -0.2420 -0.5267  0.1324
16282TIP3    H170337   1.717   3.546  13.411 -1.3304 -1.8003 -0.9790
16282TIP3    H270338   1.828   3.513  13.508 -0.2267  1.2051 -1.1681
16283TIP3   OH270339   4.247   3.644   4.924 -0.4617 -0.1033  0.7131
16283TIP3    H170340   4.210   3.624   5.010 -1.6845  1.2984  0.5151
16283TIP3    H270341   4.297   3.725   4.938 -0.7001  0.1484  0.0823
16284TIP3   OH270342   4.178   4.701   5.880 -0.3894  0.3520  0.3021
16284TIP3    H170343   4.109   4.643   5.849  0.0313  0.8195 -1.5729
16284TIP3    H270344   4.259   4.652   5.867 -0.1234  0.9323 -0.2881
16285TIP3   OH270345   1.513   1.779   6.438 -0.0131 -0.3235 -0.1430
16285TIP3    H170346   1.458   1.768   6.516 -0.2906 -1.8117 -0.5415
16285TIP3    H270347   1.594   1.733   6.460 -0.3439 -1.3156 -0.9857
16286TIP3   OH270348   6.659   5.026  12.451  0.0910  0.5892  0.1106
16286TIP3    H170349   6.605   4.955  12.486  0.7007 -0.4926 -1.1007
16286TIP3    H270350   6.728   5.038  12.517  0.2489 -0.2566  0.1000
16287TIP3   OH270351   6.752   2.107  15.779  0.3238 -0.2023  0.2243
16287TIP3    H170352   6.801   2.029  15.803  1.6484 -0.3422 -2.7077
16287TIP3    H270353   6.682   2.075  15.723 -0.6901  0.4695  1.0784
16288TIP3   OH270354   3.229   1.242  13.612 -0.2158  0.1401 -0.4095
16288TIP3    H170355   3.278   1.262  13.692  0.2789 -1.5108 -0.2822
16288TIP3    H270356   3.227   1.325  13.564 -0.8541  1.2471  1.4784
16289TIP3   OH270357   3.182   0.609   3.131  0.0673 -0.0969 -0.0650
16289TIP3    H170358   3.215   0.558   3.057  1.1529  0.2663  0.1550
16289TIP3    H270359   3.232   0.691   3.128 -0.6264  0.3545  0.4477
16290TIP3   OH270360   2.860   3.870   4.693  0.3179  0.0552  0.0621
16290TIP3    H170361   2.798   3.923   4.642 -0.4938 -0.9553 -0.0127
16290TIP3    H270362   2.899   3.932   4.754  0.7876  1.1371 -1.3196
16291TIP3   OH270363   3.918   6.626   0.171 -0.0147 -0.1568 -0.3191
16291TIP3    H170364   3.925   6.586   0.257 -0.1567 -0.1788 -0.3183
16291TIP3    H270365   3.987   6.583   0.119 -0.3319 -0.5898 -0.3903
16292TIP3   OH270366   1.255   1.895  16.020  0.6787  0.1266  0.3869
16292TIP3    H170367   1.310   1.818  16.006 -0.0751 -0.3950  0.3239
16292TIP3    H270368   1.249   1.935  15.933  0.4689 -0.1404  0.2791
16293TIP3   OH270369   6.256   0.481   5.311 -0.3752 -0.1134  0.5288
16293TIP3    H170370   6.228   0.565   5.276  1.6658  0.0693 -0.7300
16293TIP3    H270371   6.350   0.489   5.320 -0.4607 -1.3664  2.9093
16294TIP3   OH270372   1.354   3.808   0.690 -0.5511  0.5196  0.3256
16294TIP3    H170373   1.263   3.810   0.718 -0.4885  0.8875  0.5107
16294TIP3    H270374   1.351   3.818   0.595 -0.7500 -0.4329  0.2349
16295TIP3   OH270375   0.653   1.925   0.134  0.2239 -0.1607  0.4885
16295TIP3    H170376   0.650   1.990   0.064  2.2573 -2.2923 -1.7031
16295TIP3    H270377   0.573   1.875   0.124  1.2860 -1.5166 -1.4366
16296TIP3   OH270378   6.136   3.958  13.765  0.8396  0.5149  0.3954
16296TIP3    H170379   6.219   3.951  13.813  0.7851 -0.3521  0.3767
16296TIP3    H270380   6.144   3.892  13.696  0.3439  0.7951  0.0729
16297TIP3   OH270381   3.745   4.937   5.465  0.0658 -0.0753 -0.2726
16297TIP3    H170382   3.766   4.965   5.555  0.3214 -1.7645  0.2085
16297TIP3    H270383   3.822   4.961   5.414 -0.8376  2.6599 -0.4643
16298TIP3   OH270384   0.638   2.938  14.684 -0.3888  0.4665  0.1044
16298TIP3    H170385   0.731   2.957  14.668 -0.4858  1.8531  1.0810
16298TIP3    H270386   0.616   2.871  14.619  0.9290  1.1432 -1.0757
16299TIP3   OH270387   0.409   0.100   1.963 -0.0618 -0.0367  0.3179
16299TIP3    H170388   0.454   0.176   2.001 -0.0457  0.3512 -0.4816
16299TIP3    H270389   0.412   0.114   1.869 -1.1454 -0.4240  0.2223
16300TIP3   OH270390   3.538   5.514   3.804  0.4666 -0.3165  0.3557
16300TIP3    H170391   3.523   5.607   3.821  0.9530  0.0775 -1.2639
16300TIP3    H270392   3.507   5.470   3.883  1.8099  1.3355  1.8528
16301TIP3   OH270393   2.145   0.326   2.108  0.3843 -0.1571  0.8448
16301TIP3    H170394   2.141   0.404   2.052  3.5901  0.8758  1.9389
16301TIP3    H270395   2.073   0.271   2.077 -0.1941  1.9757 -1.8466
16302TIP3   OH270396   3.376   2.430   5.621 -0.1117  0.1356 -0.5652
16302TIP3    H170397   3.355   2.345   5.660 -1.4295  0.5670 -0.3111
16302TIP3    H270398   3.333   2.494   5.677  1.3602  1.0244 -0.4220
16303TIP3   OH270399   0.752   2.201   6.178 -0.0356  0.0257  0.5016
16303TIP3    H170400   0.822   2.225   6.239  0.4771 -2.4556  0.9708
16303TIP3    H270401   0.798   2.166   6.101 -0.7422  0.2940 -0.0548
16304TIP3   OH270402   0.749   6.054  17.058  0.4511 -0.3715  0.7724
16304TIP3    H170403   0.716   6.007  16.981  0.9666 -0.9009  0.8732
16304TIP3    H270404   0.740   5.991  17.130  0.9057 -0.2284  0.9531
16305TIP3   OH270405   4.405   4.753  15.577 -0.1504  0.9447 -0.0757
16305TIP3    H170406   4.379   4.828  15.630 -0.7305  0.2738  0.6038
16305TIP3    H270407   4.396   4.783  15.487 -1.1408  1.4434  0.1845
16306TIP3   OH270408   0.340   1.242  14.795 -0.1303 -0.3477 -0.2143
16306TIP3    H170409   0.323   1.156  14.757  0.6549 -1.2351  1.4121
16306TIP3    H270410   0.290   1.244  14.876 -0.3248  0.8247 -0.3461
16307TIP3   OH270411   6.611   0.267  11.215  0.1651 -0.2940  0.2332
16307TIP3    H170412   6.627   0.328  11.287 -1.7433 -0.3533  0.7549
16307TIP3    H270413   6.697   0.231  11.194  1.0733  1.3421  1.0221
16308TIP3   OH270414   0.702   1.842  11.346  0.3690  0.3261  0.3483
16308TIP3    H170415   0.773   1.907  11.349  1.0361 -0.4152  0.9024
16308TIP3    H270416   0.715   1.789  11.425 -1.4328  0.8281  0.9954
16309TIP3   OH270417   2.092   0.937  12.916  0.2380 -0.1736 -0.1185
16309TIP3    H170418   2.055   1.015  12.957 -0.9407 -1.1627  0.7479
16309TIP3    H270419   2.164   0.912  12.974 -0.5409 -0.7565  0.6311
16310TIP3   OH270420   3.943   6.129  14.974 -0.2697 -0.2182 -0.2800
16310TIP3    H170421   3.970   6.181  15.049  0.4161 -0.3595 -0.4227
16310TIP3    H270422   3.849   6.115  14.986 -0.1132 -0.4549  0.6790
16311TIP3   OH270423   1.377   5.455   5.794 -0.0619  0.1740 -0.2591
16311TIP3    H170424   1.445   5.431   5.731 -0.5704  0.8168 -1.0612
16311TIP3    H270425   1.296   5.457   5.743 -0.6867 -0.5577  0.6896
16312TIP3   OH270426   0.118   0.475  14.587  0.4178 -0.3081  0.2237
16312TIP3    H170427   0.086   0.559  14.555 -2.1373 -1.9067 -1.6616
16312TIP3    H270428   0.118   0.483  14.682 -1.7498  1.1705  0.1301
16313TIP3   OH270429   0.671   1.207  12.984  0.2079 -0.2168  0.1371
16313TIP3    H170430   0.581   1.223  13.013 -0.2510 -0.2074 -1.2169
16313TIP3    H270431   0.698   1.289  12.944  0.2198 -0.7158 -0.9083
16314TIP3   OH270432   5.162   1.112  17.087 -0.0439  0.5939  0.0055
16314TIP3    H170433   5.101   1.184  17.102  0.6654  1.3645 -0.7757
16314TIP3    H270434   5.179   1.113  16.993 -1.6004 -1.8716 -0.3623
16315TIP3   OH270435   6.179   1.809   1.137  0.3505  0.2774 -0.5379
16315TIP3    H170436   6.195   1.722   1.172 -0.3879 -0.6764 -2.4882
16315TIP3    H270437   6.084   1.815   1.129  0.4685  0.7273 -1.6968
16316TIP3   OH270438   3.012   5.340   0.749 -0.1101 -0.0631  0.0644
16316TIP3    H170439   3.017   5.283   0.672  0.4344  0.3521 -0.2098
16316TIP3    H270440   2.942   5.403   0.727 -0.3286 -0.2796  0.1366
16317TIP3   OH270441   2.663   0.647   2.569 -0.1702 -0.0809  0.0988
16317TIP3    H170442   2.587   0.643   2.511  0.0854  0.7531 -0.3052
16317TIP3    H270443   2.641   0.714   2.634  1.0129  1.6154 -1.2055
16318TIP3   OH270444   0.260   1.768   3.786  0.4960 -0.0260  0.4657
16318TIP3    H170445   0.251   1.765   3.691 -2.3419  0.5569  0.6772
16318TIP3    H270446   0.315   1.845   3.803  0.1818  0.4523 -0.6470
16319TIP3   OH270447   6.009   1.051  15.419  0.0081 -0.4438  0.2327
16319TIP3    H170448   6.012   1.083  15.329  1.2190  0.2304  0.5064
16319TIP3    H270449   5.942   0.983  15.417 -0.1460 -0.2767 -1.1279
16320TIP3   OH270450   4.195   2.894  13.359  0.3647  0.1536  0.3897
16320TIP3    H170451   4.168   2.954  13.289 -0.4471 -0.2927  0.3197
16320TIP3    H270452   4.125   2.900  13.424 -0.2954 -1.5934 -0.1424
16321TIP3   OH270453   4.810   5.405  14.276 -0.0658  0.0634 -0.2873
16321TIP3    H170454   4.863   5.404  14.197 -0.6480  1.5339 -0.7036
16321TIP3    H270455   4.739   5.344  14.258  0.4921 -0.5563 -0.4050
16322TIP3   OH270456   5.441   2.380   6.072 -0.3652  0.6646  0.3159
16322TIP3    H170457   5.450   2.423   6.157 -1.1601  1.9460 -0.2220
16322TIP3    H270458   5.369   2.427   6.030 -0.5149 -0.4922 -0.7398
16323TIP3   OH270459   1.318   5.149   3.602 -0.1220 -0.3841  0.1333
16323TIP3    H170460   1.410   5.152   3.577  0.0663 -0.5275  0.7890
16323TIP3    H270461   1.272   5.192   3.530  0.2813 -1.7853 -0.9995
16324TIP3   OH270462   3.967   1.224   3.414  0.2496 -0.6185  0.0578
16324TIP3    H170463   4.040   1.214   3.353 -0.1599  0.7622 -0.6519
16324TIP3    H270464   4.004   1.273   3.488  0.2042 -0.4672 -0.0197
16325TIP3   OH270465   5.943   0.333  15.118  0.2262  0.4066 -0.0484
16325TIP3    H170466   5.931   0.345  15.024 -1.3405 -1.7852 -0.1635
16325TIP3    H270467   6.036   0.314  15.128  0.8049  2.6233 -0.9007
16326TIP3   OH270468   0.122   6.306  16.397 -0.0186 -0.1728 -0.1007
16326TIP3    H170469   0.139   6.226  16.347  0.6056 -0.5159  0.6583
16326TIP3    H270470   0.027   6.316  16.395 -0.0169 -0.2696 -1.2278
16327TIP3   OH270471   3.088   5.812  16.567  0.3082  0.5435 -0.0927
16327TIP3    H170472   3.145   5.735  16.561  0.5917  0.6368  1.3692
16327TIP3    H270473   3.038   5.800  16.648 -2.3585  0.0702 -1.7253
16328TIP3   OH270474   0.343   4.799  17.165 -0.1091  0.8305  0.4324
16328TIP3    H170475   0.260   4.833  17.198  0.9400  2.6086  1.3402
16328TIP3    H270476   0.403   4.805  17.239  0.7633 -0.7162 -0.1176
16329TIP3   OH270477   3.121   0.103   2.138  0.4801  0.1298 -0.3371
16329TIP3    H170478   3.185   0.172   2.152 -1.0047  1.3298  0.6754
16329TIP3    H270479   3.146   0.033   2.199  0.5948  0.7614  0.3423
16330TIP3   OH270480   3.159   5.712  12.958 -0.2109  0.0795 -0.2923
16330TIP3    H170481   3.145   5.662  12.877  1.4488 -0.7341 -0.0979
16330TIP3    H270482   3.128   5.654  13.027  3.3902 -1.5325  0.0962
16331TIP3   OH270483   4.143   2.767   6.139  0.8228 -0.1445  0.0107
16331TIP3    H170484   4.095   2.786   6.058 -0.0495 -2.2499 -0.0038
16331TIP3    H270485   4.235   2.759   6.111  0.4979 -1.0678 -0.8128
16332TIP3   OH270486   1.311   1.810  17.237  0.3072  0.0450  0.0297
16332TIP3    H170487   1.308   1.726  17.282  2.3262  0.3390  0.7504
16332TIP3    H270488   1.404   1.826  17.221  0.0761  2.7170  1.0604
16333TIP3   OH270489   3.206   4.308  10.490  0.0657 -0.0112  0.3353
16333TIP3    H170490   3.247   4.382  10.536  0.3292  0.0108  0.0716
16333TIP3    H270491   3.165   4.348  10.412  0.3416 -0.1639  0.1112
16334TIP3   OH270492   2.268   4.923  14.127  0.4860 -0.0042  0.3766
16334TIP3    H170493   2.196   4.861  14.136  0.6793 -0.0826  1.4610
16334TIP3    H270494   2.347   4.871  14.141  0.5941  0.7026  2.4871
16335TIP3   OH270495   3.154   6.530   5.992  0.7065  0.2644 -0.1707
16335TIP3    H170496   3.088   6.489   6.046  1.1732  0.1586  0.3215
16335TIP3    H270497   3.135   6.624   5.998  1.0345  0.2847  0.5402
16336TIP3   OH270498   3.659   0.391  13.648 -0.4877 -0.1481  0.3734
16336TIP3    H170499   3.716   0.440  13.589 -1.1707  0.9477  0.6222
16336TIP3    H270500   3.666   0.300  13.617  1.5619 -0.0700  0.5561
16337TIP3   OH270501   3.372   3.375  14.511 -0.3152 -0.0843  0.2162
16337TIP3    H170502   3.437   3.304  14.510 -0.0626  0.1140  1.5811
16337TIP3    H270503   3.366   3.404  14.420  0.1589 -1.3375 -0.2140
16338TIP3   OH270504   4.660   4.938  15.849 -0.1877 -0.5172 -0.0198
16338TIP3    H170505   4.614   4.984  15.779  0.2385  1.7614  1.1783
16338TIP3    H270506   4.697   4.860  15.806  1.1015  1.4449 -2.6134
16339TIP3   OH270507   3.440   2.956  16.482 -0.3390 -0.7659  0.4221
16339TIP3    H170508   3.492   2.891  16.530 -3.0491 -2.1158  1.6645
16339TIP3    H270509   3.412   3.018  16.548  0.2947  0.3901 -0.3734
16340TIP3   OH270510   6.220   4.114  10.993 -0.3100 -0.2299 -0.4554
16340TIP3    H170511   6.288   4.134  11.058  1.6992  0.4640 -2.6998
16340TIP3    H270512   6.231   4.182  10.926 -2.1327 -1.1274 -1.6926
16341TIP3   OH270513   6.523   2.556  14.137  0.7322 -0.2393 -0.0980
16341TIP3    H170514   6.501   2.475  14.092 -0.7522  0.5387 -0.8154
16341TIP3    H270515   6.491   2.625  14.079 -1.4390  0.7870  2.2239
16342TIP3   OH270516   0.555   4.223  11.369  0.2688 -0.0278  0.3221
16342TIP3    H170517   0.621   4.293  11.364  0.4064  0.1290  3.1004
16342TIP3    H270518   0.472   4.268  11.375  0.0827 -0.1861 -0.9253
16343TIP3   OH270519   1.352   6.252  12.207 -0.5151 -0.3597  0.0528
16343TIP3    H170520   1.447   6.255  12.199 -0.5715  1.1118 -0.1311
16343TIP3    H270521   1.337   6.201  12.286  0.4029 -1.3298 -0.3865
16344TIP3   OH270522   4.192   2.353  12.802 -0.2207  0.0582 -0.6135
16344TIP3    H170523   4.240   2.404  12.737 -1.5261  0.7727 -1.0274
16344TIP3    H270524   4.183   2.411  12.877 -0.4058 -0.0938 -0.5174
16345TIP3   OH270525   6.040   1.878   5.624  0.4926 -0.0190  0.1120
16345TIP3    H170526   6.119   1.893   5.676  0.1421 -1.2493  1.0349
16345TIP3    H270527   5.969   1.881   5.688 -0.2771  1.7403 -0.8148
16346TIP3   OH270528   2.201   0.190  14.560  0.9080  0.0166  0.0355
16346TIP3    H170529   2.204   0.279  14.594  1.5807  0.0835 -0.1950
16346TIP3    H270530   2.116   0.185  14.515  0.5460  0.3047  0.6721
16347TIP3   OH270531   4.811   3.947   1.637  0.6157  0.2521  0.2441
16347TIP3    H170532   4.876   4.012   1.609 -0.3608  1.6230  1.1337
16347TIP3    H270533   4.864   3.875   1.672  1.6681  1.1389  0.5164
16348TIP3   OH270534   3.041   5.887  11.536  0.0958  0.0409  0.0200
16348TIP3    H170535   2.994   5.928  11.464 -0.0333 -0.0514  0.0528
16348TIP3    H270536   3.127   5.867  11.500 -0.0988 -0.3578 -0.2225
16349TIP3   OH270537   5.431   2.743   2.448 -0.1384  0.7431 -0.2313
16349TIP3    H170538   5.395   2.722   2.362  1.0232 -0.9545 -0.3290
16349TIP3    H270539   5.364   2.713   2.510  0.8355 -1.9866 -0.4265
16350TIP3   OH270540   3.261   4.334   3.627 -0.1857  0.0385  0.6486
16350TIP3    H170541   3.265   4.415   3.677 -0.9053 -0.6867  1.9146
16350TIP3    H270542   3.178   4.338   3.580 -0.0656  0.1786  0.4460
16351TIP3   OH270543   1.133   5.068   0.460 -0.2494  0.0753 -0.4280
16351TIP3    H170544   1.216   5.088   0.417 -0.3544  1.3936 -0.0440
16351TIP3    H270545   1.092   5.002   0.404  1.9574 -2.1604  0.4597
16352TIP3   OH270546   6.298   4.801  14.779  0.0902 -0.3563 -0.1215
16352TIP3    H170547   6.378   4.763  14.816 -1.0510 -0.2477  2.6081
16352TIP3    H270548   6.277   4.873  14.838 -2.0381 -0.3994 -0.8072
16353TIP3   OH270549   3.782   2.685  13.455 -0.1657 -0.0355 -0.5888
16353TIP3    H170550   3.818   2.597  13.441  0.1961 -0.1150  0.7852
16353TIP3    H270551   3.858   2.740  13.469 -0.3652  0.6168 -1.9746
16354TIP3   OH270552   6.249   4.316  10.820  0.2673 -0.5161  0.3092
16354TIP3    H170553   6.305   4.382  10.862  0.7134 -0.4633 -0.3551
16354TIP3    H270554   6.289   4.302  10.734 -0.4158 -0.9021  0.0494
16355TIP3   OH270555   6.221   4.737   6.816 -0.5717 -0.1366  0.0119
16355TIP3    H170556   6.140   4.738   6.866 -0.4065 -0.6788  0.2963
16355TIP3    H270557   6.268   4.661   6.849 -0.0214  0.0789 -0.2694
16356TIP3   OH270558   0.662   0.870  13.069 -0.9021  0.1370  0.5671
16356TIP3    H170559   0.613   0.915  13.138 -0.6572 -1.3146  1.7056
16356TIP3    H270560   0.751   0.907  13.076  0.5631 -3.6205  4.5493
16357TIP3   OH270561   3.358   2.514  14.346  0.2299 -0.3223  0.3982
16357TIP3    H170562   3.329   2.458  14.418  1.2000 -0.8125  0.4196
16357TIP3    H270563   3.374   2.454  14.273  0.3841  0.0334  0.1352
16358TIP3   OH270564   4.006   5.377   0.246  0.0385 -0.0282 -0.7973
16358TIP3    H170565   4.005   5.472   0.236  0.3235  0.1227  0.5923
16358TIP3    H270566   3.964   5.344   0.166 -1.4086  1.3060 -0.6064
16359TIP3   OH270567   3.934   4.641  15.427  0.0685  0.0747 -0.4845
16359TIP3    H170568   3.945   4.644  15.522 -1.9181  1.5720 -0.2555
16359TIP3    H270569   4.023   4.643  15.393  0.7714  2.1750  1.3096
16360TIP3   OH270570   4.935   3.007  14.710 -0.4846  0.2099 -0.1696
16360TIP3    H170571   4.868   3.056  14.757 -0.1646 -0.0046  0.5231
16360TIP3    H270572   5.007   2.998  14.773 -0.7556 -1.5964 -0.0909
16361TIP3   OH270573   2.191   1.682   1.080 -0.7890 -0.4005  0.0825
16361TIP3    H170574   2.110   1.718   1.042 -0.8493 -0.3153  0.2850
16361TIP3    H270575   2.182   1.699   1.174 -0.0881  0.4982 -0.0088
16362TIP3   OH270576   1.825   6.165   1.748  0.5593 -0.1396 -0.1066
16362TIP3    H170577   1.889   6.189   1.681  0.5942 -1.5650 -0.5962
16362TIP3    H270578   1.866   6.093   1.796 -0.0367 -0.0361  0.5648
16363TIP3   OH270579   1.331   1.683  14.381  0.2376  0.1718  0.1138
16363TIP3    H170580   1.335   1.588  14.370  0.8742  0.5370 -3.6931
16363TIP3    H270581   1.250   1.709  14.337  0.9975  1.5516 -0.5229
16364TIP3   OH270582   4.461   3.387  16.818 -0.2695  0.5413  0.1259
16364TIP3    H170583   4.490   3.300  16.792  0.5331  0.3879  1.4277
16364TIP3    H270584   4.525   3.446  16.778 -0.1682  0.4463  0.1458
16365TIP3   OH270585   1.190   3.139  13.404 -0.2804  0.2266 -0.1073
16365TIP3    H170586   1.162   3.069  13.346  1.3745  0.7555 -1.5679
16365TIP3    H270587   1.258   3.100  13.459  0.8679  0.7558 -1.1361
16366TIP3   OH270588   5.887   4.437   2.317 -0.5518  0.4679 -0.0123
16366TIP3    H170589   5.967   4.385   2.303  1.8085  2.8664  3.7198
16366TIP3    H270590   5.820   4.372   2.338  1.2075 -1.4087 -0.0016
16367TIP3   OH270591   3.776   6.814  13.023  0.2517  0.7144  0.1656
16367TIP3    H170592   3.775   6.863  12.941  3.0680  0.0685 -0.2941
16367TIP3    H270593   3.815   6.874  13.086 -1.1097  0.8973  0.8490
16368TIP3   OH270594   2.060   4.680   6.058  0.5218  0.4752  0.2104
16368TIP3    H170595   2.053   4.587   6.080  0.6531  0.7104  1.2570
16368TIP3    H270596   2.054   4.725   6.142  0.9402  1.3905 -0.2455
16369TIP3   OH270597   6.368   0.390   2.328 -0.2702  1.1683  0.1575
16369TIP3    H170598   6.365   0.377   2.422  1.1085 -2.9623 -0.2515
16369TIP3    H270599   6.441   0.450   2.315  1.9637 -1.1378  1.5625
16370TIP3   OH270600   3.685   1.403  11.376 -0.0981 -0.6729 -0.2052
16370TIP3    H170601   3.736   1.353  11.439 -0.6111 -0.7588  0.1471
16370TIP3    H270602   3.668   1.342  11.304  0.8172 -0.4588 -0.6096
16371TIP3   OH270603   1.464   3.659  12.076 -0.0717 -0.0079  0.3385
16371TIP3    H170604   1.442   3.751  12.095 -0.2004  0.1327 -0.4645
16371TIP3    H270605   1.379   3.617  12.065 -0.0097 -0.2117  0.6398
16372TIP3   OH270606   3.019   0.118   2.715 -0.2284  0.6777  0.5884
16372TIP3    H170607   3.028   0.170   2.635 -0.4218  0.7591  0.6197
16372TIP3    H270608   2.930   0.084   2.711 -0.4388  1.1692  1.0662
16373TIP3   OH270609   2.265   6.348  10.953  0.1329  0.2692  0.1542
16373TIP3    H170610   2.252   6.331  11.046  0.5007  0.1668  0.1888
16373TIP3    H270611   2.276   6.261  10.914  2.0547  0.4077  0.3337
16374TIP3   OH270612   5.530   3.465   2.809  0.3882 -0.1409  0.0312
16374TIP3    H170613   5.470   3.536   2.786 -1.8615 -1.7852  0.6593
16374TIP3    H270614   5.561   3.432   2.724  0.3366  0.6207 -0.2958
16375TIP3   OH270615   3.837   2.563  14.007 -0.3777 -0.6007  0.2347
16375TIP3    H170616   3.766   2.540  14.067  0.1934  0.4333  1.3227
16375TIP3    H270617   3.917   2.550  14.059  0.0705  1.3563  0.0538
16376TIP3   OH270618   3.219   0.395   4.455  0.1753  0.2423  0.1516
16376TIP3    H170619   3.195   0.471   4.402  1.9881  0.0003 -1.0762
16376TIP3    H270620   3.142   0.339   4.453  0.1779  0.2728 -2.2057
16377TIP3   OH270621   1.614   0.528   3.483  0.1421 -0.0018  0.4567
16377TIP3    H170622   1.573   0.446   3.511 -0.2533 -0.2546 -0.8244
16377TIP3    H270623   1.543   0.592   3.489 -0.0848 -0.1602 -0.4301
16378TIP3   OH270624   6.695   1.254  16.144  0.0198  0.1251  0.0805
16378TIP3    H170625   6.600   1.255  16.136 -0.0448  0.9297  0.8014
16378TIP3    H270626   6.726   1.226  16.058 -0.8691 -0.3169 -0.1038
16379TIP3   OH270627   2.023   1.020  12.034 -0.2781 -0.4931 -0.0372
16379TIP3    H170628   2.067   1.100  12.063 -1.1971 -0.1386  0.4269
16379TIP3    H270629   1.943   1.051  11.992  1.1391 -0.9935 -3.2543
16380TIP3   OH270630   5.737   2.472   6.137  0.5039 -0.4816  0.1831
16380TIP3    H170631   5.803   2.498   6.201 -1.7646  0.7881  2.0654
16380TIP3    H270632   5.685   2.550   6.122 -0.9370 -1.6020 -0.8334
16381TIP3   OH270633   3.270   0.507   4.170  0.2544 -0.1586  0.4749
16381TIP3    H170634   3.194   0.488   4.115 -0.7938  0.4186  1.6867
16381TIP3    H270635   3.331   0.436   4.152 -1.3146 -1.6293  0.7950
16382TIP3   OH270636   5.066   1.209   2.604  0.0442 -0.3029  0.6161
16382TIP3    H170637   5.115   1.131   2.630 -0.9652 -1.1540  0.0002
16382TIP3    H270638   5.124   1.254   2.542  0.5965 -0.6065  0.9122
16383TIP3   OH270639   3.057   6.319  15.997 -0.7213 -0.7113 -0.2648
16383TIP3    H170640   3.029   6.391  15.940 -1.1801 -1.0202 -0.4349
16383TIP3    H270641   3.042   6.240  15.945 -0.9843 -0.9844  0.2144
16384TIP3   OH270642   2.777   3.389   2.959  0.1711 -0.0596 -0.6557
16384TIP3    H170643   2.787   3.305   2.913  0.9426  0.0384 -0.6785
16384TIP3    H270644   2.783   3.366   3.052 -0.6490 -0.1637 -0.6310
16385TIP3   OH270645   1.250   2.921  12.968  0.4893 -0.5700 -0.0184
16385TIP3    H170646   1.338   2.929  12.931  0.7014 -1.4745  0.2875
16385TIP3    H270647   1.237   3.002  13.017  0.5063  0.2971 -1.4273
16386TIP3   OH270648   2.716   6.140   2.238 -0.2935  0.8786 -0.0099
16386TIP3    H170649   2.670   6.220   2.210 -0.8652  0.5156 -0.1239
16386TIP3    H270650   2.733   6.094   2.156 -0.5102  0.5906  0.1096
16387TIP3   OH270651   2.090   0.876   4.119  0.4100  0.0737 -0.5849
16387TIP3    H170652   2.025   0.914   4.060  0.7312 -0.1810 -1.1124
16387TIP3    H270653   2.061   0.786   4.132 -0.1783  0.4044  0.4086
16388TIP3   OH270654   2.885   5.153   3.165  0.2077  0.2569 -0.0077
16388TIP3    H170655   2.894   5.224   3.101  0.0348 -0.0173 -0.3438
16388TIP3    H270656   2.880   5.196   3.250  0.9584  0.5967 -0.1408
16389TIP3   OH270657   2.744   1.717   5.399 -0.2618 -0.5767  0.3799
16389TIP3    H170658   2.670   1.777   5.411  1.2813  2.0441 -2.3929
16389TIP3    H270659   2.718   1.662   5.325 -0.9905 -2.2645  1.8669
16390TIP3   OH270660   2.961   0.841  17.226 -0.3095 -0.1902 -0.4203
16390TIP3    H170661   2.882   0.894  17.215 -0.0593 -0.0738 -1.6337
16390TIP3    H270662   2.960   0.816  17.319 -0.1527  2.3759  0.3030
16391TIP3   OH270663   3.046   5.598   6.693 -0.1478 -0.4658 -0.5204
16391TIP3    H170664   2.956   5.602   6.660  0.1645  0.4208 -1.2883
16391TIP3    H270665   3.051   5.513   6.737 -1.0350 -1.0071 -1.4222
16392TIP3   OH270666   1.950   3.847  15.679  0.2320 -0.0623  0.2979
16392TIP3    H170667   1.982   3.915  15.739 -0.2908 -0.4187  0.9856
16392TIP3    H270668   1.912   3.895  15.606  0.2719  0.3815  0.5682
16393TIP3   OH270669   2.575   6.107   2.521 -0.6267  0.0211 -0.2395
16393TIP3    H170670   2.525   6.183   2.492  0.1344  0.6848  0.1733
16393TIP3    H270671   2.640   6.093   2.452  0.2846  0.7527  0.4499
16394TIP3   OH270672   5.484   2.777  11.380  0.3122 -0.0806 -0.0612
16394TIP3    H170673   5.455   2.832  11.453  0.1460 -0.3942  0.1057
16394TIP3    H270674   5.568   2.815  11.354 -0.1760  0.7519 -0.4656
16395TIP3   OH270675   3.322   0.418   4.814  0.2447 -0.1598  0.4945
16395TIP3    H170676   3.393   0.468   4.853  1.1290 -1.3015  0.3742
16395TIP3    H270677   3.366   0.350   4.762 -0.9221 -2.5684  2.5580
16396TIP3   OH270678   2.309   3.832  14.764 -0.4180  0.5239  0.4360
16396TIP3    H170679   2.267   3.746  14.760 -0.1104  0.3935 -0.0239
16396TIP3    H270680   2.264   3.878  14.835 -0.2860 -0.1842  0.9873
16397TIP3   OH270681   0.770   4.807  11.742  0.0458  0.3251 -0.4008
16397TIP3    H170682   0.717   4.742  11.696 -0.3714  0.4549 -0.0976
16397TIP3    H270683   0.711   4.847  11.805  0.6453  0.0677  0.3323
16398TIP3   OH270684   3.462   0.781  15.258 -0.0351 -0.3959  0.0144
16398TIP3    H170685   3.523   0.740  15.197 -0.9795  1.6941 -2.4100
16398TIP3    H270686   3.474   0.875  15.245 -1.2622  0.0747  2.0433
16399TIP3   OH270687   1.218   6.489  14.631  0.3204  0.6388 -0.0652
16399TIP3    H170688   1.183   6.531  14.552 -1.1643  1.0449  0.7964
16399TIP3    H270689   1.215   6.395  14.613  1.1578  0.7805 -0.9667
16400TIP3   OH270690   3.546   6.064  13.296 -0.0288  0.2181  0.0725
16400TIP3    H170691   3.494   6.012  13.233 -1.6215 -1.2965  2.5485
16400TIP3    H270692   3.636   6.036  13.280 -0.3957 -0.1508 -1.5266
16401TIP3   OH270693   1.289   0.302   1.657  0.6325 -0.5079 -0.0237
16401TIP3    H170694   1.342   0.267   1.585  0.9618  1.4490 -0.7567
16401TIP3    H270695   1.329   0.266   1.736  1.7449 -0.7727 -0.6916
16402TIP3   OH270696   0.266   4.126  11.670  0.0389 -0.0399 -0.1461
16402TIP3    H170697   0.256   4.041  11.712  2.5102  0.2701  1.1559
16402TIP3    H270698   0.257   4.189  11.741 -1.1431  0.7893 -1.0056
16403TIP3   OH270699   1.129   6.085   1.653  0.4169  0.7296 -0.4577
16403TIP3    H170700   1.047   6.043   1.630 -0.1040  1.6627 -0.3432
16403TIP3    H270701   1.192   6.053   1.588 -0.4487  1.3959 -1.6479
16404TIP3   OH270702   2.170   5.679   5.256  0.4573  0.6202  0.2356
16404TIP3    H170703   2.197   5.587   5.262 -0.9765  0.1483 -0.4404
16404TIP3    H270704   2.114   5.693   5.333 -1.2850  0.2422 -0.9408
16405TIP3   OH270705   4.162   1.859  13.295  0.2595 -0.5948 -0.2051
16405TIP3    H170706   4.114   1.828  13.372 -1.2201  0.6141 -0.6270
16405TIP3    H270707   4.132   1.802  13.224  1.9604 -2.0072  0.1597
16406TIP3   OH270708   6.116   0.478   3.506  0.2893 -0.2426 -0.1146
16406TIP3    H170709   6.160   0.409   3.457  1.8943 -0.1413  1.1337
16406TIP3    H270710   6.175   0.553   3.501 -0.5795  0.4682  0.0794
16407TIP3   OH270711   6.071   3.802  14.374  0.1811 -0.3952  0.2409
16407TIP3    H170712   6.104   3.875  14.426 -0.0674  0.3875 -0.6939
16407TIP3    H270713   6.014   3.753  14.433  0.0083  0.4144  0.7353
16408TIP3   OH270714   6.414   2.822   1.829 -0.1225 -0.1767 -0.4304
16408TIP3    H170715   6.401   2.914   1.806  0.4193  0.2345  0.8487
16408TIP3    H270716   6.450   2.825   1.918  2.4334 -1.4879 -1.3581
16409TIP3   OH270717   4.220   3.481   1.956 -0.1033 -0.2774  0.0825
16409TIP3    H170718   4.217   3.399   2.006  2.9186 -0.9621 -0.7736
16409TIP3    H270719   4.209   3.454   1.865  0.5666  0.3136 -0.1756
16410TIP3   OH270720   4.076   1.599  12.161 -0.0931 -0.6676  0.0618
16410TIP3    H170721   4.154   1.644  12.195 -0.6359 -1.5289  2.5883
16410TIP3    H270722   4.088   1.508  12.189 -2.1334 -0.7467  0.7619
16411TIP3   OH270723   1.557   5.096  15.793 -0.3766  0.1145  0.0575
16411TIP3    H170724   1.558   5.146  15.874  1.1630 -0.0605  0.1647
16411TIP3    H270725   1.643   5.112  15.754 -0.5792 -0.9286 -0.8459
16412TIP3   OH270726   4.895   0.775  16.112  0.0962 -0.4958 -0.4196
16412TIP3    H170727   4.991   0.777  16.116  0.0753 -2.0970  1.7353
16412TIP3    H270728   4.875   0.702  16.054  0.1636  0.1853 -1.3172
16413TIP3   OH270729   4.863   0.687   0.768  0.0109 -0.8201 -0.5628
16413TIP3    H170730   4.884   0.777   0.741  1.0981  0.2626  3.5244
16413TIP3    H270731   4.942   0.656   0.811 -1.1354 -2.9379  0.0731
16414TIP3   OH270732   6.564   4.101   6.055 -0.3031  0.1856 -0.4102
16414TIP3    H170733   6.505   4.145   6.115 -1.2313  0.4722 -1.5136
16414TIP3    H270734   6.522   4.110   5.969  0.9281 -0.3265 -1.0792
16415TIP3   OH270735   3.338   3.705  15.194  0.5696 -0.3557 -0.3877
16415TIP3    H170736   3.283   3.671  15.265  1.2770 -0.9631 -0.1308
16415TIP3    H270737   3.349   3.632  15.134 -0.9345  0.4663 -1.7085
16416TIP3   OH270738   1.666   6.135  14.787 -0.5793 -0.6726  0.6975
16416TIP3    H170739   1.582   6.090  14.779 -0.7834  0.2548 -3.5312
16416TIP3    H270740   1.648   6.225  14.761  1.6920 -0.5037 -0.4538
16417TIP3   OH270741   2.186   6.588  10.509 -0.1121 -0.3944  0.2437
16417TIP3    H170742   2.279   6.613  10.511  0.0928 -1.0589 -0.5523
16417TIP3    H270743   2.169   6.554  10.597  0.0648  0.8987  0.7774
16418TIP3   OH270744   1.103   1.505   3.621 -0.0473  0.2947  0.0803
16418TIP3    H170745   1.013   1.477   3.632 -0.3476  1.3615  0.4602
16418TIP3    H270746   1.118   1.505   3.527 -0.2008 -0.6132  0.0552
16419TIP3   OH270747   5.091   3.077   2.910 -0.1330 -0.4537  0.0292
16419TIP3    H170748   5.149   3.011   2.872 -0.2871 -1.2227  1.1189
16419TIP3    H270749   5.014   3.076   2.853  0.0639 -0.8857 -0.2339
16420TIP3   OH270750   3.758   0.212  14.555  0.2849  0.1558 -0.0651
16420TIP3    H170751   3.838   0.238  14.599  0.3590 -0.5312  0.2184
16420TIP3    H270752   3.781   0.131  14.509 -0.2468 -0.0659  0.0518
16421TIP3   OH270753   1.691   6.451  17.064  0.1221 -0.0309 -0.0228
16421TIP3    H170754   1.643   6.530  17.090 -1.2206 -1.2245  1.2396
16421TIP3    H270755   1.657   6.432  16.976 -0.0046  0.4387 -0.0827
16422TIP3   OH270756   4.949   4.959   4.013  0.1395  0.0709 -0.1630
16422TIP3    H170757   4.886   4.970   4.085  0.4647 -1.7125  0.4451
16422TIP3    H270758   4.922   4.878   3.970  1.0491  0.1488 -0.9005
16423TIP3   OH270759   0.457   4.129  16.276  0.2228 -0.2234  0.3938
16423TIP3    H170760   0.497   4.068  16.213  0.6386 -0.4493  0.8653
16423TIP3    H270761   0.475   4.216  16.241 -0.7704 -0.3849 -0.5255
16424TIP3   OH270762   2.750   4.573  11.738 -0.6884 -0.2258  1.1609
16424TIP3    H170763   2.789   4.495  11.698 -0.5184 -0.4117  1.6953
16424TIP3    H270764   2.802   4.646  11.703 -0.9815 -0.3277  0.4961
16425TIP3   OH270765   1.095   4.539   1.174  0.5871  0.3615 -0.6221
16425TIP3    H170766   1.167   4.487   1.211 -1.7510 -0.4765  3.0390
16425TIP3    H270767   1.117   4.629   1.197  0.7214  0.1573  0.0628
16426TIP3   OH270768   5.742   1.308  17.077  0.0547 -0.0955 -0.5521
16426TIP3    H170769   5.696   1.224  17.075 -0.0701 -0.0969  1.6926
16426TIP3    H270770   5.698   1.359  17.145  0.6560  1.4999 -1.3233
16427TIP3   OH270771   6.156   6.372   4.322  0.4480  0.8426 -0.4970
16427TIP3    H170772   6.134   6.381   4.229  1.7615  0.3456 -0.8758
16427TIP3    H270773   6.195   6.456   4.345 -0.7344  1.2971 -0.1440
16428TIP3   OH270774   4.506   3.534   2.532 -0.5178 -0.4360  0.2410
16428TIP3    H170775   4.424   3.516   2.486 -0.2625 -0.1507 -0.3309
16428TIP3    H270776   4.563   3.461   2.507 -0.7860 -0.9544  1.1130
16429TIP3   OH270777   0.726   6.810  10.869 -0.3523 -0.7458  0.0161
16429TIP3    H170778   0.744   6.888  10.817  2.0372 -0.5738  1.0198
16429TIP3    H270779   0.648   6.832  10.919  0.7734  1.3521  0.9238
16430TIP3   OH270780   3.782   6.808   6.269  0.0307  0.1105  0.1021
16430TIP3    H170781   3.717   6.852   6.216  0.5024  1.0929  0.3374
16430TIP3    H270782   3.765   6.714   6.255  1.0584  0.3283 -2.8658
16431TIP3   OH270783   0.221   4.241  13.675  0.2667  0.1139 -0.1686
16431TIP3    H170784   0.155   4.188  13.720 -0.0831  1.4223  0.9105
16431TIP3    H270785   0.207   4.224  13.582 -0.7864 -0.5676  0.1106
16432TIP3   OH270786   2.754   3.065  16.433 -0.2147  0.9875 -0.8104
16432TIP3    H170787   2.800   3.121  16.495  0.8203  0.4041 -1.0319
16432TIP3    H270788   2.810   2.987  16.425 -1.6275 -0.0731 -0.5083
16433TIP3   OH270789   5.175   6.358  15.488 -0.1724 -0.1179  0.3853
16433TIP3    H170790   5.248   6.410  15.453  1.3992 -0.6512  2.8063
16433TIP3    H270791   5.188   6.271  15.450 -0.2167  0.0727 -0.0794
16434TIP3   OH270792   2.583   2.049   0.027 -0.1067  0.3850  0.8716
16434TIP3    H170793   2.493   2.080   0.014  0.5708  1.9754 -0.1742
16434TIP3    H270794   2.600   1.993  -0.048  0.2424  1.2261  0.3108
16435TIP3   OH270795   0.330   5.205   3.891 -0.0736 -0.6843 -0.3569
16435TIP3    H170796   0.258   5.157   3.850 -1.0693  0.8003 -0.3907
16435TIP3    H270797   0.310   5.298   3.875 -0.8299  0.0186  4.0148
16436TIP3   OH270798   2.611   2.999   3.797 -0.6103  0.1596 -0.6267
16436TIP3    H170799   2.531   3.036   3.761 -1.0447 -0.6641 -0.5210
16436TIP3    H270800   2.680   3.025   3.736 -1.2084 -0.4828 -1.5843
16437TIP3   OH270801   0.914   4.112   0.850 -0.1137 -0.5749 -0.0504
16437TIP3    H170802   0.880   4.195   0.819  0.0116  0.0571  1.4719
16437TIP3    H270803   0.843   4.076   0.904  0.7583 -0.3048  1.2849
16438TIP3   OH270804   6.512   3.780  14.229  0.1683 -0.0852  0.0151
16438TIP3    H170805   6.456   3.766  14.305 -0.7474 -2.5507 -1.0704
16438TIP3    H270806   6.480   3.860  14.189 -0.5531  0.2135  1.1903
16439TIP3   OH270807   5.827   4.857  17.008 -0.0312 -0.0374  0.3003
16439TIP3    H170808   5.859   4.791  17.070  0.8343  0.3115  0.2221
16439TIP3    H270809   5.746   4.889  17.048  0.4693  0.1164  1.2023
16440TIP3   OH270810   5.119   1.468  14.396 -0.0686 -0.3685 -0.0868
16440TIP3    H170811   5.061   1.396  14.371 -0.1761  0.3579 -2.0045
16440TIP3    H270812   5.168   1.489  14.316  0.1403  1.5103  0.5031
16441TIP3   OH270813   3.049   5.576  12.684  0.2180 -0.6570 -0.8218
16441TIP3    H170814   3.082   5.635  12.616  1.1530 -0.4333 -0.1852
16441TIP3    H270815   3.065   5.489  12.649  0.4061 -0.5429 -1.0251
16442TIP3   OH270816   1.754   0.070  16.936  0.1610  0.2891  0.2578
16442TIP3    H170817   1.836   0.032  16.968  0.7975  0.3623 -1.2550
16442TIP3    H270818   1.733   0.018  16.858 -0.9262  0.6573  0.3002
16443TIP3   OH270819   6.360   2.689  13.125  0.2616 -0.7940  0.7817
16443TIP3    H170820   6.310   2.628  13.071  0.9183 -0.6105 -0.0525
16443TIP3    H270821   6.397   2.635  13.194 -2.6975 -0.6121  2.6021
16444TIP3   OH270822   5.919   3.660   2.289 -0.4495 -0.4183 -0.0431
16444TIP3    H170823   5.889   3.585   2.237 -1.3272 -0.2551  0.2186
16444TIP3    H270824   6.014   3.650   2.293 -0.4277 -0.7685 -1.1633
16445TIP3   OH270825   4.639   4.224   1.618  0.4037 -0.2564 -1.1952
16445TIP3    H170826   4.635   4.129   1.605 -0.3805 -0.2379 -1.1462
16445TIP3    H270827   4.729   4.241   1.644 -0.1873 -1.3849  1.8375
16446TIP3   OH270828   6.422   5.007   2.131 -0.7153  0.2938  0.2778
16446TIP3    H170829   6.328   5.017   2.144 -0.7318  0.4838  0.0155
16446TIP3    H270830   6.460   5.032   2.216 -1.0230 -2.0008  1.1208
16447TIP3   OH270831   2.620   1.311   1.813  0.5603  0.3828  0.1581
16447TIP3    H170832   2.695   1.303   1.873  0.5249  0.3009  0.1918
16447TIP3    H270833   2.646   1.260   1.737 -1.1213 -3.0912  1.8036
16448TIP3   OH270834   5.992   3.385  13.307 -0.7846  0.2817 -0.0229
16448TIP3    H170835   5.945   3.455  13.261  1.0454  0.3246 -1.8959
16448TIP3    H270836   5.990   3.411  13.399 -1.9895  1.6984 -0.4348
16449TIP3   OH270837   5.892   1.757  11.758 -0.2031 -0.2132  0.2583
16449TIP3    H170838   5.859   1.743  11.847  1.6515  1.6926  1.3202
16449TIP3    H270839   5.867   1.678  11.710 -1.2637 -1.2806  2.4750
16450TIP3   OH270840   3.169   1.002   5.348 -0.1583  0.6630  0.0422
16450TIP3    H170841   3.092   0.964   5.389  0.2905  1.5562  1.7697
16450TIP3    H270842   3.137   1.081   5.305  0.0822  1.9840  2.2574
16451TIP3   OH270843   5.612   5.345   2.518 -0.7427 -0.0795 -0.0888
16451TIP3    H170844   5.569   5.260   2.502 -1.1541  0.2135 -0.5735
16451TIP3    H270845   5.655   5.334   2.603 -1.7283 -0.4107  0.3833
16452TIP3   OH270846   3.581   6.546   4.307 -0.3097  0.4562  1.0173
16452TIP3    H170847   3.557   6.497   4.386 -2.1429  0.7652  0.6807
16452TIP3    H270848   3.543   6.495   4.236  3.1119 -0.9503  0.1195
16453TIP3   OH270849   6.637   2.527   3.676 -0.3347 -0.2811 -0.2370
16453TIP3    H170850   6.646   2.436   3.645  0.2190 -0.9147  1.7236
16453TIP3    H270851   6.640   2.579   3.596 -0.6817 -1.9904 -1.4103
16454TIP3   OH270852   3.685   2.440   3.113 -0.3699 -0.1716  0.0065
16454TIP3    H170853   3.608   2.389   3.137 -1.3340  0.9668 -0.6339
16454TIP3    H270854   3.665   2.529   3.141  0.0274  0.4526 -1.6508
16455TIP3   OH270855   2.058   4.853   6.263 -0.0414  0.5953 -0.6051
16455TIP3    H170856   2.151   4.837   6.248 -0.1952  0.0958 -1.0181
16455TIP3    H270857   2.053   4.884   6.354  0.4491 -0.0503 -0.3565
16456TIP3   OH270858   2.412   3.321   1.034 -0.0569 -0.3526 -0.1416
16456TIP3    H170859   2.500   3.342   1.003 -0.7920  1.2704 -1.1589
16456TIP3    H270860   2.370   3.278   0.960  0.4581 -2.8218  0.9530
16457TIP3   OH270861   5.812   3.892   4.381  0.5343 -0.4819 -0.2283
16457TIP3    H170862   5.785   3.803   4.359  0.0480 -0.4631  0.2679
16457TIP3    H270863   5.869   3.919   4.309 -0.3299 -0.7270 -1.0121
16458TIP3   OH270864   1.927   1.825   5.368  0.2549  0.3453 -0.1605
16458TIP3    H170865   1.882   1.769   5.304 -1.3213  0.8341  0.4869
16458TIP3    H270866   1.949   1.766   5.440  0.3406  0.1627 -0.3371
16459TIP3   OH270867   5.251   1.764  13.789 -0.1759 -0.5843 -0.0385
16459TIP3    H170868   5.302   1.782  13.868 -1.3248 -0.6652  0.7296
16459TIP3    H270869   5.305   1.798  13.718  0.2694  0.7450  0.9020
16460TIP3   OH270870   5.232   6.073   3.351 -0.1546  0.1990 -0.0946
16460TIP3    H170871   5.136   6.069   3.360 -0.1514  0.3986  0.0362
16460TIP3    H270872   5.252   6.007   3.285 -0.3494 -0.0768  0.1218
16461TIP3   OH270873   5.479   2.116   2.653 -0.1943  0.0952 -0.0556
16461TIP3    H170874   5.478   2.171   2.575 -0.7369 -1.0569 -0.8863
16461TIP3    H270875   5.460   2.028   2.620  0.8753 -0.6281  1.2088
16462TIP3   OH270876   2.762   2.947   0.582 -0.3426 -0.5153 -0.0608
16462TIP3    H170877   2.811   2.895   0.645  0.7459  1.7264  1.0227
16462TIP3    H270878   2.681   2.970   0.626 -1.1606 -1.9135 -0.8216
16463TIP3   OH270879   1.117   3.769   4.125 -0.3978 -0.4298 -0.2404
16463TIP3    H170880   1.111   3.803   4.215  1.5112  0.0278 -0.2782
16463TIP3    H270881   1.044   3.810   4.079 -2.9959 -2.6489  1.7142
16464TIP3   OH270882   3.172   3.518   1.916  0.2816  0.1327 -0.2488
16464TIP3    H170883   3.155   3.612   1.923 -2.4047 -0.1898 -1.6254
16464TIP3    H270884   3.086   3.479   1.899  1.8331 -2.2180 -3.2307
16465TIP3   OH270885   1.655   6.753  13.870 -0.1156 -0.6113 -0.5879
16465TIP3    H170886   1.576   6.807  13.870  0.6184  0.4742 -0.9133
16465TIP3    H270887   1.689   6.760  13.960  0.1424 -0.2902 -0.7103
16466TIP3   OH270888   3.186   3.660  12.341 -0.5656  0.4084  0.2316
16466TIP3    H170889   3.208   3.728  12.277 -0.9767 -0.5968 -0.9988
16466TIP3    H270890   3.232   3.686  12.421  1.1566  0.8852 -0.9102
16467TIP3   OH270891   1.527   3.953  16.511 -0.1210  0.1129 -0.0823
16467TIP3    H170892   1.472   3.961  16.590 -0.5079 -2.5685 -0.0295
16467TIP3    H270893   1.496   4.022  16.453 -2.0568  0.0666  0.8593
16468TIP3   OH270894   0.327   3.638   0.017 -0.1520  0.3951  0.2772
16468TIP3    H170895   0.309   3.548   0.043 -0.7267  0.7906  1.2771
16468TIP3    H270896   0.408   3.660   0.062  0.4290  0.1231 -0.6108
16469TIP3   OH270897   4.442   1.383  13.352 -0.0950 -0.1325  0.1802
16469TIP3    H170898   4.403   1.415  13.433  0.5599  0.1179  0.3944
16469TIP3    H270899   4.537   1.382  13.369 -0.0592 -1.7255  0.0287
16470TIP3   OH270900   3.851   2.273  11.928  0.1708 -0.1860  0.0395
16470TIP3    H170901   3.762   2.281  11.895  0.2655 -0.1173 -0.2034
16470TIP3    H270902   3.866   2.179  11.936 -0.9256 -0.1772  2.8400
16471TIP3   OH270903   3.619   4.939  10.220 -0.3391 -0.6441 -0.0504
16471TIP3    H170904   3.549   4.876  10.202 -0.8664  0.0324 -0.4095
16471TIP3    H270905   3.574   5.014  10.259  0.6039 -1.5244  2.8912
16472TIP3   OH270906   1.491   0.600  12.895  0.5669 -0.0434  0.0099
16472TIP3    H170907   1.499   0.629  12.986  0.2376 -0.0307  0.0358
16472TIP3    H270908   1.464   0.508  12.901  2.2993 -0.5854 -0.0617
16473TIP3   OH270909   0.234   6.712   2.488 -0.0370 -0.4001  0.2634
16473TIP3    H170910   0.300   6.644   2.473  1.1586  0.3832  1.8664
16473TIP3    H270911   0.245   6.772   2.415  0.3623 -0.7805  0.0069
16474TIP3   OH270912   6.021   1.522   3.150 -0.2883 -0.4587  0.1590
16474TIP3    H170913   6.022   1.462   3.225  0.9828 -1.1047 -0.3568
16474TIP3    H270914   5.973   1.476   3.082  1.3669 -1.2405 -0.5011
16475TIP3   OH270915   0.297   1.979  14.190  0.0652 -0.4124  0.9874
16475TIP3    H170916   0.316   2.067  14.221 -0.6425 -0.3224  1.1883
16475TIP3    H270917   0.382   1.935  14.187  0.2085 -0.2538  2.5543
16476TIP3   OH270918   2.445   5.399  15.486 -0.0896 -0.4117  0.4557
16476TIP3    H170919   2.451   5.453  15.407 -1.4551 -1.4563 -0.3865
16476TIP3    H270920   2.402   5.454  15.551 -0.0176  0.0463  0.1133
16477TIP3   OH270921   5.923   3.125  12.712 -0.5823  0.3131  0.0490
16477TIP3    H170922   5.968   3.183  12.651 -0.9031 -0.2223 -0.7134
16477TIP3    H270923   5.961   3.038  12.695  0.7928  0.4933  2.0483
16478TIP3   OH270924   0.229   5.027  10.812 -0.1809 -0.9592  0.0205
16478TIP3    H170925   0.162   4.963  10.790  0.5409 -2.4145  1.8881
16478TIP3    H270926   0.213   5.101  10.753 -1.3453 -2.6439 -1.8131
16479TIP3   OH270927   0.226   6.056   4.589 -0.5762 -0.0026 -0.0878
16479TIP3    H170928   0.297   5.997   4.614  0.3432  2.0386  2.2650
16479TIP3    H270929   0.270   6.135   4.558 -1.8178  1.0983  0.9207
16480TIP3   OH270930   1.735   1.183  14.941 -0.8679  0.2868  0.1046
16480TIP3    H170931   1.776   1.260  14.978  0.5712  0.0930 -1.0523
16480TIP3    H270932   1.673   1.217  14.876 -0.6670  0.4990  0.0240
16481TIP3   OH270933   1.268   0.939   1.732  0.2529 -0.3351 -0.1759
16481TIP3    H170934   1.267   0.869   1.798  1.8319 -1.0391 -0.8773
16481TIP3    H270935   1.188   0.988   1.749 -2.0267 -3.5928 -1.0298
16482TIP3   OH270936   2.668   0.141   4.510  0.4601  0.0165  0.3235
16482TIP3    H170937   2.677   0.160   4.416 -1.3563  1.0561  0.3450
16482TIP3    H270938   2.676   0.226   4.553  3.8870 -0.7529  1.3576
16483TIP3   OH270939   6.461   3.597   2.813  0.0156 -0.0871 -0.4852
16483TIP3    H170940   6.548   3.562   2.831 -0.7124 -0.2893  2.9696
16483TIP3    H270941   6.475   3.690   2.797  0.7065  0.2331  1.8194
16484TIP3   OH270942   4.486   0.310  14.512  0.2134  0.2454  0.0504
16484TIP3    H170943   4.472   0.269  14.427  1.0055 -0.4880  0.2735
16484TIP3    H270944   4.440   0.252  14.574 -0.0573  0.5819  0.1666
16485TIP3   OH270945   3.225   4.772   4.041 -0.3598  0.6955 -0.3384
16485TIP3    H170946   3.320   4.781   4.051 -0.5097  1.0308  0.7657
16485TIP3    H270947   3.203   4.833   3.970  0.2859  0.3730 -0.8276
16486TIP3   OH270948   2.058   1.189  15.466  0.1716 -0.2552  0.6365
16486TIP3    H170949   2.019   1.216  15.548 -0.3629  0.4262  0.1639
16486TIP3    H270950   2.150   1.214  15.473 -0.0789  0.6736  0.6443
16487TIP3   OH270951   4.227   4.842   1.851  0.2694 -0.0183  0.0903
16487TIP3    H170952   4.173   4.871   1.925  1.2534  2.4073 -0.1207
16487TIP3    H270953   4.166   4.838   1.777 -0.2615 -0.3461  0.5403
16488TIP3   OH270954   3.569   5.014  12.449  0.2597  0.2879 -0.0611
16488TIP3    H170955   3.478   5.029  12.472  0.1122 -0.3558 -0.2249
16488TIP3    H270956   3.582   5.061  12.367 -0.2985 -0.7816 -0.7642
16489TIP3   OH270957   1.389   0.737   3.502  0.5016 -0.1854  0.6632
16489TIP3    H170958   1.396   0.712   3.595  0.3580  0.5259  0.8678
16489TIP3    H270959   1.300   0.770   3.493  1.1071  1.4914  0.6996
16490TIP3   OH270960   2.351   5.564  14.277 -0.1183  0.0125 -0.0250
16490TIP3    H170961   2.355   5.605  14.191 -0.5074  2.2178  0.9838
16490TIP3    H270962   2.442   5.545  14.299  0.0131 -0.2088 -0.7487
16491TIP3   OH270963   4.965   4.858  10.447 -0.1888 -0.2746 -0.0371
16491TIP3    H170964   4.936   4.850  10.538  0.6948 -2.8101  0.0630
16491TIP3    H270965   5.016   4.939  10.446 -0.6600  0.0686  1.6043
16492TIP3   OH270966   2.294   6.157   0.805 -0.4558 -0.1036 -0.0261
16492TIP3    H170967   2.276   6.244   0.768 -1.2962 -0.3483 -0.1868
16492TIP3    H270968   2.390   6.155   0.815 -0.3797  0.6135 -0.5753
16493TIP3   OH270969   4.958   6.468  14.838  0.0708 -0.7431 -0.1078
16493TIP3    H170970   4.969   6.437  14.928 -0.7038 -0.0960  0.2054
16493TIP3    H270971   4.994   6.397  14.785  1.1536 -0.8339  0.7319
16494TIP3   OH270972   4.916   4.709   3.659 -0.3439 -0.1707  0.7497
16494TIP3    H170973   4.968   4.654   3.601 -0.8238 -0.2336  0.3769
16494TIP3    H270974   4.829   4.711   3.619 -0.4318  0.5453  0.9690
16495TIP3   OH270975   4.795   5.592  17.229 -0.0888  0.5110  0.0165
16495TIP3    H170976   4.740   5.563  17.156 -1.4461  0.2867  1.1068
16495TIP3    H270977   4.738   5.650  17.280  0.2508 -0.7748  1.9052
16496TIP3   OH270978   0.536   0.112   4.297  0.0904 -0.7422  0.4688
16496TIP3    H170979   0.498   0.188   4.340 -0.2549 -0.3698 -0.4825
16496TIP3    H270980   0.531   0.042   4.363 -1.6252 -0.5175  0.6098
16497TIP3   OH270981   6.102   5.847  16.762  0.1098  0.3452 -0.4380
16497TIP3    H170982   6.061   5.924  16.801  0.8937  0.1123  0.8702
16497TIP3    H270983   6.178   5.829  16.818 -0.5385 -1.8891 -0.2268
16498TIP3   OH270984   5.865   0.099   1.714  0.1481 -0.0569 -0.1699
16498TIP3    H170985   5.836   0.126   1.801 -2.0676  0.7366 -1.1282
16498TIP3    H270986   5.806   0.028   1.690  1.3977 -0.9583 -0.6231
16499TIP3   OH270987   6.283   3.169  12.725  0.2504 -0.6010 -0.3824
16499TIP3    H170988   6.371   3.148  12.692  1.1394 -0.8084  2.0544
16499TIP3    H270989   6.280   3.131  12.812 -1.7587  0.6762  0.1340
16500TIP3   OH270990   3.023   2.026  15.015  0.2977  0.3342  0.4607
16500TIP3    H170991   2.977   1.984  15.088  1.1824 -3.0128 -0.7893
16500TIP3    H270992   3.110   2.047  15.051 -0.5972  2.3752  1.4800
16501TIP3   OH270993   3.114   4.307   0.637  0.8159 -0.5512 -0.3194
16501TIP3    H170994   3.146   4.395   0.617 -0.6493  0.0060 -0.2107
16501TIP3    H270995   3.192   4.252   0.628  1.8237  0.7902 -0.0717
16502TIP3   OH270996   0.224   6.418   1.954  0.4187 -0.4499 -0.2694
16502TIP3    H170997   0.273   6.390   1.877  1.7683  0.1508  0.3528
16502TIP3    H270998   0.217   6.513   1.945 -2.3936 -0.7054 -1.3549
16503TIP3   OH270999   2.209   1.183  12.623  0.2128  0.5550  0.4462
16503TIP3    H171000   2.238   1.220  12.540 -0.7959 -1.2339 -0.7301
16503TIP3    H271001   2.120   1.153  12.607 -1.2686  3.2240  3.1653
16504TIP3   OH271002   2.001   2.051   1.696  0.1289  0.2612 -0.3499
16504TIP3    H171003   1.956   1.996   1.760  0.4343 -0.8127 -1.0319
16504TIP3    H271004   2.062   2.104   1.747  0.2426 -0.4502  0.2564
16505TIP3   OH271005   2.093   5.291  12.754 -0.3978 -0.0252 -1.0004
16505TIP3    H171006   2.006   5.298  12.716 -0.3750 -0.0188 -1.0524
16505TIP3    H271007   2.078   5.270  12.846 -0.4662  0.8460 -0.8114
16506TIP3   OH271008   4.996   3.550   3.448  0.3463 -0.5731  0.0778
16506TIP3    H171009   5.049   3.475   3.474 -0.0662 -0.6430  0.7261
16506TIP3    H271010   5.045   3.590   3.376  2.8795  1.1606  2.6340
16507TIP3   OH271011   3.280   5.784   3.805 -0.1458  0.0121 -0.4101
16507TIP3    H171012   3.342   5.857   3.810 -0.3079  0.1924 -0.9660
16507TIP3    H271013   3.253   5.769   3.896 -0.3421  0.8487 -0.3261
16508TIP3   OH271014   1.613   4.543   4.206  0.0949  0.4455 -0.9713
16508TIP3    H171015   1.643   4.622   4.161  0.4877  0.8011 -0.0956
16508TIP3    H271016   1.679   4.477   4.186  0.1119  0.5232 -1.1687
16509TIP3   OH271017   6.145   5.149  16.275  0.1995  0.2176 -0.2762
16509TIP3    H171018   6.141   5.064  16.319  3.0927  1.2365  2.0617
16509TIP3    H271019   6.228   5.148  16.228 -1.7429  0.1073 -3.8843
16510TIP3   OH271020   3.289   6.466  13.958 -0.3495  0.4420 -0.7325
16510TIP3    H171021   3.245   6.550  13.975  0.4750  1.0757 -1.6595
16510TIP3    H271022   3.231   6.400  13.995 -0.5536  1.5013  0.8726
16511TIP3   OH271023   5.644   4.843  14.838  0.2021  0.0918  0.3584
16511TIP3    H171024   5.593   4.792  14.901 -0.3132  1.1981  0.8537
16511TIP3    H271025   5.585   4.853  14.763  0.3957 -0.2481  0.1585
16512TIP3   OH271026   4.660   1.179  15.344  0.4493 -0.3150 -0.5683
16512TIP3    H171027   4.573   1.174  15.304  0.5158  0.3045 -0.8005
16512TIP3    H271028   4.711   1.235  15.285  0.5621  0.5547  0.3386
16513TIP3   OH271029   6.441   0.238   5.292 -0.0640  0.1828 -0.2521
16513TIP3    H171030   6.352   0.207   5.272 -0.3192  1.8664 -1.7690
16513TIP3    H271031   6.463   0.194   5.374 -1.7801 -1.2918 -0.5476
16514TIP3   OH271032   6.314   0.983   0.796  0.7299 -0.5611 -0.1872
16514TIP3    H171033   6.266   1.066   0.804  0.1808 -1.0164  1.4415
16514TIP3    H271034   6.274   0.939   0.721 -0.1598 -0.1193  0.0151
16515TIP3   OH271035   1.203   4.220  13.539  0.1561  0.8106  0.2052
16515TIP3    H171036   1.276   4.260  13.491  0.9005 -0.7171  0.0360
16515TIP3    H271037   1.234   4.132  13.561 -0.2583  1.3889  3.3084
16516TIP3   OH271038   5.504   6.444  13.295 -0.2139 -0.3726 -0.3093
16516TIP3    H171039   5.468   6.455  13.383  0.9492  0.7798  0.0367
16516TIP3    H271040   5.533   6.531  13.269  2.2989 -1.2306 -0.5679
16517TIP3   OH271041   0.576   2.018   5.759  0.2810  0.1752 -0.4416
16517TIP3    H171042   0.545   1.989   5.673 -0.1964 -0.9318  0.0803
16517TIP3    H271043   0.565   1.940   5.815  1.9599  0.4447  0.2716
16518TIP3   OH271044   3.862   6.032  12.757  0.2111  0.1757 -0.0525
16518TIP3    H171045   3.890   6.103  12.698 -1.1111  0.1720 -0.7120
16518TIP3    H271046   3.849   6.075  12.841  2.1968  0.1669  0.2859
16519TIP3   OH271047   1.361   5.274   4.820 -0.8410  0.6775 -0.7148
16519TIP3    H171048   1.405   5.216   4.757 -2.2240 -0.9079 -0.2475
16519TIP3    H271049   1.288   5.311   4.772 -1.2503  0.3224 -0.3694
16520TIP3   OH271050   0.248   4.246   4.663  0.4975 -0.6155  0.0142
16520TIP3    H171051   0.296   4.185   4.720  1.8730  0.9465  0.5712
16520TIP3    H271052   0.159   4.244   4.696  0.4105 -2.6888 -0.2793
16521TIP3   OH271053   4.545   1.930   0.051  0.1213 -0.3379  0.0999
16521TIP3    H171054   4.528   2.018   0.083  1.7890 -0.3443  1.0665
16521TIP3    H271055   4.550   1.938  -0.044  0.9041  0.7208  0.2305
16522TIP3   OH271056   4.421   2.890  11.533  0.5882 -0.8587 -0.0453
16522TIP3    H171057   4.372   2.810  11.511  0.2946 -0.5711 -0.4297
16522TIP3    H271058   4.382   2.958  11.479 -0.0717 -0.1696  1.2831
16523TIP3   OH271059   4.442   6.306   0.321 -0.5528  0.3935  0.0840
16523TIP3    H171060   4.383   6.313   0.396  0.2057 -0.2574  0.7606
16523TIP3    H271061   4.524   6.272   0.359  0.2498  1.2892 -0.8232
16524TIP3   OH271062   2.745   3.916   6.605 -0.1271  0.7154 -0.5830
16524TIP3    H171063   2.786   3.870   6.532 -0.2654 -0.6946  0.2077
16524TIP3    H271064   2.681   3.853   6.640 -0.8090  1.7650  0.0894
16525TIP3   OH271065   5.749   3.996   2.537  0.3593  0.4543  0.0381
16525TIP3    H171066   5.817   3.972   2.599  0.9560 -0.8824 -1.1044
16525TIP3    H271067   5.692   3.919   2.532  0.0205  0.7427 -0.6755
16526TIP3   OH271068   2.066   2.281  11.469 -0.5396 -0.0054  0.2290
16526TIP3    H171069   2.013   2.322  11.538 -0.2133  1.5600 -0.4170
16526TIP3    H271070   2.093   2.197  11.506 -2.1219 -0.1215  1.1888
16527TIP3   OH271071   2.350   6.124  15.856 -0.3786  0.4216  0.3767
16527TIP3    H171072   2.365   6.184  15.929  0.6380  0.2444  0.3276
16527TIP3    H271073   2.258   6.099  15.862 -1.3139  3.4242 -0.6867
16528TIP3   OH271074   3.775   5.102  12.636  0.0470  0.4282  0.1177
16528TIP3    H171075   3.704   5.060  12.587  0.9657  0.9113 -1.6617
16528TIP3    H271076   3.736   5.181  12.673 -0.6060  0.1584  0.0109
16529TIP3   OH271077   1.431   3.962  15.541  0.2106 -0.7463 -0.3852
16529TIP3    H171078   1.478   3.880  15.554  0.2549 -0.7593 -0.6196
16529TIP3    H271079   1.501   4.028  15.530  0.1988 -0.3677  1.6137
16530TIP3   OH271080   1.043   3.356  16.059  0.0772 -0.0427 -0.0211
16530TIP3    H171081   1.072   3.287  15.999  0.3667 -0.1694  0.2663
16530TIP3    H271082   1.087   3.435  16.027 -0.0020 -0.0517 -0.1555
16531TIP3   OH271083   4.993   2.804  16.285 -0.2086  0.2553 -0.5373
16531TIP3    H171084   5.078   2.828  16.321 -0.6980  1.0275  0.1197
16531TIP3    H271085   4.954   2.887  16.256 -1.9935  0.3506  1.9335
16532TIP3   OH271086   3.366   5.164   2.100 -0.5435 -0.3732 -0.5806
16532TIP3    H171087   3.350   5.130   2.012  0.6469 -0.8502 -0.6185
16532TIP3    H271088   3.421   5.099   2.142 -1.5170 -0.3854  0.7044
16533TIP3   OH271089   4.262   0.459  15.790 -0.2871 -0.6251  0.0962
16533TIP3    H171090   4.274   0.365  15.799 -2.5957 -0.9017  0.6404
16533TIP3    H271091   4.322   0.485  15.719  1.0725 -2.3140  0.6163
16534TIP3   OH271092   6.147   0.245  13.495 -0.3423 -0.2028 -0.0891
16534TIP3    H171093   6.123   0.310  13.429  1.3016 -0.2823 -0.7896
16534TIP3    H271094   6.221   0.284  13.542  0.9037 -1.6982 -0.7534
16535TIP3   OH271095   4.847   3.640   3.163  0.0404  0.6805  0.2304
16535TIP3    H171096   4.919   3.662   3.103  0.5176 -1.9565 -0.2475
16535TIP3    H271097   4.810   3.724   3.188  0.3011  1.9009 -3.2035
16536TIP3   OH271098   1.492   4.551  11.789 -0.2237  0.4184 -0.6723
16536TIP3    H171099   1.459   4.461  11.791 -0.7625  0.6220  0.8883
16536TIP3    H271100   1.436   4.596  11.726 -0.3321 -0.2001 -1.0183
16537TIP3   OH271101   6.332   0.868  14.842 -0.8036 -0.0421 -0.2652
16537TIP3    H171102   6.242   0.844  14.822 -0.8760  1.1507 -1.4005
16537TIP3    H271103   6.365   0.909  14.762  1.0025 -1.1472 -0.1355
16538TIP3   OH271104   2.338   3.503  11.367  0.2924  0.6363  0.1216
16538TIP3    H171105   2.305   3.592  11.352 -0.8870  0.3252  0.7650
16538TIP3    H271106   2.361   3.470  11.280 -0.2770  1.1876 -0.2421
16539TIP3   OH271107   5.746   3.335  14.778  0.1470  0.3307 -0.0423
16539TIP3    H171108   5.733   3.331  14.873  1.2760  1.2113  0.1676
16539TIP3    H271109   5.807   3.408  14.766 -0.9290  1.0000 -1.5490
16540TIP3   OH271110   3.090   4.487   0.108 -0.1508  0.7392  0.0519
16540TIP3    H171111   3.115   4.438   0.187 -0.8655  1.3534  0.6682
16540TIP3    H271112   3.035   4.427   0.059  1.9263 -0.3886 -0.9935
16541TIP3   OH271113   3.614   1.223   5.697  0.2900  0.4861  0.0123
16541TIP3    H171114   3.552   1.261   5.634  1.2873  2.9946  0.4853
16541TIP3    H271115   3.562   1.209   5.776 -0.1250  0.7356 -0.2145
16542TIP3   OH271116   0.620   3.405  11.506  0.0535  0.3082 -0.4215
16542TIP3    H171117   0.634   3.444  11.420  3.3813  1.6257  0.6231
16542TIP3    H271118   0.598   3.313  11.487 -1.4782  1.1081 -2.7075
16543TIP3   OH271119   6.659   2.780  13.879 -0.0884  0.2490 -0.3810
16543TIP3    H171120   6.706   2.733  13.810 -1.7888  0.4092 -1.6884
16543TIP3    H271121   6.584   2.724  13.898 -1.0420  1.4737 -0.5311
16544TIP3   OH271122   5.078   4.658  13.698 -0.1162 -0.0889  0.4988
16544TIP3    H171123   5.111   4.568  13.696 -1.1681 -0.4758  0.3692
16544TIP3    H271124   4.984   4.650  13.682  0.2446  1.2882 -2.8007
16545TIP3   OH271125   6.500   0.607  14.519  0.1522 -0.1583  0.2339
16545TIP3    H171126   6.576   0.575  14.470 -0.5209 -0.8138 -0.3944
16545TIP3    H271127   6.529   0.609  14.610  1.1873  0.3856 -0.1073
16546TIP3   OH271128   5.580   1.473  14.667  0.5705  0.9868 -0.6170
16546TIP3    H171129   5.581   1.539  14.737  0.0958  0.8495 -0.4857
16546TIP3    H271130   5.489   1.468  14.640  0.8266  1.3815 -1.5689
16547TIP3   OH271131   1.177   0.969  13.177 -0.0738 -0.2225  0.2466
16547TIP3    H171132   1.100   0.984  13.233 -0.3737 -0.9705  0.0439
16547TIP3    H271133   1.182   1.047  13.122 -0.4021  0.0510  0.6002
16548TIP3   OH271134   6.103   3.343  12.562  0.6582 -0.0292  0.3501
16548TIP3    H171135   6.073   3.372  12.649  0.6463 -0.3596  0.4574
16548TIP3    H271136   6.192   3.377  12.555  0.0444  1.5044 -0.2249
16549TIP3   OH271137   1.461   0.597   6.383  0.5800  0.2243 -0.2907
16549TIP3    H171138   1.404   0.524   6.407  0.3162  0.4823 -0.1157
16549TIP3    H271139   1.403   0.674   6.384  0.9448  0.5007 -0.0431
16550TIP3   OH271140   3.856   5.591   6.253 -0.5008 -0.1670  0.1619
16550TIP3    H171141   3.913   5.519   6.281  2.7187  2.0909 -0.3592
16550TIP3    H271142   3.849   5.647   6.330  0.2845  1.0111 -0.6182
16551TIP3   OH271143   0.209   3.618  13.196  0.4083 -0.2559  0.2294
16551TIP3    H171144   0.298   3.584  13.187  0.5776  0.3383 -0.3862
16551TIP3    H271145   0.219   3.695  13.252  0.4372  0.4018 -0.6641
16552TIP3   OH271146   6.756   1.761  15.569  0.4409  0.1848  0.1719
16552TIP3    H171147   6.677   1.736  15.520 -0.1669 -2.2556  2.2472
16552TIP3    H271148   6.767   1.854  15.552 -1.4215  0.0157 -2.2060
16553TIP3   OH271149   0.709   4.649  12.877 -0.1139 -0.1176  0.0469
16553TIP3    H171150   0.645   4.608  12.818 -1.4931  1.1412  0.6445
16553TIP3    H271151   0.681   4.624  12.965 -0.0882  0.8597  0.3396
16554TIP3   OH271152   6.311   2.604   1.708 -0.1746 -0.6811  0.8924
16554TIP3    H171153   6.378   2.618   1.640 -1.4342  0.4136 -0.1554
16554TIP3    H271154   6.338   2.662   1.779 -0.8138  0.9658 -0.1504
16555TIP3   OH271155   5.201   6.408   3.036  0.3279 -0.0636 -0.8846
16555TIP3    H171156   5.296   6.393   3.030  0.1405 -1.0203 -1.6258
16555TIP3    H271157   5.166   6.366   2.957 -0.9683 -1.8480  0.6112
16556TIP3   OH271158   1.627   0.143  13.650 -0.0045 -0.3587  0.7215
16556TIP3    H171159   1.647   0.145  13.556 -0.1478  0.0508  0.6977
16556TIP3    H271160   1.535   0.119  13.655 -0.0455 -0.1961  0.7498
16557TIP3   OH271161   1.060   6.811   0.317 -0.2205 -0.0273 -0.2084
16557TIP3    H171162   1.017   6.886   0.276  0.4355 -0.2681 -1.3882
16557TIP3    H271163   0.996   6.741   0.311 -0.3308  0.0826 -0.3586
16558TIP3   OH271164   3.660   0.430   5.236 -0.0755  0.1337 -0.4298
16558TIP3    H171165   3.640   0.446   5.328 -0.3867 -2.6592  0.0545
16558TIP3    H271166   3.756   0.430   5.232 -0.0602  0.1102 -0.0743
16559TIP3   OH271167   1.269   3.165   2.133 -0.1320 -0.9102 -0.2292
16559TIP3    H171168   1.242   3.141   2.221  1.0055 -1.2504  0.0409
16559TIP3    H271169   1.330   3.238   2.146 -1.0221 -0.0410 -0.8317
16560TIP3   OH271170   1.570   3.901   0.827 -0.1816  0.5081  0.2201
16560TIP3    H171171   1.560   3.931   0.917 -1.4411  1.3844 -0.1915
16560TIP3    H271172   1.480   3.889   0.796  0.2558 -2.0123 -0.1894
16561TIP3   OH271173   2.690   2.638  16.030 -0.7010  0.4151 -0.0099
16561TIP3    H171174   2.670   2.545  16.018 -0.1474  0.3161 -0.1982
16561TIP3    H271175   2.786   2.642  16.029 -0.7055  1.5435 -4.3873
16562TIP3   OH271176   0.018   3.033   3.157  0.1740  0.0282 -0.0041
16562TIP3    H171177  -0.027   3.102   3.206  2.0455  0.2215  1.4985
16562TIP3    H271178  -0.003   2.953   3.205 -0.0893 -0.1356 -0.3899
16563TIP3   OH271179   5.597   0.594  11.023  0.0218 -0.5171  0.3894
16563TIP3    H171180   5.520   0.648  11.009  0.1067 -0.5246 -0.1299
16563TIP3    H271181   5.578   0.512  10.977  0.6345 -0.2475 -0.3529
16564TIP3   OH271182   2.068   0.800  15.195  0.2751 -0.3103 -0.4088
16564TIP3    H171183   2.150   0.821  15.151 -0.2164 -0.0086 -1.1915
16564TIP3    H271184   2.088   0.723  15.249  0.9878 -0.4169 -0.8251
16565TIP3   OH271185   1.521   0.075  16.401 -0.1156  0.3189  0.1589
16565TIP3    H171186   1.539   0.046  16.312  0.2292  0.3309  0.2238
16565TIP3    H271187   1.427   0.095  16.402 -0.3763 -0.9048  0.1497
16566TIP3   OH271188   4.822   0.651   2.451 -0.0899  0.2336 -0.5775
16566TIP3    H171189   4.761   0.596   2.501  1.6650 -1.2001  0.0167
16566TIP3    H271190   4.769   0.685   2.379 -1.8468 -0.2130  0.4625
16567TIP3   OH271191   5.135   1.319  12.507 -0.0788  0.8410  0.4889
16567TIP3    H171192   5.144   1.273  12.423  0.9338  3.3315 -0.8363
16567TIP3    H271193   5.052   1.288  12.542  0.5045 -1.8740 -0.3859
16568TIP3   OH271194   1.960   1.828  11.219 -0.1286  0.0613  0.5699
16568TIP3    H171195   1.880   1.881  11.213  0.8683  1.3869 -1.5516
16568TIP3    H271196   1.947   1.758  11.155  0.4558  0.3717  0.1028
16569TIP3   OH271197   5.906   0.273   5.300 -0.0770  0.1492  0.1136
16569TIP3    H171198   5.855   0.233   5.230 -0.9988 -0.6656  1.2227
16569TIP3    H271199   5.900   0.367   5.284  0.5781 -0.0614 -1.4715
16570TIP3   OH271200   6.816   3.306   5.369  0.2447 -0.3152  1.0628
16570TIP3    H171201   6.724   3.333   5.362  0.1473 -1.0144 -0.5285
16570TIP3    H271202   6.864   3.388   5.383 -0.3303  0.4395 -1.1014
16571TIP3   OH271203   5.461   1.342   1.990  0.4262 -0.8669  0.0031
16571TIP3    H171204   5.390   1.390   1.947  1.0077  0.8803  0.9020
16571TIP3    H271205   5.498   1.287   1.921  1.8592  2.4574 -2.0444
16572TIP3   OH271206   5.385   2.600   0.238 -0.1616 -0.2159  0.1220
16572TIP3    H171207   5.292   2.622   0.230 -0.1298 -0.5622 -1.4423
16572TIP3    H271208   5.428   2.684   0.251 -0.6765 -0.0366  0.6937
16573TIP3   OH271209   0.868   2.776   4.198  0.0392  0.2530 -0.5329
16573TIP3    H171210   0.806   2.703   4.203  0.9708 -0.4992  0.2479
16573TIP3    H271211   0.949   2.736   4.164  1.0923  0.5649  1.5206
16574TIP3   OH271212   1.353   3.436  12.875 -0.0200  0.5286  0.2173
16574TIP3    H171213   1.348   3.396  12.788 -0.8923 -0.2298  0.6065
16574TIP3    H271214   1.408   3.513  12.863  1.5026 -0.6469 -0.6049
16575TIP3   OH271215   2.096   0.315   4.785  0.2789 -0.5686 -0.1339
16575TIP3    H171216   2.017   0.295   4.835  0.3779  2.7276  1.4961
16575TIP3    H271217   2.147   0.234   4.788 -0.6338 -1.1298  3.4361
16576TIP3   OH271218   3.783   1.601  14.897  0.6886 -0.0391  0.0575
16576TIP3    H171219   3.770   1.550  14.817  2.5189  1.1797 -1.0745
16576TIP3    H271220   3.849   1.666  14.873 -1.0310  2.4177  1.6336
16577TIP3   OH271221   4.896   3.075  15.187  0.8501 -0.7755 -0.2712
16577TIP3    H171222   4.975   3.044  15.232  0.2635 -0.0698  1.2659
16577TIP3    H271223   4.912   3.167  15.170  0.7584 -0.8633 -0.8286
16578TIP3   OH271224   0.457   1.340   4.583  0.2700 -0.0006 -0.1109
16578TIP3    H171225   0.477   1.409   4.520 -0.0134  0.0084 -0.1911
16578TIP3    H271226   0.432   1.265   4.529 -0.7083  0.2356  0.0045
16579TIP3   OH271227   6.176   1.412  17.066 -0.4520 -1.0867 -0.2949
16579TIP3    H171228   6.159   1.447  16.979 -2.2151 -1.8535 -0.2832
16579TIP3    H271229   6.272   1.405  17.072  0.0999  4.5333  0.0543
16580TIP3   OH271230   3.444   0.354  12.585  0.2945 -0.1456 -0.2150
16580TIP3    H171231   3.453   0.418  12.515 -1.1183  0.4633  0.1432
16580TIP3    H271232   3.355   0.320  12.575 -0.3050  0.7194  1.9387
16581TIP3   OH271233   3.133   5.506   3.105  0.2249 -0.4932 -0.1164
16581TIP3    H171234   3.173   5.554   3.177 -0.4846 -0.5543  0.3275
16581TIP3    H271235   3.206   5.483   3.047  0.6597  0.5153  0.0152
16582TIP3   OH271236   1.218   4.040   5.225 -0.0412  0.6024  0.4451
16582TIP3    H171237   1.150   4.011   5.163  0.4855  1.0440 -0.3466
16582TIP3    H271238   1.298   3.997   5.195  0.0190  0.0161  1.4341
16583TIP3   OH271239   2.083   0.155   5.518  0.1458 -0.3737 -0.1563
16583TIP3    H171240   2.095   0.182   5.609  0.4028 -1.0400  0.0111
16583TIP3    H271241   2.140   0.214   5.468  0.4157 -0.3607  0.1638
16584TIP3   OH271242   1.061   6.596   5.000  0.1267  0.6142  0.6530
16584TIP3    H171243   1.147   6.581   5.039 -0.2089 -1.3459  0.7200
16584TIP3    H271244   1.078   6.613   4.908  0.5534 -0.3379  0.5558
16585TIP3   OH271245   3.796   4.108  15.812  0.1225 -0.2032  0.1446
16585TIP3    H171246   3.710   4.111  15.770 -0.1016  1.5060  0.7040
16585TIP3    H271247   3.841   4.186  15.780 -0.2872  1.5335  3.5121
16586TIP3   OH271248   2.476   4.174   5.170  0.2226  1.0726  0.6240
16586TIP3    H171249   2.444   4.100   5.222  0.5502  0.4435 -0.0605
16586TIP3    H271250   2.407   4.240   5.177 -1.7332 -0.6327 -1.6368
16587TIP3   OH271251   0.350   4.216   5.570  0.2969  0.0955 -0.3448
16587TIP3    H171252   0.375   4.231   5.661  2.5203  1.2496 -1.1038
16587TIP3    H271253   0.272   4.270   5.557  1.5231  2.0399  0.1661
16588TIP3   OH271254   0.642   4.027   5.682 -0.1019  0.0952 -0.5244
16588TIP3    H171255   0.558   4.010   5.724 -0.1756  0.1867 -0.6334
16588TIP3    H271256   0.694   4.072   5.749  0.1589 -0.7158 -0.1777
16589TIP3   OH271257   2.681   4.497  14.007  0.2896 -0.1967 -0.2600
16589TIP3    H171258   2.692   4.569  13.945  0.0236 -1.5197 -1.8855
16589TIP3    H271259   2.756   4.503  14.065  0.0969  1.5813 -0.1814
16590TIP3   OH271260   4.185   3.460  16.877 -0.0410  0.0853  0.7088
16590TIP3    H171261   4.199   3.528  16.811  0.9493 -0.2948  0.5153
16590TIP3    H271262   4.265   3.408  16.875 -1.2978 -1.8481 -0.0155
16591TIP3   OH271263   6.009   3.278   3.972  0.3830  0.0383 -0.2271
16591TIP3    H171264   5.921   3.285   4.010  0.6801 -0.4582  0.5786
16591TIP3    H271265   6.034   3.368   3.954 -0.0389  0.2319  0.1269
16592TIP3   OH271266   1.338   6.225   5.319 -0.3606 -0.2824  0.6215
16592TIP3    H171267   1.310   6.148   5.368 -1.6969 -0.3865 -0.2955
16592TIP3    H271268   1.337   6.296   5.384  1.3565 -1.1109  1.5855
16593TIP3   OH271269   3.453   6.557  15.314  0.1330 -0.3027 -0.0258
16593TIP3    H171270   3.416   6.495  15.376  2.9465 -1.0235  1.0254
16593TIP3    H271271   3.395   6.554  15.238 -1.1459 -2.3624  1.0029
16594TIP3   OH271272   5.531   6.614  16.318  0.2450 -0.9550 -0.1176
16594TIP3    H171273   5.624   6.604  16.298  0.2909  0.3342 -0.6143
16594TIP3    H271274   5.528   6.640  16.410  0.4298 -0.3299 -0.2807
16595TIP3   OH271275   0.253   0.371   2.852  0.0388 -0.1497  0.2511
16595TIP3    H171276   0.308   0.300   2.818  1.0929  0.6105  0.3647
16595TIP3    H271277   0.256   0.438   2.784 -0.1031  0.2270  0.6182
16596TIP3   OH271278   3.980   1.573   1.666  0.2024  0.6271 -0.2090
16596TIP3    H171279   3.945   1.557   1.754  1.5527 -1.0866  0.0366
16596TIP3    H271280   4.062   1.619   1.680  0.7320 -0.2047 -0.5331
16597TIP3   OH271281   5.242   2.377   3.870  0.2635  0.4275 -0.3960
16597TIP3    H171282   5.264   2.454   3.923  0.6485  0.2955 -0.3601
16597TIP3    H271283   5.201   2.413   3.791 -1.3828  0.5575  0.5142
16598TIP3   OH271284   2.153   2.059  15.377  0.2570 -0.3375  0.0802
16598TIP3    H171285   2.219   2.125  15.355  0.5970 -0.3363  1.0784
16598TIP3    H271286   2.198   1.999  15.437 -0.3434 -0.9209 -0.0441
16599TIP3   OH271287   0.894   5.114  14.599  0.1236 -0.0120 -0.2144
16599TIP3    H171288   0.828   5.155  14.654 -1.5817 -1.2006 -1.3103
16599TIP3    H271289   0.893   5.165  14.518  1.7202  0.9592  0.3605
16600TIP3   OH271290   1.670   5.389  12.723 -0.1380 -0.8967 -0.4073
16600TIP3    H171291   1.695   5.297  12.711  1.3291 -0.3982 -1.3481
16600TIP3    H271292   1.616   5.408  12.646  0.4613 -0.6788 -0.7810
16601TIP3   OH271293   1.647   3.877  14.205 -0.5483 -0.0478 -0.4095
16601TIP3    H171294   1.726   3.830  14.177 -0.6276  0.1985 -1.0513
16601TIP3    H271295   1.674   3.921  14.286 -0.0559 -0.0648 -0.5582
16602TIP3   OH271296   3.641   2.841   3.846 -0.2744  0.3548  0.3134
16602TIP3    H171297   3.570   2.865   3.907 -0.6021  0.2806 -0.0348
16602TIP3    H271298   3.596   2.795   3.775  0.4437 -1.9536  1.3277
16603TIP3   OH271299   2.011   4.203  12.087  0.2306  0.1016  0.1970
16603TIP3    H171300   1.990   4.261  12.160  1.7383  1.1367 -0.1697
16603TIP3    H271301   1.991   4.254  12.009 -1.8567 -1.1853 -0.1363
16604TIP3   OH271302   6.303   0.619   4.907  0.0056 -0.1874  0.1043
16604TIP3    H171303   6.216   0.580   4.910 -0.2187  0.3216  0.1800
16604TIP3    H271304   6.288   0.710   4.880  0.6106 -0.4373 -1.1390
16605TIP3   OH271305   6.693   3.282  13.714 -0.0886  0.2268  0.2001
16605TIP3    H171306   6.695   3.220  13.787 -0.9696 -1.3644 -1.1133
16605TIP3    H271307   6.616   3.336  13.730 -1.3095 -1.2787 -0.4674
16606TIP3   OH271308   6.008   1.100   0.825 -0.6268  0.2805 -0.3593
16606TIP3    H171309   6.017   1.192   0.799 -0.9956 -0.1394 -2.0628
16606TIP3    H271310   6.030   1.099   0.918  1.0560  1.8182 -0.7175
16607TIP3   OH271311   2.292   3.062   3.402  0.0023  0.2892 -0.0070
16607TIP3    H171312   2.254   2.976   3.385  1.4786 -0.7048  1.5998
16607TIP3    H271313   2.385   3.045   3.415  0.6553  2.4057 -1.6689
16608TIP3   OH271314   3.552   2.447   0.887  0.1528  0.0699  0.9365
16608TIP3    H171315   3.641   2.481   0.884  0.9297 -1.7843  1.9627
16608TIP3    H271316   3.526   2.455   0.979 -0.4013 -0.2237  0.8086
16609TIP3   OH271317   5.924   5.491  15.472  0.1958  0.1806 -0.4407
16609TIP3    H171318   5.855   5.555  15.454 -0.0426  0.6711  2.0584
16609TIP3    H271319   5.878   5.413  15.501  0.6669  0.5281  1.2956
16610TIP3   OH271320   0.750   5.252   5.257  0.3583 -0.4860 -0.8292
16610TIP3    H171321   0.839   5.267   5.224  0.9779  0.6082  1.2183
16610TIP3    H271322   0.737   5.158   5.248  1.2727 -0.5069 -2.2193
16611TIP3   OH271323   2.781   4.078   3.393  0.5299 -0.2735 -0.0512
16611TIP3    H171324   2.834   4.071   3.314  2.3266  2.3521  0.8319
16611TIP3    H271325   2.691   4.068   3.363  1.3284 -1.6977 -2.0443
16612TIP3   OH271326   5.195   3.014  13.801  0.1736 -0.1298 -0.3752
16612TIP3    H171327   5.284   2.980  13.811 -0.0501 -0.8611 -0.8276
16612TIP3    H271328   5.140   2.936  13.792 -0.2499  0.3484 -2.2068
16613TIP3   OH271329   1.041   5.726  15.381 -0.0414 -0.1125 -0.3712
16613TIP3    H171330   1.038   5.811  15.339 -1.2650 -0.7758 -1.6767
16613TIP3    H271331   1.085   5.669  15.318  1.7486 -0.2222  0.9354
16614TIP3   OH271332   5.942   4.159  15.318 -0.3288 -0.6947 -0.5066
16614TIP3    H171333   6.010   4.226  15.309  0.2739 -1.3332 -0.7252
16614TIP3    H271334   5.860   4.207  15.307  0.0337  0.3149  1.1510
16615TIP3   OH271335   5.790   1.536  11.568  0.0780  0.0558 -0.3806
16615TIP3    H171336   5.855   1.563  11.503 -0.9286  2.4991 -0.4090
16615TIP3    H271337   5.721   1.493  11.517  0.9949 -1.3052 -0.4981
16616TIP3   OH271338   1.069   4.623  13.785  0.5260  0.1996  0.1371
16616TIP3    H171339   1.013   4.699  13.766  0.1601 -0.5081 -1.7121
16616TIP3    H271340   1.100   4.638  13.875  0.0040  2.2432  0.0032
16617TIP3   OH271341   0.760   0.452  12.855 -0.3137 -0.3111  0.3347
16617TIP3    H171342   0.756   0.421  12.946  0.7319 -1.6920 -0.0643
16617TIP3    H271343   0.800   0.379  12.807  2.0813  1.6126 -0.6685
16618TIP3   OH271344   1.582   5.098   2.836 -0.7865 -0.0725  0.0978
16618TIP3    H171345   1.647   5.043   2.792 -0.8307 -0.8742  0.9964
16618TIP3    H271346   1.632   5.143   2.904 -1.4987 -2.2527  2.1431
16619TIP3   OH271347   2.278   2.375   2.529  0.5648  0.4715  0.2333
16619TIP3    H171348   2.190   2.409   2.544 -0.1924 -0.2945 -2.3891
16619TIP3    H271349   2.323   2.445   2.482  1.5104  1.0145  1.8915
16620TIP3   OH271350   6.044   2.551   4.041  0.0990 -0.4831 -0.0000
16620TIP3    H171351   5.975   2.607   4.004  0.2105  0.1976  0.7945
16620TIP3    H271352   6.064   2.489   3.971 -1.1890 -0.5730 -0.3089
16621TIP3   OH271353   6.067   1.771   2.356  0.0237  0.7237 -0.0927
16621TIP3    H171354   6.025   1.684   2.357  1.5303 -0.0246  2.0597
16621TIP3    H271355   6.120   1.771   2.276 -0.5361 -0.0474 -0.4777
16622TIP3   OH271356   5.736   3.884  11.414  0.6485 -0.0811  0.2573
16622TIP3    H171357   5.824   3.913  11.393  1.0006 -1.1803  0.1708
16622TIP3    H271358   5.741   3.856  11.506  0.3188  0.1385  0.3439
16623TIP3   OH271359   2.021   5.980   0.382  0.1185  1.1804  0.0118
16623TIP3    H171360   2.099   6.001   0.331  0.5907 -0.4644  0.0239
16623TIP3    H271361   2.003   5.888   0.362  0.0002  0.6436  2.3408
16624TIP3   OH271362   4.903   4.070  11.197 -0.8088  0.3441 -0.1527
16624TIP3    H171363   4.954   4.095  11.120 -2.3132  1.2349 -0.8749
16624TIP3    H271364   4.855   3.992  11.170  1.2564 -1.3917  1.0054
16625TIP3   OH271365   5.038   3.898   0.611 -0.2084 -0.4649  0.3244
16625TIP3    H171366   5.096   3.968   0.642  1.2505 -1.4365 -0.1769
16625TIP3    H271367   4.962   3.944   0.576  0.7194  0.8815  0.0283
16626TIP3   OH271368   1.213   2.664  13.503  0.1385  0.1463  0.0584
16626TIP3    H171369   1.144   2.644  13.567  1.1964 -2.6351  0.3918
16626TIP3    H271370   1.182   2.625  13.422  1.1384 -0.8461  0.1366
16627TIP3   OH271371   4.798   6.050  13.778  0.3272 -0.0485 -0.1797
16627TIP3    H171372   4.823   5.971  13.731 -1.4796  0.4310 -2.0082
16627TIP3    H271373   4.730   6.022  13.839  2.1999 -0.5424  1.7439
16628TIP3   OH271374   0.574   1.037  11.845  0.8537  0.3470  0.0854
16628TIP3    H171375   0.498   0.981  11.831  1.7728 -0.2778 -2.7299
16628TIP3    H271376   0.546   1.098  11.913 -1.3609 -1.3166  0.7256
16629TIP3   OH271377   4.090   2.435   5.891  0.4203 -0.2123 -0.3327
16629TIP3    H171378   4.059   2.408   5.977  0.8492 -1.0785 -0.4410
16629TIP3    H271379   4.125   2.355   5.852  0.2365  0.1699 -1.3083
16630TIP3   OH271380   2.612   3.176  16.892 -0.4580  0.1318  0.2376
16630TIP3    H171381   2.627   3.259  16.847  0.8054 -1.5425 -2.5719
16630TIP3    H271382   2.690   3.124  16.872 -1.4062 -1.8541  1.6224
16631TIP3   OH271383   3.798   4.553   6.424 -0.0551 -0.1406 -0.2343
16631TIP3    H171384   3.851   4.490   6.472  0.5071  0.4176 -0.1174
16631TIP3    H271385   3.745   4.500   6.365 -1.0705 -0.8909  1.2894
16632TIP3   OH271386   5.665   0.111   6.010 -0.4516  0.4687 -0.2596
16632TIP3    H171387   5.715   0.138   5.932  1.0774  2.6736  1.4279
16632TIP3    H271388   5.645   0.192   6.055 -1.2105 -0.7983  1.7448
16633TIP3   OH271389   1.242   5.480   1.844 -0.0998  0.5969  0.4144
16633TIP3    H171390   1.273   5.419   1.911  0.7414  0.2300 -0.2995
16633TIP3    H271391   1.151   5.498   1.869  0.2916  0.7054  1.8201
16634TIP3   OH271392   2.259   2.003   3.058  0.0212 -0.1567 -0.2837
16634TIP3    H171393   2.310   1.942   3.113 -0.2801  0.4214  0.6487
16634TIP3    H271394   2.231   2.072   3.119 -2.2817 -0.7013 -0.6772
16635TIP3   OH271395   5.776   6.035  12.063 -0.0142 -0.0192 -0.3437
16635TIP3    H171396   5.834   5.959  12.056  0.5104  0.2828  0.6270
16635TIP3    H271397   5.830   6.109  12.034 -0.4986 -0.0024 -1.2155
16636TIP3   OH271398   2.215   0.780   4.354 -0.4341  0.4200  0.1367
16636TIP3    H171399   2.180   0.812   4.271  0.4742 -1.9497 -1.2146
16636TIP3    H271400   2.144   0.726   4.391 -0.0871 -0.2412 -0.1448
16637TIP3   OH271401   2.789   6.456   4.064 -0.0923 -0.2420 -0.0147
16637TIP3    H171402   2.882   6.476   4.053 -0.4206  1.2803 -0.0525
16637TIP3    H271403   2.744   6.539   4.052 -1.6337 -1.3095 -1.9628
16638TIP3   OH271404   3.422   2.424  16.376 -0.0691  0.0993  0.6511
16638TIP3    H171405   3.363   2.426  16.301  0.7702 -4.1004 -0.2841
16638TIP3    H271406   3.365   2.418  16.452 -0.8877  0.3517  0.0568
16639TIP3   OH271407   0.627   5.280   3.420  0.1302 -0.1960 -0.0728
16639TIP3    H171408   0.687   5.322   3.482 -1.6748 -0.3054  1.8018
16639TIP3    H271409   0.666   5.195   3.403 -0.4738 -1.0926  2.7470
16640TIP3   OH271410   5.851   5.774  16.638  0.2683  0.2544 -0.2948
16640TIP3    H171411   5.944   5.759  16.654  0.0441 -0.8053  0.0155
16640TIP3    H271412   5.850   5.850  16.579  1.3337  0.1214 -0.5047
16641TIP3   OH271413   0.009   4.861   3.425  0.0620 -0.4036 -0.3471
16641TIP3    H171414   0.091   4.891   3.465  0.4790 -0.0242 -1.4536
16641TIP3    H271415  -0.048   4.842   3.499 -0.1063  2.8598  0.4402
16642TIP3   OH271416   1.850   4.725   4.579  0.4909  0.3890 -0.4646
16642TIP3    H171417   1.806   4.666   4.640 -0.2601  2.1001  0.7045
16642TIP3    H271418   1.943   4.713   4.598  0.3605 -0.6377 -0.4605
16643TIP3   OH271419   0.156   6.706  13.767 -0.1427  0.4931 -0.6064
16643TIP3    H171420   0.217   6.747  13.829  0.4471 -2.1916  0.6636
16643TIP3    H271421   0.069   6.723  13.804  0.1087  0.5100 -0.0111
16644TIP3   OH271422   6.536   2.341   6.372  0.8137 -0.2238  0.4337
16644TIP3    H171423   6.585   2.408   6.326  0.9116 -0.3425  0.3645
16644TIP3    H271424   6.585   2.326   6.454  2.5558 -2.4364 -0.9366
16645TIP3   OH271425   1.129   4.035  13.125  0.1749  0.4085 -0.5901
16645TIP3    H171426   1.048   4.042  13.075  0.3090  1.9619 -0.5998
16645TIP3    H271427   1.144   4.123  13.159  0.3983 -0.4801  1.6991
16646TIP3   OH271428   3.044   4.051   0.989  1.1868 -0.3500 -0.1605
16646TIP3    H171429   3.091   3.998   1.054  1.1171  0.0467  0.2126
16646TIP3    H271430   3.038   4.138   1.028  1.3507 -0.0496 -0.8025
16647TIP3   OH271431   4.399   4.353  10.541  0.2116 -0.3759  0.5981
16647TIP3    H171432   4.330   4.338  10.477  1.2622  0.5455 -0.7828
16647TIP3    H271433   4.430   4.266  10.565 -0.6397 -0.7457  0.3505
16648TIP3   OH271434   4.825   5.573   3.616  0.1307 -0.6459 -0.0697
16648TIP3    H171435   4.794   5.586   3.706  1.3645  0.0062  0.2579
16648TIP3    H271436   4.814   5.658   3.574  0.2879 -0.7501 -0.3214
16649TIP3   OH271437   4.912   2.131   2.074  0.1826  0.0708  0.6547
16649TIP3    H171438   4.854   2.156   2.003  0.7385  0.5960  0.3753
16649TIP3    H271439   4.890   2.040   2.093  0.2210 -0.1587 -0.3760
16650TIP3   OH271440   2.157   0.519  15.247 -0.0941  0.4386 -0.0470
16650TIP3    H171441   2.076   0.480  15.278 -0.0092 -0.3568 -0.7835
16650TIP3    H271442   2.145   0.526  15.152  0.3186  1.2168 -0.0453
16651TIP3   OH271443   4.110   5.763  13.644  0.4674  0.5098 -0.3447
16651TIP3    H171444   4.112   5.808  13.559 -0.0628  1.3128  0.0600
16651TIP3    H271445   4.032   5.707  13.639  0.2643  0.7840 -0.2783
16652TIP3   OH271446   6.145   2.005   6.207 -0.1145 -0.1240 -0.1240
16652TIP3    H171447   6.157   2.030   6.298  1.1413 -1.3264  0.0576
16652TIP3    H271448   6.071   1.944   6.208 -1.5516  1.5689 -0.2340
16653TIP3   OH271449   2.526   2.310  13.968 -0.9023 -0.5787 -0.3525
16653TIP3    H171450   2.537   2.353  13.883  0.4540  0.7990  0.4722
16653TIP3    H271451   2.501   2.220  13.947 -1.2512 -0.0804 -2.1860
16654TIP3   OH271452   4.515   6.262  15.597 -0.5636  0.0557 -0.4961
16654TIP3    H171453   4.577   6.190  15.586  0.1071  0.5208  0.1013
16654TIP3    H271454   4.488   6.285  15.508 -1.8637 -1.8347 -0.6205
16655TIP3   OH271455   5.951   0.368  12.182 -0.8187  0.2970  0.2436
16655TIP3    H171456   6.024   0.307  12.194 -0.5556  0.5166 -0.2260
16655TIP3    H271457   5.873   0.316  12.198 -0.6659 -0.5233 -1.5762
16656TIP3   OH271458   5.500   6.475  11.101  0.1966 -0.1889 -0.2992
16656TIP3    H171459   5.543   6.550  11.060 -0.6480  0.2825 -0.3351
16656TIP3    H271460   5.493   6.411  11.030  0.2787 -0.0330 -0.4496
16657TIP3   OH271461   1.790   3.532  15.138 -0.8421 -0.0968  0.0432
16657TIP3    H171462   1.760   3.447  15.105  1.6321 -1.2291  0.5984
16657TIP3    H271463   1.772   3.593  15.067 -1.6841 -1.2693 -0.7794
16658TIP3   OH271464   5.081   5.532   2.791  0.6290  0.6885  0.0084
16658TIP3    H171465   5.080   5.515   2.885 -0.0932 -0.8378 -0.2632
16658TIP3    H271466   5.168   5.566   2.773  0.6374  1.3824  1.2859
16659TIP3   OH271467   0.071   3.350  16.820  0.2043 -0.6226  1.2333
16659TIP3    H171468   0.131   3.322  16.889  0.5611 -0.0484  1.1549
16659TIP3    H271469   0.001   3.396  16.866 -1.0233 -2.6648  1.4948
16660TIP3   OH271470   4.138   6.377   4.796 -0.1797  0.2172 -0.0403
16660TIP3    H171471   4.130   6.410   4.706  0.1296  1.2316  0.3004
16660TIP3    H271472   4.153   6.455   4.849  1.3324 -0.5534  0.6844
16661TIP3   OH271473   0.951   5.684   4.557 -0.1382  0.1790  0.1112
16661TIP3    H171474   0.984   5.771   4.537 -0.5458  0.5492  1.0277
16661TIP3    H271475   1.029   5.628   4.561  0.1922  0.6494  0.2714
16662TIP3   OH271476   1.966   5.177   0.761 -0.1053 -0.1673  0.5857
16662TIP3    H171477   1.909   5.248   0.792 -1.3933  0.0459 -2.0852
16662TIP3    H271478   1.914   5.098   0.772  0.1204 -0.3068  0.6431
16663TIP3   OH271479   1.057   2.872   1.013  0.1587  0.6284 -0.0612
16663TIP3    H171480   1.055   2.908   1.102  0.8411  0.3203  0.0784
16663TIP3    H271481   1.093   2.942   0.959 -0.9211  1.0760 -0.2241
16664TIP3   OH271482   3.298   5.814   5.705 -0.5773 -0.3637 -0.0102
16664TIP3    H171483   3.393   5.804   5.714 -0.4876 -1.0445 -1.5917
16664TIP3    H271484   3.272   5.745   5.645 -2.0681 -0.1167  0.3361
16665TIP3   OH271485   1.122   0.363   1.194 -0.1255  0.0488  0.0570
16665TIP3    H171486   1.121   0.337   1.286  0.5726  0.4680  0.1843
16665TIP3    H271487   1.199   0.318   1.157  0.7103  1.3962  0.1281
16666TIP3   OH271488   4.224   6.183   0.132 -0.3593 -0.0024 -0.4767
16666TIP3    H171489   4.179   6.099   0.125 -0.3895 -0.0165 -0.1108
16666TIP3    H271490   4.257   6.185   0.222  1.6758 -0.6712 -1.1696
16667TIP3   OH271491   6.515   5.409  12.961 -0.2743  0.1986 -0.2882
16667TIP3    H171492   6.604   5.383  12.942 -0.4301 -0.7031  0.1935
16667TIP3    H271493   6.476   5.427  12.876  0.3175  0.4417 -0.5082
16668TIP3   OH271494   4.911   6.268  17.145 -0.2461 -0.2096  0.2627
16668TIP3    H171495   4.962   6.188  17.139 -0.2720 -0.2952  1.1543
16668TIP3    H271496   4.870   6.277  17.058 -0.5803 -1.3826  0.2924
16669TIP3   OH271497   3.117   1.420   3.919 -0.2741  0.6169 -0.9635
16669TIP3    H171498   3.111   1.342   3.863 -1.9443  0.6936 -0.9235
16669TIP3    H271499   3.210   1.443   3.918  0.3850 -1.8226 -0.3600
16670TIP3   OH271500   1.921   1.512  12.009 -0.6857  0.1392  0.2813
16670TIP3    H171501   1.919   1.556  12.094  2.0588  0.8522  0.0329
16670TIP3    H271502   1.914   1.584  11.945 -0.0117 -0.1296 -0.0992
16671TIP3   OH271503   6.351   6.229  15.318  0.1953 -0.3220  0.3678
16671TIP3    H171504   6.410   6.176  15.371  0.2117 -0.4016  0.2721
16671TIP3    H271505   6.300   6.165  15.269  1.2445 -0.2353 -0.8680
16672TIP3   OH271506   3.376   5.482  16.257 -0.0667 -0.7566  0.2417
16672TIP3    H171507   3.371   5.577  16.246 -1.7969 -0.5040  2.6360
16672TIP3    H271508   3.469   5.461  16.249  0.4572  1.2868  0.7406
16673TIP3   OH271509   6.056   2.998   4.153  0.1967 -0.6099 -0.1629
16673TIP3    H171510   6.140   3.037   4.177  0.4144 -1.2606  0.1604
16673TIP3    H271511   5.992   3.047   4.204  0.6502 -1.9279  1.7781
16674TIP3   OH271512   6.716   5.527  14.449  0.2832 -0.1922 -0.5871
16674TIP3    H171513   6.762   5.448  14.475  2.2735  1.1837  0.2550
16674TIP3    H271514   6.685   5.565  14.531 -1.8324 -0.7939 -1.1032
16675TIP3   OH271515   2.464   6.156  15.595 -0.3805  0.4916 -0.1184
16675TIP3    H171516   2.417   6.121  15.671 -2.5568  0.6490 -1.3606
16675TIP3    H271517   2.442   6.096  15.524  0.4238  1.2020 -0.9728
16676TIP3   OH271518   2.494   2.516   1.492  0.1604  0.7097 -0.0511
16676TIP3    H171519   2.524   2.448   1.433  1.2158  0.1590  1.1110
16676TIP3    H271520   2.574   2.561   1.519 -0.4860  2.1384 -0.4664
16677TIP3   OH271521   0.906   1.125   5.085  0.9046 -0.3872 -0.2091
16677TIP3    H171522   0.885   1.080   5.003  1.7712 -1.3066  0.0650
16677TIP3    H271523   0.996   1.154   5.075  2.0649 -3.1621  1.5580
16678TIP3   OH271524   6.668   0.322  12.687 -0.1498 -0.1367 -0.1932
16678TIP3    H171525   6.576   0.331  12.660  0.3414  1.3758 -1.4695
16678TIP3    H271526   6.713   0.291  12.609  0.7584  1.1736 -0.2054
16679TIP3   OH271527   6.036   4.712   0.334 -0.1092 -0.1755  0.9120
16679TIP3    H171528   5.957   4.765   0.334  1.2850  2.0506 -2.5427
16679TIP3    H271529   6.107   4.774   0.347  1.3013 -1.7092  0.7370
16680TIP3   OH271530   2.831   3.665   4.337 -0.0330 -0.1351 -0.0362
16680TIP3    H171531   2.801   3.756   4.340  0.5701  0.0387  0.7328
16680TIP3    H271532   2.925   3.670   4.354 -0.3480 -1.0826  2.1006
16681TIP3   OH271533   5.194   3.858  16.171  0.1132 -0.1751  0.3116
16681TIP3    H171534   5.270   3.907  16.140  0.0997 -0.0846  0.4186
16681TIP3    H271535   5.210   3.768  16.143 -0.7231  0.2118 -1.4709
16682TIP3   OH271536   3.101   0.242   4.110 -0.0573  0.0466  0.0596
16682TIP3    H171537   3.183   0.241   4.160  0.5971 -0.8571 -0.9978
16682TIP3    H271538   3.049   0.172   4.148  0.3539 -0.5009 -0.3797
16683TIP3   OH271539   3.532   6.161  16.266  0.3626  0.2325  0.1646
16683TIP3    H171540   3.548   6.090  16.204  0.3584  0.8457 -0.5439
16683TIP3    H271541   3.440   6.152  16.290 -0.4106  1.7070 -2.1107
16684TIP3   OH271542   3.653   6.742  15.479 -0.6179  0.1920  0.0332
16684TIP3    H171543   3.728   6.732  15.537  0.0961  1.0662 -0.7043
16684TIP3    H271544   3.581   6.697  15.523 -0.4339  1.9500  2.2198
16685TIP3   OH271545   2.794   0.416  12.917 -0.5712  0.0666  0.0950
16685TIP3    H171546   2.774   0.382  12.830 -0.5418 -1.6914  0.7654
16685TIP3    H271547   2.724   0.382  12.973 -1.1194  1.9599  0.6046
16686TIP3   OH271548   4.251   2.341  11.587 -0.6099  0.1084  0.7070
16686TIP3    H171549   4.188   2.297  11.644 -1.5383  1.3810  0.6922
16686TIP3    H271550   4.197   2.395  11.529  0.5265  2.0381  1.3938
16687TIP3   OH271551   5.047   4.120  16.425 -0.1167  0.3629 -0.0887
16687TIP3    H171552   5.026   4.043  16.373  0.6353 -0.5467  0.9478
16687TIP3    H271553   5.141   4.134  16.411 -0.0120  0.4098  0.6188
16688TIP3   OH271554   2.129   0.217   2.622 -0.4457  0.2083 -0.1329
16688TIP3    H171555   2.074   0.242   2.548 -0.6289  0.1831 -0.0068
16688TIP3    H271556   2.181   0.295   2.641  0.5526 -0.2009 -1.1205
16689TIP3   OH271557   0.437   2.622   1.587 -0.6091  0.0836 -0.1520
16689TIP3    H171558   0.518   2.611   1.638  0.2149  3.5312 -0.6051
16689TIP3    H271559   0.367   2.599   1.647  0.5107  1.2714  1.6519
16690TIP3   OH271560   3.429   0.342  15.958  0.2356  0.1674  0.0785
16690TIP3    H171561   3.500   0.299  15.908  0.0999 -0.1321  0.1418
16690TIP3    H271562   3.475   0.394  16.024  0.3893 -0.4233  0.4449
16691TIP3   OH271563   6.713   6.074  16.919  0.0303 -0.4265  0.1053
16691TIP3    H171564   6.731   6.138  16.850 -0.0449 -2.0624 -1.4498
16691TIP3    H271565   6.618   6.077  16.930  0.0924  0.2083  0.5310
16692TIP3   OH271566   5.385   0.211   4.323 -0.4340  0.2169 -0.4928
16692TIP3    H171567   5.423   0.235   4.239 -1.7102  0.4096 -1.0184
16692TIP3    H271568   5.304   0.260   4.329 -1.0357 -0.8280  0.2429
16693TIP3   OH271569   4.242   2.270   3.717  0.8980  0.3254  0.2737
16693TIP3    H171570   4.271   2.305   3.633  0.7338  0.9083  0.4592
16693TIP3    H271571   4.243   2.175   3.704  2.7327  0.3225  0.2284
16694TIP3   OH271572   2.147   0.324  10.758  0.1539 -0.2907 -0.0116
16694TIP3    H171573   2.191   0.405  10.734 -0.6511 -0.1552 -1.0815
16694TIP3    H271574   2.108   0.341  10.843 -1.2174  0.9282 -0.8700
16695TIP3   OH271575   4.047   3.130  14.189 -0.0560  0.7957 -0.3106
16695TIP3    H171576   4.131   3.093  14.216 -0.3025  0.0227 -0.5791
16695TIP3    H271577   3.989   3.054  14.184 -0.2947  1.0707 -1.9426
16696TIP3   OH271578   3.098   6.094  16.594 -0.2521  0.1667  0.0941
16696TIP3    H171579   3.092   6.036  16.517 -1.1803  0.5947 -0.1660
16696TIP3    H271580   3.056   6.044  16.664  0.0639  0.0157  0.1748
16697TIP3   OH271581   4.687   4.722  15.672 -0.1010  0.7804 -0.2065
16697TIP3    H171582   4.741   4.655  15.713 -0.8106 -0.0072 -0.5538
16697TIP3    H271583   4.598   4.689  15.678 -0.2343  0.7034 -2.2664
16698TIP3   OH271584   2.840   5.319   1.170 -0.3387  0.3073 -0.5540
16698TIP3    H171585   2.934   5.310   1.188 -0.5026 -0.0530  0.1355
16698TIP3    H271586   2.829   5.283   1.082  0.1491  0.2126 -0.5792
16699TIP3   OH271587   5.366   3.863   0.964 -0.1617  0.1042  0.3320
16699TIP3    H171588   5.449   3.815   0.968 -1.2202 -1.6792  1.6072
16699TIP3    H271589   5.330   3.840   0.878  0.5727  0.7445 -0.1549
16700TIP3   OH271590   1.248   5.103  14.900 -0.0037 -0.2642  0.1106
16700TIP3    H171591   1.209   5.102  14.813  1.0911 -1.5077 -0.3886
16700TIP3    H271592   1.253   5.011  14.925  0.4492  0.0324  1.1418
16701TIP3   OH271593   3.773   3.161  10.670  0.8205 -0.0313 -0.2369
16701TIP3    H171594   3.720   3.209  10.606  0.8211  1.5315  0.8886
16701TIP3    H271595   3.709   3.127  10.733  0.7361 -2.3042 -1.4854
16702TIP3   OH271596   5.027   4.694  15.671  0.1738 -0.3736  0.0824
16702TIP3    H171597   5.000   4.784  15.692  1.0956 -0.0262 -0.1863
16702TIP3    H271598   4.963   4.638  15.715 -1.2130  0.4408 -0.8434
16703TIP3   OH271599   0.191   6.537  14.926 -0.0576  0.3425  0.3350
16703TIP3    H171600   0.264   6.478  14.943  2.2627  3.5593  2.0436
16703TIP3    H271601   0.175   6.580  15.010 -2.3735  1.3870 -0.5946
16704TIP3   OH271602   3.262   2.153  12.412 -0.0456 -0.4149  0.3490
16704TIP3    H171603   3.249   2.059  12.416  0.3748 -0.4937 -0.0891
16704TIP3    H271604   3.308   2.168  12.329 -0.1174  0.1733  0.4101
16705TIP3   OH271605   0.943   5.949  10.750 -0.1629  0.0259 -0.1506
16705TIP3    H171606   0.893   5.871  10.726 -2.3244  1.3090  0.0539
16705TIP3    H271607   1.030   5.935  10.711 -1.1867 -1.4592 -1.9834
16706TIP3   OH271608   0.958   0.717   0.106  0.9356 -0.1373 -0.5908
16706TIP3    H171609   0.971   0.741   0.197 -0.6563 -0.6319 -0.2263
16706TIP3    H271610   0.970   0.622   0.104 -0.0135 -0.2568 -0.7133
16707TIP3   OH271611   0.347   3.685   4.930 -0.0287 -0.0769  0.3988
16707TIP3    H171612   0.424   3.726   4.889  1.2590 -2.3984  0.4011
16707TIP3    H271613   0.322   3.615   4.869 -3.5806  2.0512 -0.7379
16708TIP3   OH271614   2.806   2.785  14.479  0.5702  0.1159 -0.3325
16708TIP3    H171615   2.784   2.820  14.566  0.3601  0.3428 -0.4786
16708TIP3    H271616   2.766   2.846  14.418  3.1243  1.5635 -0.6244
16709TIP3   OH271617   5.729   1.135   3.595 -0.0510  0.2008  0.1646
16709TIP3    H171618   5.782   1.086   3.532 -1.0398 -0.7051 -0.0006
16709TIP3    H271619   5.702   1.069   3.659 -0.9606  0.6364  0.2415
16710TIP3   OH271620   1.283   3.179  12.025 -0.4064 -0.4113  0.0930
16710TIP3    H171621   1.228   3.161  11.949 -1.8736  0.0462  1.0259
16710TIP3    H271622   1.222   3.203  12.094  1.0697  1.7353  0.7088
16711TIP3   OH271623   2.946   5.227  14.351 -0.4088  0.4651  0.6061
16711TIP3    H171624   2.997   5.150  14.375 -0.6725  0.0493 -0.1644
16711TIP3    H271625   2.987   5.299  14.399 -0.3424 -0.1992  1.5538
16712TIP3   OH271626   3.405   0.856   5.606  0.3554 -0.6231  0.0847
16712TIP3    H171627   3.428   0.882   5.695  0.3964 -0.9332  0.1641
16712TIP3    H271628   3.326   0.803   5.615  0.7359 -1.2076  0.0021
16713TIP3   OH271629   4.186   1.240  15.947  1.0639  0.0880  0.1625
16713TIP3    H171630   4.159   1.149  15.963  0.0688  0.2358 -0.6733
16713TIP3    H271631   4.220   1.269  16.032  2.4868 -1.4299  0.1562
16714TIP3   OH271632   4.688   2.765   4.267 -0.3773 -0.3107  0.0549
16714TIP3    H171633   4.731   2.709   4.331  1.5053  1.3408  0.2878
16714TIP3    H271634   4.707   2.725   4.182  2.8862  1.1225  0.0324
16715TIP3   OH271635   6.628   0.966  17.068 -0.1422 -0.6719 -0.2507
16715TIP3    H171636   6.548   0.917  17.046 -0.9071  0.1432  0.6605
16715TIP3    H271637   6.599   1.058  17.072  1.6760  0.1696 -3.9912
16716TIP3   OH271638   1.909   5.318  17.002  0.2728  0.9172 -0.0861
16716TIP3    H171639   1.857   5.385  16.958 -0.2534  0.6123  0.0634
16716TIP3    H271640   1.967   5.366  17.061  1.8088  1.4349 -1.9238
16717TIP3   OH271641   4.799   1.015   5.345  0.3415 -0.1188  0.6749
16717TIP3    H171642   4.885   1.047   5.320 -0.1726  0.2581 -0.6460
16717TIP3    H271643   4.753   1.092   5.378  0.2282 -0.1472  0.5860
16718TIP3   OH271644   0.509   6.676  15.005  0.1372 -0.6247  0.3448
16718TIP3    H171645   0.416   6.656  15.018  0.3730 -1.7900  0.2947
16718TIP3    H271646   0.545   6.678  15.094 -0.0966  0.6454  0.4151
16719TIP3   OH271647   5.872   4.107  14.246  0.4160 -0.3671 -0.2898
16719TIP3    H171648   5.827   4.022  14.250  0.0804 -0.1887 -0.2635
16719TIP3    H271649   5.815   4.167  14.294  0.2398  0.0575 -1.0210
16720TIP3   OH271650   4.164   1.010  14.690 -0.1386  0.8836 -0.1313
16720TIP3    H171651   4.244   1.021  14.741 -0.1675  1.4491 -0.2117
16720TIP3    H271652   4.112   0.948  14.741  0.5324  0.1795 -0.2981
16721TIP3   OH271653   4.900   1.282  17.090 -0.4268  0.3390  0.0866
16721TIP3    H171654   4.902   1.356  17.151  0.7719  0.5781 -0.2333
16721TIP3    H271655   4.920   1.321  17.005  0.9338 -0.4594  0.0327
16722TIP3   OH271656   0.599   1.062   5.892 -0.3076  0.0142 -0.2373
16722TIP3    H171657   0.687   1.098   5.881  0.2900 -1.8913 -1.9344
16722TIP3    H271658   0.611   0.984   5.947 -0.7230 -1.0110 -1.5667
16723TIP3   OH271659   0.572   4.105   1.898 -0.9486 -0.1448  0.1620
16723TIP3    H171660   0.477   4.100   1.912 -0.9205 -0.7232  0.1401
16723TIP3    H271661   0.585   4.187   1.850 -1.4347 -0.0612  0.1731
16724TIP3   OH271662   3.471   4.714   4.779  0.5843 -0.2485  0.2749
16724TIP3    H171663   3.422   4.651   4.726 -0.1158  0.8983 -0.4754
16724TIP3    H271664   3.563   4.699   4.755  0.3112 -0.0429 -0.9502
16725TIP3   OH271665   4.755   3.411  14.481  0.2521  0.5351 -0.0305
16725TIP3    H171666   4.850   3.414  14.469  0.4885  0.1755  1.5989
16725TIP3    H271667   4.737   3.481  14.543 -0.1897 -1.1307  1.7668
16726TIP3   OH271668   3.665   4.491   5.100 -0.7120 -0.4100 -0.7836
16726TIP3    H171669   3.697   4.575   5.133 -0.2398 -1.1784  0.7740
16726TIP3    H271670   3.570   4.499   5.102 -0.6662  0.1525 -0.8141
16727TIP3   OH271671   1.663   1.242  14.555 -0.5459 -0.7318 -0.0627
16727TIP3    H171672   1.678   1.151  14.533  1.6967 -0.1112 -1.2171
16727TIP3    H271673   1.608   1.276  14.484  0.5134 -0.6053 -0.8206
16728TIP3   OH271674   5.599   5.983   2.988 -0.6728 -0.0092 -0.3391
16728TIP3    H171675   5.642   6.069   2.985 -0.4388 -0.0195  1.9297
16728TIP3    H271676   5.665   5.925   3.027 -1.2193 -0.9926 -0.8650
16729TIP3   OH271677   5.984   6.804   3.217  0.0657  0.1214  0.5954
16729TIP3    H171678   6.005   6.876   3.157 -0.3909  1.4422  1.9795
16729TIP3    H271679   5.919   6.751   3.171  0.5441  0.4899 -0.5120
16730TIP3   OH271680   3.931   2.240  11.465 -0.1242 -0.0914 -0.3327
16730TIP3    H171681   3.949   2.161  11.517 -2.4157 -1.0331 -0.8610
16730TIP3    H271682   3.943   2.212  11.374 -1.0578  0.1116 -0.5292
16731TIP3   OH271683   2.469   5.807   0.474 -0.0027  0.3395 -0.1866
16731TIP3    H171684   2.513   5.740   0.421  1.3594  1.9094 -1.0914
16731TIP3    H271685   2.378   5.780   0.477  1.2242 -3.9253  3.1163
16732TIP3   OH271686   5.411   2.059   1.386 -1.4135  0.0133  0.2891
16732TIP3    H171687   5.462   2.008   1.449 -0.5147 -0.1366 -0.5500
16732TIP3    H271688   5.424   2.014   1.303 -2.3974  0.3521 -0.0573
16733TIP3   OH271689   4.423   1.271   4.210  0.2467 -0.1874 -0.1581
16733TIP3    H171690   4.491   1.333   4.234  0.8578 -0.1810 -1.8405
16733TIP3    H271691   4.391   1.301   4.125 -0.6835 -1.1519 -0.1675
16734TIP3   OH271692   0.400   5.695   6.302 -0.5110 -0.0994  0.0518
16734TIP3    H171693   0.370   5.778   6.262 -1.3440 -0.4760 -0.1226
16734TIP3    H271694   0.488   5.715   6.334 -0.7588  0.9080  0.1531
16735TIP3   OH271695   3.935   5.333   5.920 -0.2290 -0.6733  0.1808
16735TIP3    H171696   3.945   5.341   5.825 -1.8519  3.1296  0.2321
16735TIP3    H271697   3.853   5.378   5.940  0.2077 -1.1552  3.4256
16736TIP3   OH271698   3.019   4.641  10.510 -0.0302  0.3163  0.3429
16736TIP3    H171699   3.044   4.704  10.443 -1.4801 -0.9275 -1.4124
16736TIP3    H271700   3.101   4.598  10.535  0.3590  0.0255 -1.4153
16737TIP3   OH271701   0.256   0.768   4.266 -1.0616 -0.1978 -0.6027
16737TIP3    H171702   0.329   0.706   4.276 -0.1074  0.9120 -0.6078
16737TIP3    H271703   0.205   0.733   4.193  1.2487  0.7302 -2.7410
16738TIP3   OH271704   0.961   4.153  12.062 -0.1311  0.3906  0.3185
16738TIP3    H171705   1.030   4.184  12.003 -1.0442  2.0051  0.0837
16738TIP3    H271706   1.009   4.119  12.138  0.9536  0.9334 -0.1017
16739TIP3   OH271707   2.430   1.044   5.439  0.6078  0.6117 -0.1495
16739TIP3    H171708   2.492   0.982   5.478  0.5029  0.1483 -0.7135
16739TIP3    H271709   2.414   1.010   5.351 -0.8623  0.4338  0.1756
16740TIP3   OH271710   1.749   6.725  11.642  0.0803 -0.2845  0.6939
16740TIP3    H171711   1.756   6.637  11.678 -0.6899 -0.9774 -0.8067
16740TIP3    H271712   1.736   6.782  11.718  2.1201 -1.2582  1.8091
16741TIP3   OH271713   3.023   5.280   0.048  0.1250  0.1959  0.1847
16741TIP3    H171714   3.104   5.268  -0.002 -0.7012 -0.4527 -1.0051
16741TIP3    H271715   3.052   5.317   0.132  1.7502 -0.9303  0.1426
16742TIP3   OH271716   2.521   4.164  11.398 -0.1902 -0.4717 -0.2584
16742TIP3    H171717   2.445   4.106  11.399 -0.6582  0.1274 -0.3414
16742TIP3    H271718   2.497   4.235  11.338 -0.5546  0.9984  1.5662
16743TIP3   OH271719   5.243   5.046   1.365  0.1021 -0.2317 -0.0181
16743TIP3    H171720   5.332   5.080   1.358  0.2869 -1.0006 -1.8253
16743TIP3    H271721   5.208   5.054   1.276 -2.1072  1.2793  0.9293
16744TIP3   OH271722   5.459   2.360   5.662  0.0751  0.7017  0.6183
16744TIP3    H171723   5.469   2.301   5.587  0.4842  1.0626  0.3922
16744TIP3    H271724   5.407   2.433   5.628 -2.0543 -0.4144  1.3749
16745TIP3   OH271725   2.327   0.115   3.032  0.0711  0.3762  0.5075
16745TIP3    H171726   2.295   0.059   3.103 -0.6456  0.1022 -0.0299
16745TIP3    H271727   2.379   0.182   3.077  0.3368 -0.2977  1.2157
16746TIP3   OH271728   2.229   1.204  13.828 -0.0422  0.7116  0.2043
16746TIP3    H171729   2.296   1.172  13.768 -1.2331 -0.1703 -0.6772
16746TIP3    H271730   2.251   1.163  13.912  0.0758 -0.1969 -0.2606
16747TIP3   OH271731   4.017   4.657  13.920  0.3587  0.3395 -0.4836
16747TIP3    H171732   4.039   4.745  13.950  0.6603 -0.5106  1.9278
16747TIP3    H271733   4.085   4.635  13.856  0.8715  1.4488 -0.3334
16748TIP3   OH271734   0.500   4.874  14.181 -0.7071  0.9156 -0.3285
16748TIP3    H171735   0.542   4.863  14.096 -0.2766  1.7349 -0.2224
16748TIP3    H271736   0.451   4.956  14.174 -0.1777  1.2995  0.4094
16749TIP3   OH271737   3.503   4.667  13.699 -0.2939  0.0495 -0.4181
16749TIP3    H171738   3.487   4.575  13.678  0.4093 -0.3462  0.7310
16749TIP3    H271739   3.598   4.674  13.706 -0.2470  1.1753 -1.8215
16750TIP3   OH271740   6.758   0.817  13.287 -0.1984  0.1489  0.0657
16750TIP3    H171741   6.736   0.830  13.195  1.3023  0.0857 -0.3191
16750TIP3    H271742   6.761   0.905  13.325 -0.6944  0.1823  0.0242
16751TIP3   OH271743   0.278   3.890  13.691 -0.3431 -0.3597 -0.4184
16751TIP3    H171744   0.183   3.880  13.699 -0.2557 -1.1142 -0.2457
16751TIP3    H271745   0.291   3.928  13.604 -0.7850 -0.6873 -0.6318
16752TIP3   OH271746   2.620   6.428   6.080  0.3854  0.1445  0.3403
16752TIP3    H171747   2.568   6.356   6.114  1.6385 -1.4375 -1.0374
16752TIP3    H271748   2.599   6.502   6.138 -1.5470 -1.0719  1.2454
16753TIP3   OH271749   1.708   4.794   2.388  0.1998 -0.4923 -0.2829
16753TIP3    H171750   1.627   4.811   2.436  0.1547  1.0357 -0.8802
16753TIP3    H271751   1.775   4.782   2.456  0.0497  1.1999  0.1660
16754TIP3   OH271752   4.394   0.235   2.782  0.3784 -0.2168 -0.2222
16754TIP3    H171753   4.336   0.165   2.753 -0.4905  0.1094  0.7198
16754TIP3    H271754   4.392   0.299   2.710  0.1380 -0.5374 -0.5028
16755TIP3   OH271755   3.516   6.199   0.624 -0.6096 -0.0233 -0.4422
16755TIP3    H171756   3.458   6.137   0.579 -0.3355 -0.0814 -0.7227
16755TIP3    H271757   3.458   6.266   0.659 -0.7800  0.2728 -1.2882
16756TIP3   OH271758   2.048   3.282  17.037  0.1395  0.0269 -0.4788
16756TIP3    H171759   1.976   3.262  16.977 -0.7297 -3.1998  1.5135
16756TIP3    H271760   2.127   3.276  16.983 -0.8745  1.1278 -2.1290
16757TIP3   OH271761   4.806   0.168  11.018 -0.1397 -0.1492 -0.0779
16757TIP3    H171762   4.893   0.133  11.038 -0.9624 -0.9681  2.2163
16757TIP3    H271763   4.823   0.248  10.969  1.9122 -0.2081  0.5026
16758TIP3   OH271764   5.701   4.969   3.595 -0.6972  0.6900 -0.1632
16758TIP3    H171765   5.756   4.894   3.570 -1.1232  0.5162 -0.5849
16758TIP3    H271766   5.680   4.955   3.687  1.5718  1.7499  0.5634
16759TIP3   OH271767   2.576   1.445  14.402 -0.3226  0.3440  0.3091
16759TIP3    H171768   2.650   1.474  14.349 -0.6677  0.1215 -0.2904
16759TIP3    H271769   2.526   1.524  14.420 -0.9146  0.2222 -0.7872
16760TIP3   OH271770   1.566   5.480   5.196  0.0284 -0.1050  0.3068
16760TIP3    H171771   1.538   5.478   5.105 -0.7763 -0.3881  0.5620
16760TIP3    H271772   1.505   5.540   5.239 -0.9317 -1.6201  1.1069
16761TIP3   OH271773   0.801   2.089   1.410 -0.0902  0.4084  0.2157
16761TIP3    H171774   0.793   2.180   1.384  1.3505  1.0984  2.1244
16761TIP3    H271775   0.885   2.083   1.455  0.8134 -2.3005 -1.6483
16762TIP3   OH271776   0.485   2.586   5.918 -0.5016 -0.3462 -0.0135
16762TIP3    H171777   0.495   2.672   5.878 -3.8374  1.1451  2.1971
16762TIP3    H271778   0.426   2.539   5.860  0.4933 -0.7845 -0.6749
16763TIP3   OH271779   1.015   6.764  10.907  0.5972 -0.8261  0.5326
16763TIP3    H171780   0.929   6.726  10.892 -1.0800  2.5907  1.1623
16763TIP3    H271781   1.025   6.830  10.838  3.3953 -2.2469 -0.4983
16764TIP3   OH271782   0.245   6.533  16.286 -0.1509  0.4620  0.2484
16764TIP3    H171783   0.224   6.450  16.330 -1.0552 -0.1995 -1.3940
16764TIP3    H271784   0.338   6.525  16.263 -0.2467 -0.1036  0.0612
16765TIP3   OH271785   0.671   2.075   3.222 -0.2292  0.4277  1.2740
16765TIP3    H171786   0.642   1.985   3.230  0.3559  0.2363  1.2735
16765TIP3    H271787   0.751   2.080   3.274  0.3827  0.6387  0.3414
16766TIP3   OH271788   3.066   0.056  10.722  0.0645  0.2801 -0.0134
16766TIP3    H171789   3.128   0.122  10.753  0.3892  0.3821 -0.8907
16766TIP3    H271790   3.087   0.043  10.630 -0.3009 -0.7190  0.0334
16767TIP3   OH271791   0.004   0.606   5.335  0.4804 -0.4210  0.2050
16767TIP3    H171792   0.025   0.513   5.328  1.2664 -0.1399 -1.4923
16767TIP3    H271793   0.057   0.648   5.267 -0.4016  1.1752  0.4667
16768TIP3   OH271794   2.965   0.606  15.377  0.7252 -0.2394  0.6451
16768TIP3    H171795   3.016   0.647  15.307  2.2285  1.5480  2.6979
16768TIP3    H271796   3.023   0.538  15.412  1.0575  0.6182  1.8192
16769TIP3   OH271797   1.858   0.612   3.662  0.3089 -0.5952 -0.1262
16769TIP3    H171798   1.867   0.697   3.619  0.9540 -0.0243  1.1036
16769TIP3    H271799   1.815   0.556   3.597 -3.3593  1.6235  0.2228
16770TIP3   OH271800   4.303   3.079  11.376  0.0784  0.1874  0.0090
16770TIP3    H171801   4.381   3.129  11.350  0.7906 -1.1498 -0.4754
16770TIP3    H271802   4.230   3.134  11.350  0.8560  1.2534  0.0303
16771TIP3   OH271803   0.194   5.615  12.090  0.2651  0.3524 -0.3719
16771TIP3    H171804   0.261   5.603  12.158 -0.1656 -0.8426 -0.1410
16771TIP3    H271805   0.111   5.599  12.136 -0.0460 -0.2027 -1.1120
16772TIP3   OH271806   0.745   4.277  12.211 -0.0455  0.4136  0.2830
16772TIP3    H171807   0.714   4.323  12.133  0.0918  1.3699  0.7819
16772TIP3    H271808   0.830   4.240  12.185 -0.2602  0.2481 -0.1868
16773TIP3   OH271809   0.364   0.041   2.258  0.0832 -0.4824 -0.6152
16773TIP3    H171810   0.397  -0.009   2.183  0.3945 -0.0656 -0.7584
16773TIP3    H271811   0.273   0.061   2.235  0.1185 -0.5274 -0.7973
16774TIP3   OH271812   1.968   1.550   0.852 -0.3221  0.3792  0.1867
16774TIP3    H171813   1.890   1.539   0.907 -0.2199 -0.9761  0.0657
16774TIP3    H271814   2.039   1.509   0.901 -0.2363 -0.8808 -0.9514
16775TIP3   OH271815   0.627   2.480  15.906  0.7001  0.1014 -0.0325
16775TIP3    H171816   0.711   2.447  15.877 -0.1602 -1.0745 -1.2445
16775TIP3    H271817   0.599   2.419  15.975  0.7159  0.3487  0.1965
16776TIP3   OH271818   0.304   2.426   2.313  0.6695 -0.0530  0.4735
16776TIP3    H171819   0.330   2.413   2.222 -0.5184  0.4670  0.0414
16776TIP3    H271820   0.242   2.499   2.310 -1.1647 -1.5251  1.3902
16777TIP3   OH271821   1.991   3.971   5.903  1.0778  0.1085  0.1289
16777TIP3    H171822   1.962   4.062   5.895  0.0998 -0.2576 -0.6063
16777TIP3    H271823   2.045   3.956   5.826  0.8953 -0.0588  0.0330
16778TIP3   OH271824   2.759   6.669   3.727 -0.7176 -0.0408  0.0956
16778TIP3    H171825   2.846   6.628   3.727 -1.5193 -1.8018  2.1118
16778TIP3    H271826   2.723   6.650   3.640  0.4788 -0.1706 -0.3839
16779TIP3   OH271827   5.783   5.516   4.933  0.0827  0.3469 -0.7196
16779TIP3    H171828   5.815   5.577   4.866 -2.0778  1.4906 -0.7716
16779TIP3    H271829   5.834   5.538   5.011 -1.7736  3.4659 -0.2656
16780TIP3   OH271830   4.307   3.556   3.675 -0.2341  0.2407 -0.2264
16780TIP3    H171831   4.294   3.645   3.708 -3.1025  0.3587 -1.5486
16780TIP3    H271832   4.357   3.569   3.594  0.5675  0.5016  0.2941
16781TIP3   OH271833   1.305   1.382   4.525  0.0071 -0.7047 -0.1369
16781TIP3    H171834   1.235   1.426   4.573  0.4940 -1.2911  1.1432
16781TIP3    H271835   1.386   1.412   4.568  0.4561 -1.1388 -0.6725
16782TIP3   OH271836   0.520   2.761   5.095 -0.2305 -0.0486  0.4096
16782TIP3    H171837   0.571   2.685   5.122  0.4988  0.6230  0.9478
16782TIP3    H271838   0.584   2.833   5.091 -1.3519  1.1091  2.3931
16783TIP3   OH271839   4.802   3.416   3.663 -0.0814 -0.5501 -0.1913
16783TIP3    H171840   4.811   3.422   3.758 -0.6091 -1.4195 -0.0729
16783TIP3    H271841   4.833   3.500   3.630  0.7156 -0.4811  0.7078
16784TIP3   OH271842   2.987   3.072  12.325 -0.0233 -0.1513  0.6683
16784TIP3    H171843   2.957   3.040  12.410 -0.6947  0.7440  0.7778
16784TIP3    H271844   2.949   3.159  12.317  0.4430 -0.0260 -0.3376
16785TIP3   OH271845   4.969   4.901   4.666 -0.7415 -0.0776 -0.5687
16785TIP3    H171846   4.888   4.873   4.624 -1.4683  0.2633  0.5623
16785TIP3    H271847   5.030   4.915   4.594 -0.7621 -3.1898 -1.2596
16786TIP3   OH271848   1.559   6.492   3.758  0.2608  0.3119 -0.2358
16786TIP3    H171849   1.571   6.587   3.762 -0.9117  0.5847 -2.3623
16786TIP3    H271850   1.468   6.481   3.730  0.2127 -1.4663  0.5543
16787TIP3   OH271851   5.349   3.493   3.223 -0.3027 -0.2197  0.0351
16787TIP3    H171852   5.347   3.480   3.318 -0.1499 -1.1221 -0.0803
16787TIP3    H271853   5.383   3.410   3.189 -0.4747  0.0620 -0.8140
16788TIP3   OH271854   4.651   6.213   3.515 -0.4787 -0.4624  0.1646
16788TIP3    H171855   4.736   6.230   3.474 -0.5539 -1.0512 -0.2440
16788TIP3    H271856   4.619   6.300   3.540  0.8097 -0.3468  1.4545
16789TIP3   OH271857   5.018   0.994  13.708  0.3517 -0.4240 -0.2565
16789TIP3    H171858   5.007   1.022  13.617 -0.9254  0.4440  0.1597
16789TIP3    H271859   5.106   1.023  13.732  0.3106  0.2316 -0.8949
16790TIP3   OH271860   3.064   3.279   5.342  0.0682 -1.0046 -0.2344
16790TIP3    H171861   3.046   3.217   5.413 -0.5197 -0.6176 -0.0348
16790TIP3    H271862   3.002   3.351   5.357 -0.7586 -1.3794 -1.7068
16791TIP3   OH271863   1.169   1.821   3.038 -0.0108 -0.4416 -0.2588
16791TIP3    H171864   1.234   1.868   2.985  1.3690 -0.9813  0.9336
16791TIP3    H271865   1.202   1.732   3.044 -0.8580 -0.7201  0.3811
16792TIP3   OH271866   6.127   5.628   3.266  1.2159 -0.0234  0.2337
16792TIP3    H171867   6.161   5.560   3.208  0.4377 -0.0291 -0.2384
16792TIP3    H271868   6.194   5.696   3.266  1.5491 -0.3529 -0.0931
16793TIP3   OH271869   1.186   2.940  16.333 -0.4983  0.0286 -0.5767
16793TIP3    H171870   1.173   3.032  16.312 -1.5271  0.1223  0.4510
16793TIP3    H271871   1.156   2.931  16.423  0.9341 -1.0200 -0.1864
16794TIP3   OH271872   4.635   4.200   0.181  0.4512 -0.1165  0.1983
16794TIP3    H171873   4.701   4.132   0.172  0.4218 -0.2034  0.6280
16794TIP3    H271874   4.568   4.178   0.117  0.3719 -0.5748  0.4355
16795TIP3   OH271875   1.144   2.188   2.484 -0.1905 -0.0027  0.1475
16795TIP3    H171876   1.216   2.144   2.439 -0.7121 -0.1201 -0.5729
16795TIP3    H271877   1.116   2.257   2.424  0.7696  1.4826  1.3600
16796TIP3   OH271878   0.695   2.562   5.168 -0.2714 -0.0135  0.1949
16796TIP3    H171879   0.664   2.525   5.250  0.6134 -0.6732  0.2385
16796TIP3    H271880   0.783   2.596   5.188 -0.4375  0.6796 -0.2357
16797TIP3   OH271881   3.569   4.881  13.133  0.1457 -0.0465  0.0980
16797TIP3    H171882   3.477   4.897  13.116 -0.0291  1.0097  1.8730
16797TIP3    H271883   3.571   4.847  13.223  1.4339 -0.4973 -0.0920
16798TIP3   OH271884   5.452   3.243   3.314 -0.9966 -0.0193 -0.1898
16798TIP3    H171885   5.422   3.263   3.402 -0.7551 -0.8684  0.0938
16798TIP3    H271886   5.373   3.240   3.261 -1.2265 -0.4045  0.1776
16799TIP3   OH271887   3.157   4.265   4.555 -0.5660 -0.2057  0.0323
16799TIP3    H171888   3.108   4.245   4.635 -0.0084 -2.1846 -0.1087
16799TIP3    H271889   3.232   4.206   4.557  2.0603  2.9719  0.4004
16800TIP3   OH271890   4.802   2.088   5.620  0.5719  0.3859 -0.3957
16800TIP3    H171891   4.807   2.041   5.704  0.1822  1.9016  0.4999
16800TIP3    H271892   4.716   2.129   5.622 -0.8311 -2.2620 -3.0348
16801TIP3   OH271893   4.461   0.627  11.685  0.7309  0.2183  0.1735
16801TIP3    H171894   4.549   0.592  11.670 -0.6898 -2.1518 -3.4386
16801TIP3    H271895   4.409   0.551  11.711 -0.9796  0.9205 -1.0968
16802TIP3   OH271896   3.165   2.955  15.983  0.4288  0.2220 -0.3831
16802TIP3    H171897   3.147   3.045  16.010  1.1654  0.2273  0.1022
16802TIP3    H271898   3.240   2.961  15.924  0.3063 -0.0445 -0.5702
16803TIP3   OH271899   5.609   5.882  10.769  0.6402 -0.3643 -0.2616
16803TIP3    H171900   5.682   5.821  10.780  2.0837  0.9756 -2.2938
16803TIP3    H271901   5.644   5.966  10.798 -1.0026 -0.2176  1.4382
16804TIP3   OH271902   6.770   2.628   0.842  0.4158 -0.7270  0.1952
16804TIP3    H171903   6.796   2.580   0.764  1.1538 -1.9260  1.1722
16804TIP3    H271904   6.843   2.688   0.859  0.2824 -0.5102  0.0159
16805TIP3   OH271905   4.037   5.647   0.206  0.2983  0.4917 -0.3624
16805TIP3    H171906   4.129   5.671   0.201  0.6898 -0.9929 -0.4319
16805TIP3    H271907   3.992   5.712   0.153  1.5309  0.0106 -2.0212
16806TIP3   OH271908   4.291   4.851  16.143 -0.0261  0.1985  0.3359
16806TIP3    H171909   4.286   4.764  16.183  1.4867  0.6327  1.5313
16806TIP3    H271910   4.251   4.909  16.208 -0.7687  0.4398 -0.3322
16807TIP3   OH271911   3.249   0.666   0.088  0.2584 -0.3368  0.4015
16807TIP3    H171912   3.251   0.759   0.109  0.0151 -0.8346  2.7577
16807TIP3    H271913   3.229   0.663  -0.006  0.7092  1.9734  0.1979
16808TIP3   OH271914   3.400   2.768   2.966 -0.0924 -0.3813  0.1950
16808TIP3    H171915   3.463   2.722   3.021  0.9693 -0.2464 -0.9045
16808TIP3    H271916   3.453   2.810   2.898 -1.3882 -0.4606 -0.8753
16809TIP3   OH271917   3.605   5.604  16.033  0.3422 -0.1650 -0.0919
16809TIP3    H171918   3.625   5.560  16.116 -0.0018 -0.5532 -0.2130
16809TIP3    H271919   3.582   5.532  15.974  0.9480  0.0803 -0.6248
16810TIP3   OH271920   5.311   1.485  12.693  0.2929  0.0329  0.5260
16810TIP3    H171921   5.262   1.439  12.625  0.2106  0.4375  0.3087
16810TIP3    H271922   5.273   1.574  12.694  0.6197  0.1701  0.7662
16811TIP3   OH271923   0.902   6.803   1.220  0.0757  0.1406 -0.3086
16811TIP3    H171924   0.891   6.884   1.171  0.3729  0.4486  0.1281
16811TIP3    H271925   0.861   6.736   1.165 -0.2520  0.5983 -0.6288
16812TIP3   OH271926   0.645   0.593   3.144 -0.2993 -0.9418 -0.0880
16812TIP3    H171927   0.576   0.529   3.163 -0.6197 -0.5107  0.2156
16812TIP3    H271928   0.623   0.628   3.058 -0.5813 -0.6411  0.1084
16813TIP3   OH271929   4.126   4.907   3.781  0.4701  0.1376 -0.5859
16813TIP3    H171930   4.094   4.996   3.794  0.8920  0.3393 -0.9084
16813TIP3    H271931   4.168   4.909   3.695  2.2230  0.1347  0.2565
16814TIP3   OH271932   5.486   5.719  12.326 -0.6976  0.2577 -0.2885
16814TIP3    H171933   5.408   5.770  12.305 -1.1501 -0.7949 -1.1965
16814TIP3    H271934   5.464   5.675  12.408 -0.3488  1.4098  0.4362
16815TIP3   OH271935   0.239   0.372  12.624  0.2077 -0.3364  0.3098
16815TIP3    H171936   0.265   0.425  12.549  0.9161 -0.5056  0.4316
16815TIP3    H271937   0.321   0.353  12.670 -0.1931 -0.4068  1.0097
16816TIP3   OH271938   0.550   0.510  15.190 -0.0043  0.1210  0.2858
16816TIP3    H171939   0.615   0.546  15.251 -0.1327  1.6897 -0.4643
16816TIP3    H271940   0.567   0.416  15.189  1.2750  0.3266  1.2462
16817TIP3   OH271941   4.777   4.885   3.401 -0.1238 -0.3381  0.3650
16817TIP3    H171942   4.726   4.935   3.337 -1.1228 -0.3073  1.1699
16817TIP3    H271943   4.765   4.794   3.374 -2.7392 -0.5347  2.0352
16818TIP3   OH271944   0.499   0.353  13.498  0.3263  0.3510  0.5881
16818TIP3    H171945   0.484   0.262  13.475  0.6021  0.8515 -1.7445
16818TIP3    H271946   0.425   0.400  13.460  0.1832  1.1050  1.7640
16819TIP3   OH271947   1.377   4.898  13.118  0.1023 -0.7654  0.3222
16819TIP3    H171948   1.320   4.914  13.193 -0.1209  1.1355 -0.2307
16819TIP3    H271949   1.454   4.952  13.135  0.2969 -0.7658 -0.5441
16820TIP3   OH271950   1.165   2.923  16.969 -0.2545  0.2029 -0.3249
16820TIP3    H171951   1.252   2.950  16.939 -0.0103 -2.8223 -2.5733
16820TIP3    H271952   1.182   2.852  17.032 -1.0765  0.1314 -0.1780
16821TIP3   OH271953   4.948   3.988   4.751 -0.0579  0.1303 -0.1441
16821TIP3    H171954   4.955   3.895   4.728  1.1180 -0.1348  1.1828
16821TIP3    H271955   4.890   3.989   4.827  1.0205  0.3246  0.6889
16822TIP3   OH271956   5.564   6.727   4.130 -0.3067  0.3062  0.0249
16822TIP3    H171957   5.619   6.650   4.140 -0.0834  0.4383 -0.1753
16822TIP3    H271958   5.545   6.756   4.219 -0.1770  0.1723  0.0941
16823TIP3   OH271959   0.468   5.053   1.464 -0.3210 -0.1149  0.0865
16823TIP3    H171960   0.380   5.086   1.482 -0.7107 -1.8485  1.5048
16823TIP3    H271961   0.461   4.959   1.475  1.3337 -0.4478 -1.5001
16824TIP3   OH271962   2.132   3.511   2.162  0.6897 -0.3722 -0.1424
16824TIP3    H171963   2.093   3.598   2.176 -1.5753 -1.2809 -0.5527
16824TIP3    H271964   2.123   3.468   2.247  1.4562 -0.3507 -0.0486
16825TIP3   OH271965   3.037   4.094  14.053  0.0654 -0.1072  0.1594
16825TIP3    H171966   3.040   4.020  14.115  1.2214 -1.7974 -1.8302
16825TIP3    H271967   3.077   4.059  13.974 -0.1673  2.4425 -1.1083
16826TIP3   OH271968   3.081   4.757  14.312 -0.2716 -0.4138  0.1111
16826TIP3    H171969   3.117   4.746  14.224 -1.3414 -0.9553 -0.2749
16826TIP3    H271970   2.999   4.707  14.310  0.8198 -2.3303  2.1313
16827TIP3   OH271971   5.409   6.334  14.559 -0.1973  0.2954  0.4923
16827TIP3    H171972   5.374   6.261  14.609  0.9078 -0.8012 -0.3125
16827TIP3    H271973   5.336   6.396  14.553 -1.6475 -1.4190 -0.1412
16828TIP3   OH271974   1.721   3.089  14.268  0.0097  0.4324 -0.1277
16828TIP3    H171975   1.664   3.166  14.269  1.0095  1.1846 -0.0814
16828TIP3    H271976   1.809   3.124  14.279  0.6347 -0.5776 -1.6517
16829TIP3   OH271977   3.001   4.484   2.125  0.4711 -0.3149  0.4749
16829TIP3    H171978   2.946   4.409   2.104  0.6921 -0.3871  0.1454
16829TIP3    H271979   2.952   4.533   2.191  0.0549 -0.4280  0.2480
16830TIP3   OH271980   1.649   0.782  15.518  0.1851  0.2014 -0.2118
16830TIP3    H171981   1.694   0.866  15.519  0.2937  0.1729 -1.7589
16830TIP3    H271982   1.707   0.723  15.565  0.5575  0.7638  0.0366
16831TIP3   OH271983   5.608   4.909   4.280 -0.2409 -0.3667 -0.1883
16831TIP3    H171984   5.531   4.957   4.249 -1.5182 -2.5204 -0.4321
16831TIP3    H271985   5.658   4.973   4.330 -2.2270  1.0531  0.0228
16832TIP3   OH271986   1.759   1.676   2.030 -0.4061  0.3587  0.0749
16832TIP3    H171987   1.668   1.696   2.007  0.5976  3.4084 -1.5043
16832TIP3    H271988   1.779   1.735   2.103  0.4022 -0.1356  0.2623
16833TIP3   OH271989   4.091   0.616   3.350 -0.3350 -0.5435 -0.4730
16833TIP3    H171990   4.011   0.585   3.306 -0.5785 -0.8395  0.1837
16833TIP3    H271991   4.145   0.650   3.278 -1.8443  1.4436 -0.7500
16834TIP3   OH271992   0.277   6.070  15.519  0.2006  0.1504  0.0297
16834TIP3    H171993   0.292   6.164  15.503  0.5358  0.1059  0.0692
16834TIP3    H271994   0.235   6.039  15.439  1.0369  0.1196 -0.4093
16835TIP3   OH271995   2.033   1.850   4.551 -0.2914  0.1980 -0.2901
16835TIP3    H171996   2.021   1.895   4.635  2.5823  0.9355 -0.2192
16835TIP3    H271997   2.034   1.757   4.573  2.4407  0.4358  0.8533
16836TIP3   OH271998   4.241   5.820   1.877 -0.3000  0.3677  0.1945
16836TIP3    H171999   4.247   5.888   1.944  0.8869 -0.0585  0.5295
16836TIP3    H272000   4.246   5.867   1.794 -0.7759  0.8021  0.4100
16837TIP3   OH272001   1.076   0.631   4.915  0.0909  0.1281 -0.4442
16837TIP3    H172002   1.038   0.589   4.992 -0.4512 -0.1247 -0.8487
16837TIP3    H272003   1.025   0.597   4.841  0.2288  0.8123 -0.8599
16838TIP3   OH272004   4.585   5.891  15.283 -0.4270  0.2138 -0.1875
16838TIP3    H172005   4.632   5.922  15.361  0.7154 -0.6580 -0.5216
16838TIP3    H272006   4.611   5.952  15.214 -1.6219  1.1260  0.1414
16839TIP3   OH272007   0.974   5.907   2.199  0.0004 -0.3089  0.1328
16839TIP3    H172008   1.014   5.854   2.268  0.2649  0.5637  0.6622
16839TIP3    H272009   0.881   5.909   2.220  0.1334  0.2752  0.6936
16840TIP3   OH272010   4.114   1.560  16.127  0.0208 -0.1366  0.6187
16840TIP3    H172011   4.051   1.559  16.200  0.0676  3.2053  0.7780
16840TIP3    H272012   4.059   1.561  16.049 -0.1174  1.3043  0.7284
16841TIP3   OH272013   6.006   2.018   2.068 -0.0002 -0.4628  0.1916
16841TIP3    H172014   6.077   1.982   2.015 -0.8522  1.2988 -2.2523
16841TIP3    H272015   6.051   2.062   2.140  1.5299  1.8738 -2.0959
16842TIP3   OH272016   2.348   1.587   5.602 -0.5669  0.0895  1.0170
16842TIP3    H172017   2.386   1.565   5.687  0.9047 -2.0561 -0.1257
16842TIP3    H272018   2.408   1.652   5.565 -0.1868 -0.3308  0.8820
16843TIP3   OH272019   6.252   0.383  15.340  0.3245  0.2188 -0.2345
16843TIP3    H172020   6.228   0.475  15.351  0.4857  0.3812 -1.2453
16843TIP3    H272021   6.307   0.363  15.416 -1.4993  0.3498  1.1463
16844TIP3   OH272022   3.901   5.990   2.323  0.3590  0.2267 -0.1770
16844TIP3    H172023   3.887   5.896   2.313  1.5068 -0.0129  0.4266
16844TIP3    H272024   3.813   6.028   2.323 -0.0667 -0.7326 -1.5247
16845TIP3   OH272025   0.273   1.472  17.262  0.4865 -0.2492 -0.2717
16845TIP3    H172026   0.218   1.548  17.245  1.1011  0.2603  0.0039
16845TIP3    H272027   0.246   1.407  17.197  0.9570  0.7190 -1.4532
16846TIP3   OH272028   0.936   6.180   2.036  0.3685 -0.5685  0.0461
16846TIP3    H172029   0.884   6.137   1.968 -2.0314 -1.5148  2.3841
16846TIP3    H272030   0.995   6.112   2.068  1.6672 -0.0581 -1.1729
16847TIP3   OH272031   3.526   6.607   4.721 -0.5564 -0.1359  0.0220
16847TIP3    H172032   3.569   6.605   4.807 -0.3745 -3.7814 -0.0604
16847TIP3    H272033   3.444   6.654   4.736 -0.4468 -0.5683  2.1764
16848TIP3   OH272034   0.852   6.730  11.812  0.2117  0.2048  0.1236
16848TIP3    H172035   0.838   6.675  11.735  1.0740 -3.1972  2.2642
16848TIP3    H272036   0.946   6.722  11.830  0.0322  1.0297  1.4628
16849TIP3   OH272037   3.374   6.064   1.701  0.0152 -0.6059  0.6169
16849TIP3    H172038   3.379   6.022   1.615  0.4452 -1.0764  0.8642
16849TIP3    H272039   3.312   6.135   1.690 -0.0230 -0.7407 -0.0546
16850TIP3   OH272040   4.251   1.473  14.394  0.0153  0.2262 -0.1864
16850TIP3    H172041   4.306   1.492  14.470  0.6485 -0.2887 -0.5094
16850TIP3    H272042   4.212   1.557  14.371  1.9171  0.9377 -0.9319
16851TIP3   OH272043   0.694   4.281  16.631 -0.1743  0.2632  0.1447
16851TIP3    H172044   0.747   4.258  16.708 -0.9032 -2.7674 -0.1939
16851TIP3    H272045   0.633   4.347  16.663  1.7762  1.5356  1.3028
16852TIP3   OH272046   1.020   6.502   3.403  0.4754 -0.1048 -0.1377
16852TIP3    H172047   1.089   6.489   3.468 -0.7279 -2.3627  0.7483
16852TIP3    H272048   1.014   6.418   3.357  0.6257  1.1465 -2.5183
16853TIP3   OH272049   4.704   3.076  12.753 -0.4175  0.2928 -0.2276
16853TIP3    H172050   4.691   3.171  12.746 -0.2187  0.4282  1.0594
16853TIP3    H272051   4.616   3.039  12.742 -1.0002  0.8305  2.2805
16854TIP3   OH272052   1.106   1.782   0.939  0.1891  0.5687 -0.3126
16854TIP3    H172053   1.100   1.715   1.007  0.1761 -0.0863 -0.9517
16854TIP3    H272054   1.142   1.859   0.983  1.8164 -0.3801  0.0613
16855TIP3   OH272055   1.797   1.462   0.420 -0.0778  0.5077 -0.1744
16855TIP3    H172056   1.817   1.395   0.355 -2.2962 -0.7101  0.3535
16855TIP3    H272057   1.839   1.541   0.386 -1.6999  0.0587 -3.4241
16856TIP3   OH272058   1.527   1.726  13.134 -0.5589  0.1434  0.3278
16856TIP3    H172059   1.557   1.756  13.220  1.6081 -2.5288  0.5741
16856TIP3    H272060   1.446   1.679  13.151 -0.0826 -0.4608  0.9134
16857TIP3   OH272061   2.109   3.753   2.562  0.5268  0.2565  0.1120
16857TIP3    H172062   2.090   3.720   2.650 -0.3026  1.2056  0.3086
16857TIP3    H272063   2.036   3.812   2.543  0.5258 -0.2055 -1.3624
16858TIP3   OH272064   2.415   4.835   0.026 -0.2381  0.3489  0.3793
16858TIP3    H172065   2.430   4.811   0.117  0.9422 -1.7515 -0.3160
16858TIP3    H272066   2.335   4.788   0.002  0.7409 -1.0059 -0.3037
16859TIP3   OH272067   3.046   0.326  10.542  0.3221 -0.0200 -0.4353
16859TIP3    H172068   3.081   0.332  10.453 -0.5547 -0.2645 -0.7996
16859TIP3    H272069   3.097   0.256  10.583 -0.8339 -1.5071 -1.4843
16860TIP3   OH272070   5.013   4.792  15.956 -0.3717  0.2752  0.0830
16860TIP3    H172071   5.042   4.808  15.866  0.0165 -0.8165  0.0042
16860TIP3    H272072   5.061   4.855  16.008 -1.5923  1.8200 -0.6204
16861TIP3   OH272073   1.088   4.537   1.530  0.2091  0.3708 -0.9711
16861TIP3    H172074   1.101   4.622   1.488  0.5701 -0.2329 -2.1257
16861TIP3    H272075   1.147   4.478   1.482 -0.2686 -0.5854 -0.3930
16862TIP3   OH272076   1.508   3.159   5.414  0.3944 -0.1832  0.0392
16862TIP3    H172077   1.481   3.068   5.402 -1.4219  0.3664 -0.2717
16862TIP3    H272078   1.498   3.175   5.508 -0.5594  0.0744 -0.1044
16863TIP3   OH272079   3.033   2.045   4.831  0.6604  0.0910 -0.5458
16863TIP3    H172080   3.053   1.973   4.771  1.4539 -0.2833  0.1530
16863TIP3    H272081   3.042   2.124   4.779  1.9266 -0.1964 -0.7745
16864TIP3   OH272082   4.708   1.694  14.141 -0.0095 -0.2715 -0.2618
16864TIP3    H172083   4.696   1.779  14.101 -1.8474 -0.3664  0.0382
16864TIP3    H272084   4.779   1.707  14.204 -0.9626  1.2940  0.5142
16865TIP3   OH272085   5.953   1.668  14.074  0.7989  0.2803 -0.2074
16865TIP3    H172086   5.988   1.723  14.004  3.3177 -0.8055  0.1706
16865TIP3    H272087   5.914   1.593  14.028 -0.2532  1.0253 -0.5700
16866TIP3   OH272088   3.362   6.445  12.371  0.1497  0.1442  0.1118
16866TIP3    H172089   3.339   6.480  12.456  0.4625  0.7398 -0.0468
16866TIP3    H272090   3.313   6.362  12.365 -0.1461  0.2734  0.7146
16867TIP3   OH272091   4.286   1.745  17.012 -0.2095  0.1414 -0.3385
16867TIP3    H172092   4.237   1.667  16.988  0.0749  0.1926 -1.1144
16867TIP3    H272093   4.277   1.803  16.937 -2.1860  1.7185  1.0710
16868TIP3   OH272094   3.497   3.819  14.795 -0.0705 -0.4007  0.2133
16868TIP3    H172095   3.503   3.735  14.750  1.2307  0.0707 -0.4866
16868TIP3    H272096   3.403   3.828  14.814 -0.5549 -0.8928 -1.8314
16869TIP3   OH272097   6.684   6.691   1.213  0.0358  0.3054 -0.2225
16869TIP3    H172098   6.711   6.615   1.162  1.6252 -0.3675  1.5802
16869TIP3    H272099   6.588   6.687   1.213  0.0693 -0.7322 -1.5459
16870TIP3   OH272100   1.408   0.351  13.500  1.4361 -0.4305 -0.4731
16870TIP3    H172101   1.394   0.350  13.405 -0.0795  2.0747 -0.3003
16870TIP3    H272102   1.320   0.350  13.537  2.0031  0.2892  0.8906
16871TIP3   OH272103   2.663   3.825   1.368  0.1570  0.2005 -0.3313
16871TIP3    H172104   2.626   3.737   1.377 -2.9110  1.2869 -1.4651
16871TIP3    H272105   2.690   3.830   1.276 -2.7474  1.4693 -1.1938
16872TIP3   OH272106   0.251   0.925   1.378 -0.0321 -0.4574  0.3273
16872TIP3    H172107   0.252   0.866   1.302  1.7142  1.3882 -1.1447
16872TIP3    H272108   0.343   0.934   1.403 -0.4701  0.0785  1.7795
16873TIP3   OH272109   5.521   2.008  14.992  0.2762  0.5594  0.2863
16873TIP3    H172110   5.504   2.014  14.898  0.2359 -0.7865  0.1970
16873TIP3    H272111   5.448   2.053  15.033 -0.1652  0.3885 -0.3050
16874TIP3   OH272112   6.330   0.611   3.165 -0.6044 -0.4591  0.2732
16874TIP3    H172113   6.412   0.648   3.133 -0.2367 -1.2197  0.3469
16874TIP3    H272114   6.275   0.603   3.087 -0.3993 -0.4971  0.1329
16875TIP3   OH272115   0.059   5.307  14.273 -0.3800 -0.9312 -0.1582
16875TIP3    H172116   0.006   5.373  14.229  0.3582  0.6571  1.2760
16875TIP3    H272117   0.148   5.324  14.243 -0.1270 -1.0013  0.5327
16876TIP3   OH272118   4.357   5.313   0.930 -0.5452  0.7273 -0.3196
16876TIP3    H172119   4.297   5.386   0.946 -2.2606 -0.9674  1.3015
16876TIP3    H272120   4.406   5.305   1.012 -1.2973 -0.7727 -0.0112
16877TIP3   OH272121   5.122   0.916  15.574  0.4389 -0.0640 -0.4641
16877TIP3    H172122   5.175   0.992  15.600 -0.6399  0.0038  1.6715
16877TIP3    H272123   5.185   0.853  15.540  1.4045  1.6062 -1.8688
16878TIP3   OH272124   2.332   3.956   1.912 -0.5645  0.2762  0.6780
16878TIP3    H172125   2.301   4.023   1.972  0.1322  1.1621  0.0565
16878TIP3    H272126   2.392   4.002   1.852 -1.1210 -0.6111 -0.5957
16879TIP3   OH272127   3.265   4.455   0.892 -0.2020 -0.3707 -0.2000
16879TIP3    H172128   3.305   4.438   0.978 -2.2926  0.4714  0.9946
16879TIP3    H272129   3.266   4.550   0.884 -0.3481 -0.4314 -0.9391
16880TIP3   OH272130   6.175   5.427  14.336  0.0090  0.9420 -0.0201
16880TIP3    H172131   6.126   5.489  14.390 -0.0585 -0.5323  1.6501
16880TIP3    H272132   6.260   5.420  14.380 -0.8360 -1.9844  1.2070
16881TIP3   OH272133   5.175   4.712   2.611  0.2808  0.0785 -0.5082
16881TIP3    H172134   5.102   4.652   2.599  1.9997 -2.0734 -0.4123
16881TIP3    H272135   5.210   4.727   2.523  0.9194 -0.4225 -0.3410
16882TIP3   OH272136   1.085   0.218  12.535 -0.2816 -0.7458  1.1069
16882TIP3    H172137   1.145   0.260  12.473 -1.2454 -0.5107  0.3195
16882TIP3    H272138   1.039   0.152  12.482 -1.1040 -0.5526  1.5765
16883TIP3   OH272139   3.222   4.770  11.380 -0.2896 -0.2376  0.4571
16883TIP3    H172140   3.315   4.759  11.358  0.0324 -0.2247  1.7707
16883TIP3    H272141   3.190   4.681  11.393 -0.5258 -0.2564 -0.2336
16884TIP3   OH272142   0.465   2.577  13.205 -0.0558 -0.4857 -0.0402
16884TIP3    H172143   0.376   2.560  13.173  0.1296  0.0297 -0.8449
16884TIP3    H272144   0.453   2.631  13.282 -0.3999  0.6382 -0.8620
16885TIP3   OH272145   5.606   0.314  11.568  0.2973 -0.1667 -0.7220
16885TIP3    H172146   5.586   0.220  11.570  1.8337 -0.5131 -0.6587
16885TIP3    H272147   5.594   0.343  11.659 -1.5639  0.0135 -1.0175
16886TIP3   OH272148   3.329   4.757  11.023  0.0092  0.0693 -0.2053
16886TIP3    H172149   3.290   4.845  11.027  0.9081  0.4054  1.8239
16886TIP3    H272150   3.280   4.712  10.955 -1.1090  1.8492 -0.6007
16887TIP3   OH272151   3.014   2.108   3.040 -0.0723  0.3918  0.5653
16887TIP3    H172152   2.981   2.040   2.981 -0.4811 -0.0701  1.3294
16887TIP3    H272153   2.972   2.091   3.124  2.4405 -0.5089  1.7183
16888TIP3   OH272154   4.495   3.987   2.046 -0.3019  0.4122  0.1719
16888TIP3    H172155   4.430   3.931   2.088  1.0842 -0.5990  1.0283
16888TIP3    H272156   4.544   4.026   2.118  0.2636  0.8905 -0.4598
16889TIP3   OH272157   6.124   1.242  16.676  0.1667 -0.0698  0.1211
16889TIP3    H172158   6.082   1.164  16.640  1.5836 -0.5193 -0.6136
16889TIP3    H272159   6.067   1.270  16.747  1.8188 -4.2929  3.3151
16890TIP3   OH272160   4.025   2.342   6.149  0.2914  0.2367 -0.2417
16890TIP3    H172161   4.083   2.388   6.210  0.9437 -1.2384  0.2719
16890TIP3    H272162   4.055   2.252   6.151 -2.1118 -0.5810  0.1347
16891TIP3   OH272163   3.131   2.518  14.876  0.2166 -0.0020 -0.1580
16891TIP3    H172164   3.108   2.610  14.860  0.8845  0.2210  0.1783
16891TIP3    H272165   3.062   2.469  14.830  0.0145  0.6594 -0.5777
16892TIP3   OH272166   2.919   1.323  14.309  0.1366  0.0743  0.2521
16892TIP3    H172167   2.995   1.340  14.364  1.1302 -0.2798 -0.9702
16892TIP3    H272168   2.865   1.262  14.359  0.5445  0.5126  1.2270
16893TIP3   OH272169   4.867   2.173   6.245  0.0749 -0.0629  0.6466
16893TIP3    H172170   4.773   2.185   6.237 -0.0775 -1.0204  0.9800
16893TIP3    H272171   4.880   2.137   6.333  0.7592  0.1649  0.6452
16894TIP3   OH272172   5.240   1.701   1.338  0.6142  0.3137 -0.1892
16894TIP3    H172173   5.316   1.722   1.392  0.0535  1.2374  0.2671
16894TIP3    H272174   5.165   1.712   1.398 -0.0570  1.8652 -1.2857
16895TIP3   OH272175   5.777   4.451   5.024 -0.0392 -0.5951 -0.0584
16895TIP3    H172176   5.840   4.471   4.954 -0.5033  0.3651 -0.2110
16895TIP3    H272177   5.823   4.475   5.104  0.2453 -1.0735 -0.0714
16896TIP3   OH272178   2.549   0.419  11.308 -0.2346  0.1253 -1.1446
16896TIP3    H172179   2.520   0.331  11.285 -1.3522  0.8531 -2.6162
16896TIP3    H272180   2.570   0.460  11.224  0.4619  1.2069 -0.4570
16897TIP3   OH272181   4.578   4.827  13.453 -0.0751  0.2310 -0.1483
16897TIP3    H172182   4.582   4.731  13.447 -0.3310  0.2544 -0.7284
16897TIP3    H272183   4.537   4.854  13.371 -0.4083  0.8137  0.2099
16898TIP3   OH272184   2.682   6.005   1.379  0.0117 -0.8202  0.2356
16898TIP3    H172185   2.713   5.963   1.298  2.5490 -0.3024  0.8933
16898TIP3    H272186   2.756   5.998   1.439 -1.4650 -0.2200  2.1660
16899TIP3   OH272187   2.575   5.343   5.796  0.0798  0.0797 -0.3829
16899TIP3    H172188   2.603   5.342   5.704  0.0295  0.3162 -0.3988
16899TIP3    H272189   2.557   5.251   5.816  0.6676 -0.0522 -0.4368
16900TIP3   OH272190   6.155   3.606   1.900 -0.0239 -0.2381 -0.3780
16900TIP3    H172191   6.070   3.643   1.876 -0.2925 -1.5895 -1.6292
16900TIP3    H272192   6.139   3.512   1.905  0.7685 -0.2670  2.1445
16901TIP3   OH272193   3.049   6.583  12.834  0.4584  0.7779  0.0258
16901TIP3    H172194   3.008   6.636  12.903 -3.2347 -1.6199 -0.2191
16901TIP3    H272195   3.076   6.503  12.879  0.8191  0.4828 -0.7124
16902TIP3   OH272196   3.636   5.417   0.132 -0.2849 -0.3497  0.0709
16902TIP3    H172197   3.580   5.476   0.081 -0.9206 -0.0573  1.0877
16902TIP3    H272198   3.600   5.330   0.114 -0.5738 -0.2393  0.1038
16903TIP3   OH272199   4.664   2.053  12.744 -0.0030 -0.1031  0.5388
16903TIP3    H172200   4.656   1.959  12.726  0.1048  0.0348 -0.2458
16903TIP3    H272201   4.618   2.065  12.827  0.4346 -0.9388  0.9138
16904TIP3   OH272202   3.608   1.591   3.631  0.0879 -0.0751  0.1648
16904TIP3    H172203   3.577   1.666   3.580  1.0663 -0.4590 -1.0115
16904TIP3    H272204   3.681   1.556   3.580  1.2441 -0.3272  1.9547
16905TIP3   OH272205   6.239   0.711  14.488 -0.3610 -0.4917 -0.0176
16905TIP3    H172206   6.258   0.804  14.494  1.0064 -0.5886 -2.1957
16905TIP3    H272207   6.323   0.668  14.505 -0.9898 -1.3558  1.0181
16906TIP3   OH272208   5.806   3.872   5.317  0.0972 -0.2171  0.3799
16906TIP3    H172209   5.741   3.898   5.382 -0.6186 -1.3734  0.1428
16906TIP3    H272210   5.849   3.795   5.355 -0.5249 -1.0779 -0.6233
16907TIP3   OH272211   0.186   1.867   2.463  0.5607 -0.0797 -0.2323
16907TIP3    H172212   0.105   1.872   2.413 -1.1601 -0.2458  2.4662
16907TIP3    H272213   0.185   1.946   2.517  0.4517 -1.8069  2.3554
16908TIP3   OH272214   1.765   6.361   3.955 -0.3774 -0.3789  0.0505
16908TIP3    H172215   1.677   6.375   3.989 -0.3222  1.2069 -0.4252
16908TIP3    H272216   1.776   6.427   3.886  0.9848 -0.9050 -0.2721
16909TIP3   OH272217   6.770   1.177  16.599 -0.6309 -0.6319  0.0891
16909TIP3    H172218   6.860   1.202  16.581 -0.8983  0.6013  0.4383
16909TIP3    H272219   6.765   1.084  16.574  0.8999 -0.8870  0.6849
16910TIP3   OH272220   2.787   0.011   0.594 -1.1089 -0.0152 -0.4950
16910TIP3    H172221   2.829   0.074   0.652 -1.7003  1.1618 -1.3301
16910TIP3    H272222   2.706  -0.013   0.639 -0.4987 -0.8100  0.2007
16911TIP3   OH272223   3.933   4.556  16.292  0.3683  0.1261  0.3289
16911TIP3    H172224   3.978   4.625  16.340  2.4496  0.4230 -1.9339
16911TIP3    H272225   3.992   4.480  16.298 -0.0191 -0.2533 -0.4872
16912TIP3   OH272226   1.952   0.033   2.721  0.2101  0.0976 -0.6541
16912TIP3    H172227   2.012  -0.026   2.766  0.5390  1.8111  1.2434
16912TIP3    H272228   2.008   0.102   2.686 -0.4881  0.9749 -0.0690
16913TIP3   OH272229   1.169   1.393  11.705 -0.8005 -0.6903  0.0593
16913TIP3    H172230   1.130   1.352  11.627 -0.2071  0.0967 -0.6594
16913TIP3    H272231   1.252   1.347  11.717 -0.4800 -0.2124 -0.3059
16914TIP3   OH272232   4.329   5.786  12.937  0.5605  0.5675 -0.2611
16914TIP3    H172233   4.253   5.732  12.960  0.3075  0.3562 -1.5547
16914TIP3    H272234   4.352   5.831  13.018 -0.0969 -0.4171  0.4827
16915TIP3   OH272235   1.196   6.163   0.804 -0.6034  0.8372  0.4061
16915TIP3    H172236   1.166   6.253   0.816  0.3834  1.1861  0.3629
16915TIP3    H272237   1.121   6.117   0.766 -0.6279  2.0005 -1.0007
16916TIP3   OH272238   2.822   5.113  12.156 -0.0191  0.4123 -0.7099
16916TIP3    H172239   2.764   5.037  12.155 -0.3005  0.5958  0.7013
16916TIP3    H272240   2.786   5.172  12.090 -2.4389  1.2420  1.2633
16917TIP3   OH272241   5.487   1.760   0.379 -0.2620  0.3760 -0.4402
16917TIP3    H172242   5.529   1.689   0.427 -0.1061  1.5463  1.2089
16917TIP3    H272243   5.393   1.747   0.394 -0.1936  0.9824  0.5602
16918TIP3   OH272244   6.614   5.482   0.460 -0.4134  1.1349  0.2380
16918TIP3    H172245   6.548   5.469   0.393 -0.7832 -4.0617  1.3769
16918TIP3    H272246   6.694   5.504   0.412 -0.6271 -2.6397 -2.0619
16919TIP3   OH272247   4.379   2.291  10.784  0.5568  0.0240 -0.1585
16919TIP3    H172248   4.292   2.286  10.824  0.1430  0.6623 -0.9750
16919TIP3    H272249   4.368   2.349  10.709  1.4245 -0.8249 -0.9535
16920TIP3   OH272250   5.594   6.128   0.894 -0.0583 -0.5240  0.2412
16920TIP3    H172251   5.614   6.174   0.976  0.1697 -1.1532  0.5440
16920TIP3    H272252   5.666   6.065   0.884  1.1530  1.1194 -1.6444
16921TIP3   OH272253   3.595   3.163  13.521 -0.2186 -0.0815 -0.5086
16921TIP3    H172254   3.559   3.181  13.434  0.7284  0.9037 -0.7007
16921TIP3    H272255   3.542   3.216  13.580 -0.4012 -0.2014 -0.5632
16922TIP3   OH272256   0.254   1.968  16.621  0.4975  0.6790 -0.1768
16922TIP3    H172257   0.306   1.889  16.634  1.1353  1.2863  1.0327
16922TIP3    H272258   0.311   2.027  16.573 -0.0365  0.3547 -1.2193
16923TIP3   OH272259   5.197   1.938  13.428  0.1921 -0.0775 -0.0165
16923TIP3    H172260   5.139   1.980  13.491 -0.2181 -0.7529  0.0662
16923TIP3    H272261   5.147   1.936  13.346  0.6123  0.5397 -0.2905
16924TIP3   OH272262   5.501   5.551   4.215  0.1260 -0.6284  0.4983
16924TIP3    H172263   5.447   5.547   4.136  0.3860 -1.1905  0.3476
16924TIP3    H272264   5.448   5.600   4.278  0.7898  1.7534 -0.7090
16925TIP3   OH272265   3.944   5.305   2.151 -0.2973  0.2632 -0.4355
16925TIP3    H172266   3.942   5.397   2.178 -4.2970  0.8472 -2.3215
16925TIP3    H272267   4.013   5.301   2.085  0.9085  1.5409  0.6971
16926TIP3   OH272268   5.042   5.397  16.543  0.2127 -0.1430 -0.2105
16926TIP3    H172269   5.034   5.434  16.631  2.1357  1.7901 -0.7908
16926TIP3    H272270   4.960   5.349  16.529 -0.0361 -0.6259  2.6807
16927TIP3   OH272271   4.150   4.011   0.119  0.8044 -0.5024  0.0799
16927TIP3    H172272   4.195   4.037   0.038  0.4847 -0.1951  0.0015
16927TIP3    H272273   4.152   4.089   0.174  0.8561 -0.6565  0.3011
16928TIP3   OH272274   3.764   5.328   3.282 -0.2370  0.4559 -0.3508
16928TIP3    H172275   3.823   5.263   3.321  0.4744  0.0584 -2.0476
16928TIP3    H272276   3.789   5.410   3.324  1.5222  0.2897 -1.0074
16929TIP3   OH272277   3.795   6.645  11.114  0.1006  0.0431  0.4904
16929TIP3    H172278   3.793   6.684  11.027 -0.9316 -0.5729  0.2314
16929TIP3    H272279   3.728   6.577  11.111  0.7199 -0.6164  1.4651
16930TIP3   OH272280   0.072   0.245  15.837 -0.3564 -0.3153  0.3617
16930TIP3    H172281   0.025   0.177  15.885  1.5458 -1.2634  0.9396
16930TIP3    H272282   0.054   0.325  15.887  0.1487 -0.9797  1.6453
16931TIP3   OH272283   5.594   1.383  10.628 -0.0618  0.2763  0.3281
16931TIP3    H172284   5.518   1.410  10.680 -0.4002  2.0262 -1.0547
16931TIP3    H272285   5.613   1.458  10.572  2.0615 -0.5413 -0.0748
16932TIP3   OH272286   5.548   0.469   1.044  0.3851  0.1872 -0.1796
16932TIP3    H172287   5.489   0.500   1.112  0.8312 -0.2974  0.4221
16932TIP3    H272288   5.491   0.424   0.981 -0.2198  1.8415 -0.8522
16933TIP3   OH272289   6.111   6.154   4.114  0.1770  0.5549 -0.1818
16933TIP3    H172290   6.141   6.084   4.172  3.7633  1.4641 -0.7982
16933TIP3    H272291   6.045   6.112   4.059  0.9314 -1.8663  0.6620
16934TIP3   OH272292   2.318   2.957  12.911 -0.5633  0.1427 -0.5821
16934TIP3    H172293   2.247   3.015  12.884 -1.1529  0.8248  2.2265
16934TIP3    H272294   2.276   2.873  12.927 -0.5179  0.2118 -0.1021
16935TIP3   OH272295   6.763   5.549  16.727  0.0327 -0.2348  0.0078
16935TIP3    H172296   6.691   5.585  16.779  0.9107  1.0499  0.3537
16935TIP3    H272297   6.740   5.457  16.716 -0.7707 -0.2533  1.6428
16936TIP3   OH272298   0.883   4.571  12.595  0.3099  0.1714 -0.3631
16936TIP3    H172299   0.958   4.616  12.633  0.5960  0.6977 -1.5201
16936TIP3    H272300   0.807   4.611  12.636  0.5915  1.1722 -0.8000
16937TIP3   OH272301   4.876   4.649  11.064  0.0561 -0.3216 -0.1838
16937TIP3    H172302   4.855   4.557  11.078 -1.2414  0.2073  1.5225
16937TIP3    H272303   4.814   4.678  10.997 -0.6237 -0.2939  0.4503
16938TIP3   OH272304   3.993   6.252  15.218 -0.1628  0.4139 -0.0919
16938TIP3    H172305   3.935   6.281  15.288  0.0694  1.7894 -0.4562
16938TIP3    H272306   4.062   6.204  15.263 -1.4919 -1.1223  0.3550
16939TIP3   OH272307   5.823   0.648  13.041  0.6212 -0.5726 -0.1757
16939TIP3    H172308   5.772   0.571  13.068 -0.2381  0.1961  0.4007
16939TIP3    H272309   5.801   0.715  13.105  1.8362 -0.0199 -0.3327
16940TIP3   OH272310   4.449   0.999  13.493 -0.4164 -0.4610 -0.1491
16940TIP3    H172311   4.372   1.036  13.451 -0.4533  0.8569  1.0717
16940TIP3    H272312   4.463   1.052  13.571  2.7126  0.3990 -1.2256
16941TIP3   OH272313   4.561   4.935  11.639  1.3476 -0.0923 -1.3155
16941TIP3    H172314   4.508   5.014  11.629  0.4135 -0.2818  1.6970
16941TIP3    H272315   4.651   4.967  11.640  0.9469  1.0566  0.7097
16942TIP3   OH272316   2.481   5.120  15.532 -0.2227  0.2654 -0.8698
16942TIP3    H172317   2.541   5.116  15.606  0.8371  1.9632 -1.6029
16942TIP3    H272318   2.432   5.201  15.545 -1.8738 -0.7415 -0.6684
16943TIP3   OH272319   0.414   5.769   3.053  0.0623 -0.1823  0.3886
16943TIP3    H172320   0.418   5.675   3.071 -0.0331 -0.0022  1.3488
16943TIP3    H272321   0.498   5.803   3.082  1.2476 -0.3994 -2.5728
16944TIP3   OH272322   4.966   1.039   6.018 -0.0474  0.3818 -0.1377
16944TIP3    H172323   4.996   0.948   6.008 -1.3923 -0.1552  0.5952
16944TIP3    H272324   4.941   1.065   5.929  1.1049  0.3094 -0.4858
16945TIP3   OH272325   6.361   1.818  16.988 -0.3471 -0.0738 -0.2014
16945TIP3    H172326   6.412   1.752  16.941 -0.3454 -0.5419  0.4540
16945TIP3    H272327   6.353   1.891  16.926  2.3140  0.5878  0.1689
16946TIP3   OH272328   1.022   4.244   4.905 -0.2365 -0.2787 -0.4808
16946TIP3    H172329   1.115   4.267   4.913  0.2913 -0.8484 -4.0804
16946TIP3    H272330   1.014   4.161   4.952  1.0958 -0.2702 -0.2145
16947TIP3   OH272331   0.973   4.722  11.962 -0.2352 -0.8628  0.0234
16947TIP3    H172332   1.011   4.647  12.008 -0.0565 -0.9152 -0.2100
16947TIP3    H272333   0.887   4.733  12.002 -0.0489 -0.8586  0.4236
16948TIP3   OH272334   0.924   5.480  13.109  0.1677 -0.2635  0.3365
16948TIP3    H172335   0.855   5.423  13.074 -0.0861  0.3518 -0.1812
16948TIP3    H272336   0.877   5.553  13.149  0.4823 -0.5774  1.2801
16949TIP3   OH272337   5.558   3.533  11.253 -0.1760  0.4145  0.0841
16949TIP3    H172338   5.558   3.472  11.327  0.5920  0.3459  0.0303
16949TIP3    H272339   5.611   3.607  11.283 -0.4983  0.7358 -0.1216
16950TIP3   OH272340   4.636   4.283   0.440 -0.1127 -0.3149 -0.0851
16950TIP3    H172341   4.631   4.263   0.346 -0.9782 -0.2486 -0.0527
16950TIP3    H272342   4.558   4.242   0.477 -0.3593  0.6252  0.4368
16951TIP3   OH272343   2.867   6.779   6.183  0.2264  0.5066  0.1831
16951TIP3    H172344   2.811   6.847   6.146 -1.0531 -0.5445  0.1509
16951TIP3    H272345   2.863   6.708   6.119  2.3222  0.7482 -0.2625
16952TIP3   OH272346   1.671   5.938  14.992  0.2501 -0.1223  0.3852
16952TIP3    H172347   1.665   6.001  15.064 -2.0044  0.4824 -0.2945
16952TIP3    H272348   1.707   5.988  14.919 -2.1588  0.6012 -0.3492
16953TIP3   OH272349   6.594   2.158  11.031  0.2297  0.1786 -0.0073
16953TIP3    H172350   6.522   2.157  10.968  1.7452 -2.7705 -1.8170
16953TIP3    H272351   6.664   2.205  10.987  0.2639  0.8998  0.7909
16954TIP3   OH272352   0.011   6.394   4.597 -0.2621  0.3695 -0.7110
16954TIP3    H172353   0.012   6.489   4.588  1.5475  0.5430  1.0298
16954TIP3    H272354   0.103   6.370   4.606 -0.8960 -1.2520  1.7421
16955TIP3   OH272355   0.414   5.353   0.949 -0.2067 -0.1334  0.1602
16955TIP3    H172356   0.322   5.350   0.921  0.6256  1.0679 -2.9284
16955TIP3    H272357   0.455   5.279   0.903  0.6099  0.0714  0.5551
16956TIP3   OH272358   6.018   4.185  16.415  0.8708 -0.5992  0.3269
16956TIP3    H172359   5.963   4.193  16.337  2.6338  1.1156 -0.7872
16956TIP3    H272360   6.005   4.095  16.445 -0.2370 -1.1222 -1.6265
16957TIP3   OH272361   1.285   6.710  13.773  0.1413  0.1389  0.2814
16957TIP3    H172362   1.322   6.726  13.686 -0.9145  2.0811  0.1657
16957TIP3    H272363   1.331   6.772  13.830 -0.3688  0.0448  0.8027
16958TIP3   OH272364   5.695   4.365  13.075 -0.4525 -0.3148 -0.0266
16958TIP3    H172365   5.738   4.283  13.098  0.4628 -0.0505 -0.7543
16958TIP3    H272366   5.601   4.344  13.076 -0.2137 -1.4590 -0.5202
16959TIP3   OH272367   5.921   3.618   0.934  0.0131 -0.3537 -0.1405
16959TIP3    H172368   5.849   3.586   0.987 -0.9837  1.2145 -0.5346
16959TIP3    H272369   5.991   3.636   0.996  0.4339 -2.7570  0.1512
16960TIP3   OH272370   3.677   0.277   6.304  0.6119 -0.8716  0.5742
16960TIP3    H172371   3.690   0.211   6.373  0.5641 -0.5501  0.8944
16960TIP3    H272372   3.658   0.358   6.352  0.4876 -0.6661  0.1783
16961TIP3   OH272373   6.483   3.795  11.913  0.2358 -0.7423 -0.0981
16961TIP3    H172374   6.568   3.754  11.931  0.5821 -0.4340 -1.0167
16961TIP3    H272375   6.503   3.887  11.900 -0.3943 -0.4749  0.8163
16962TIP3   OH272376   1.621   6.109   5.542  0.5997 -0.5567 -0.2569
16962TIP3    H172377   1.555   6.175   5.522  1.6973  0.6135 -0.0417
16962TIP3    H272378   1.572   6.040   5.588 -0.3653  0.5663  0.4224
16963TIP3   OH272379   1.657   6.145   0.034 -0.3245  0.0015  0.4232
16963TIP3    H172380   1.664   6.058  -0.004 -1.3888 -0.1194  0.4863
16963TIP3    H272381   1.571   6.176   0.007  0.1112  1.0966  0.2769
16964TIP3   OH272382   0.873   0.511  16.026  0.4481 -0.0596  0.3432
16964TIP3    H172383   0.864   0.504  16.121 -2.0324  2.6477  0.3488
16964TIP3    H272384   0.810   0.448  15.991  0.8994 -0.5899  0.4791
16965TIP3   OH272385   5.758   1.593   2.063  0.5236 -0.2297 -0.1963
16965TIP3    H172386   5.700   1.592   1.987  1.5168  0.5693 -0.9877
16965TIP3    H272387   5.845   1.613   2.026  0.9540  0.5154  1.1838
16966TIP3   OH272388   2.376   5.966  16.429  0.3639 -0.0043 -0.1410
16966TIP3    H172389   2.312   6.035  16.414  0.3062  0.2540  1.2364
16966TIP3    H272390   2.328   5.885  16.412  0.0201  0.2383 -0.3315
16967TIP3   OH272391   1.343   4.026  16.697 -0.2676  0.0300  0.0956
16967TIP3    H172392   1.331   4.021  16.792 -0.0946  1.3721  0.1835
16967TIP3    H272393   1.254   4.033  16.662 -0.2579  0.9656  0.2460
16968TIP3   OH272394   1.824   4.953   0.749 -0.4184 -0.6760  0.8106
16968TIP3    H172395   1.803   4.971   0.840 -0.2952 -0.4477  0.7938
16968TIP3    H272396   1.781   4.869   0.730 -0.5179 -0.6775  1.0502
16969TIP3   OH272397   3.017   4.604  11.971  0.0546  0.0538  0.6371
16969TIP3    H172398   3.013   4.560  11.886  0.0386 -0.6017  0.9740
16969TIP3    H272399   3.108   4.631  11.980 -0.4134  2.1119 -0.5824
16970TIP3   OH272400   5.951   0.504  15.937 -0.2186 -0.4017  0.0007
16970TIP3    H172401   5.897   0.434  15.900 -0.2418 -0.4282  0.0841
16970TIP3    H272402   5.986   0.467  16.018  0.3136 -0.5570 -0.2925
16971TIP3   OH272403   3.677   3.104  16.954 -0.3369 -0.6845 -0.5080
16971TIP3    H172404   3.697   3.166  17.025 -3.2432  0.8831 -0.9549
16971TIP3    H272405   3.750   3.043  16.954  1.0325  0.8514  2.1064
16972TIP3   OH272406   2.072   5.597  15.821  0.0514 -0.2683 -0.4215
16972TIP3    H172407   2.051   5.507  15.846  0.1831 -0.3079 -0.4500
16972TIP3    H272408   2.055   5.649  15.899  0.1478 -0.3435 -0.3513
16973TIP3   OH272409   1.672   4.910  11.764  0.6848  0.2153 -0.4662
16973TIP3    H172410   1.744   4.864  11.720 -1.9868 -4.5457 -0.1182
16973TIP3    H272411   1.594   4.889  11.712 -1.1742  1.6460  1.6441
16974TIP3   OH272412   3.004   5.590  14.823  0.5640 -0.3966  0.2007
16974TIP3    H172413   2.971   5.586  14.912  0.4719 -0.3860  0.1672
16974TIP3    H272414   3.096   5.566  14.830  0.2886 -1.4795  0.1482
16975TIP3   OH272415   4.916   5.880   2.298 -0.1638  0.9571 -0.3232
16975TIP3    H172416   5.004   5.912   2.279  0.9330 -2.3511 -1.2431
16975TIP3    H272417   4.857   5.940   2.252  1.6183  3.0657  0.1086
16976TIP3   OH272418   4.993   6.600   6.556 -0.1841  0.3778  0.0892
16976TIP3    H172419   5.028   6.541   6.489  0.7859  1.7770 -0.6779
16976TIP3    H272420   4.898   6.595   6.544 -0.0479  0.1218 -1.0016
16977TIP3   OH272421   2.678   1.802  16.053 -0.3876  0.2738 -0.7249
16977TIP3    H172422   2.723   1.885  16.070  0.9505 -0.2582 -1.5771
16977TIP3    H272423   2.735   1.735  16.090  0.0742 -0.4969 -2.7351
16978TIP3   OH272424   1.232   1.184  12.020 -0.0031 -0.2485  0.1334
16978TIP3    H172425   1.193   1.245  12.083 -0.4886 -0.4085 -0.0110
16978TIP3    H272426   1.224   1.228  11.935  1.9292  0.5973  0.3471
16979TIP3   OH272427   0.314   3.880   1.374 -0.3835 -0.6405  0.1911
16979TIP3    H172428   0.331   3.789   1.399 -0.1450 -0.5814  0.2473
16979TIP3    H272429   0.223   3.881   1.347  0.2611 -1.3860 -2.0834
16980TIP3   OH272430   5.335   3.561  15.379 -0.2052  0.3814  0.6113
16980TIP3    H172431   5.381   3.477  15.373 -2.2131 -0.7909  1.3191
16980TIP3    H272432   5.349   3.602  15.293 -0.4243 -1.3313 -0.2553
16981TIP3   OH272433   2.751   3.661  16.238 -0.0419 -0.3278  0.1941
16981TIP3    H172434   2.774   3.689  16.149  1.7145 -1.7791  0.1570
16981TIP3    H272435   2.716   3.573  16.227 -1.3673  0.1246  0.7727
16982TIP3   OH272436   1.363   1.873  13.624  0.0100 -0.5304  0.1254
16982TIP3    H172437   1.436   1.902  13.569 -1.6631  1.9846 -0.8850
16982TIP3    H272438   1.308   1.821  13.565  0.3870 -1.4137  0.5581
16983TIP3   OH272439   6.520   2.538  14.805  0.1353 -0.0917  0.2202
16983TIP3    H172440   6.505   2.632  14.794  0.6599 -0.1362 -0.8773
16983TIP3    H272441   6.432   2.501  14.817 -0.0498  0.5676  0.9683
16984TIP3   OH272442   5.421   2.966   5.007  0.8498 -0.2248 -0.2358
16984TIP3    H172443   5.425   2.987   4.913 -1.5817 -1.2337 -0.6121
16984TIP3    H272444   5.444   3.048   5.051 -0.2021  0.8803 -1.6914
16985TIP3   OH272445   1.991   1.815  13.321 -0.0059  0.1597 -0.3748
16985TIP3    H172446   2.033   1.896  13.290 -0.9546  0.8989  0.2472
16985TIP3    H272447   1.922   1.845  13.380 -1.9732 -1.0081 -2.0421
16986TIP3   OH272448   1.378   6.339   2.691 -0.2085 -0.3505 -0.3356
16986TIP3    H172449   1.393   6.263   2.635  0.0885  0.4020 -1.2934
16986TIP3    H272450   1.283   6.341   2.704 -0.2566 -0.6367 -0.6572
16987TIP3   OH272451   1.837   3.966  14.382  0.7513 -0.0588 -0.3446
16987TIP3    H172452   1.849   3.955  14.477 -1.2712  0.7826  0.0527
16987TIP3    H272453   1.898   4.036  14.359  0.4384  0.5331  0.5705
16988TIP3   OH272454   1.215   4.275   1.683  0.3224 -0.2723 -0.1713
16988TIP3    H172455   1.307   4.299   1.675  0.3955 -0.6546 -0.4716
16988TIP3    H272456   1.192   4.238   1.598 -0.1305 -0.1111 -0.1217
16989TIP3   OH272457   5.189   4.412  16.289 -0.2306 -0.2703  0.3088
16989TIP3    H172458   5.221   4.486  16.340 -1.3126 -1.4585  2.8096
16989TIP3    H272459   5.113   4.446  16.242  0.2619  0.6109  0.1398
16990TIP3   OH272460   3.815   4.808  12.569 -0.0327 -0.0859  0.3295
16990TIP3    H172461   3.772   4.892  12.553  0.0744 -0.2414 -0.8215
16990TIP3    H272462   3.750   4.756  12.616 -0.0989  0.6347  1.0449
16991TIP3   OH272463   2.667   1.709  16.535 -0.8139 -0.1848 -0.2808
16991TIP3    H172464   2.607   1.742  16.469 -1.8835  2.9158  2.1361
16991TIP3    H272465   2.727   1.781  16.552  1.4280 -2.0199 -0.0942
16992TIP3   OH272466   0.743   5.863   4.494  0.0234 -0.1381 -0.6313
16992TIP3    H172467   0.652   5.852   4.466  0.0779  1.3638 -1.4225
16992TIP3    H272468   0.776   5.774   4.503 -1.0435 -0.6771 -1.9281
16993TIP3   OH272469   2.839   5.432   2.087 -0.0792  0.2799  0.2561
16993TIP3    H172470   2.885   5.422   2.171 -2.1409 -0.7228  1.3036
16993TIP3    H272471   2.779   5.505   2.102 -2.2822 -1.5553  0.5047
16994TIP3   OH272472   3.278   4.916   0.264  0.0075  0.2879  0.3750
16994TIP3    H172473   3.356   4.968   0.246 -1.4511  1.3439 -3.5773
16994TIP3    H272474   3.296   4.831   0.225 -0.0087 -0.1881  1.3836
16995TIP3   OH272475   5.644   5.710   5.915  0.1110 -0.6100  0.4005
16995TIP3    H172476   5.571   5.731   5.973  0.8724  1.2336  0.7287
16995TIP3    H272477   5.715   5.685   5.974  0.0098 -1.5967  0.1180
16996TIP3   OH272478   3.407   6.025   0.395 -0.2935 -0.5078 -0.1201
16996TIP3    H172479   3.345   6.013   0.467 -0.2635 -0.2577 -0.0521
16996TIP3    H272480   3.394   6.115   0.367  2.5438  0.6988  2.2440
16997TIP3   OH272481   3.999   0.467   2.214 -0.5596 -0.3355  0.1393
16997TIP3    H172482   3.905   0.483   2.229 -0.3341  1.4616 -0.2693
16997TIP3    H272483   4.002   0.415   2.134 -1.3001 -2.0505  1.2054
16998TIP3   OH272484   4.964   1.141   4.223 -0.0146  0.3000 -0.7137
16998TIP3    H172485   4.870   1.122   4.219 -0.2965  1.8560 -1.4649
16998TIP3    H272486   4.970   1.235   4.237  1.4468  0.8185 -4.1722
16999TIP3   OH272487   6.245   5.723  11.671  0.6870 -0.3638  0.0164
16999TIP3    H172488   6.152   5.739  11.656  0.5407 -0.7068  0.5268
16999TIP3    H272489   6.279   5.696  11.586  0.5375  0.7679 -0.4003
17000TIP3   OH272490   2.107   2.633  16.542 -0.1148  0.0677 -0.2875
17000TIP3    H172491   2.159   2.642  16.622 -0.3288  1.7226 -0.3045
17000TIP3    H272492   2.163   2.585  16.481  0.3899 -0.4073  0.5522
17001TIP3   OH272493   3.768   4.759  10.433 -0.0564 -0.5261 -0.1505
17001TIP3    H172494   3.737   4.787  10.520  1.6970 -0.4442  0.4595
17001TIP3    H272495   3.750   4.835  10.377  0.6250  0.1799  0.5677
17002TIP3   OH272496   5.914   3.805   2.710  0.3720 -0.4021  0.1730
17002TIP3    H172497   5.886   3.717   2.736  2.4061 -0.9960  0.4105
17002TIP3    H272498   6.006   3.810   2.737  0.6363  1.3433 -0.9963
17003TIP3   OH272499   3.621   4.807   6.196 -0.8243  0.3022 -0.3544
17003TIP3    H172500   3.689   4.775   6.136  0.8426 -0.7635  1.9972
17003TIP3    H272501   3.548   4.747   6.184  0.4454 -1.4672  0.4400
17004TIP3   OH272502   0.745   6.370   0.289  0.4553 -0.3037  0.5877
17004TIP3    H172503   0.830   6.403   0.260 -1.1708  2.5265 -1.1244
17004TIP3    H272504   0.719   6.308   0.221  0.2687  0.2634  0.1478
17005TIP3   OH272505   2.217   2.239   3.216  0.1073 -0.0070 -0.3526
17005TIP3    H172506   2.192   2.331   3.207 -1.3139 -0.1830  1.5132
17005TIP3    H272507   2.289   2.239   3.279  2.3513  0.1132 -2.8345
17006TIP3   OH272508   1.407   6.678   6.097  0.3525  0.0571  0.2614
17006TIP3    H172509   1.406   6.764   6.139 -0.2805  0.7103 -1.0508
17006TIP3    H272510   1.451   6.621   6.160 -1.3580  0.7941  2.1830
17007TIP3   OH272511   5.540   6.622   3.240  0.0537  0.2446  0.1907
17007TIP3    H172512   5.559   6.534   3.271  0.1751  0.1080 -0.2567
17007TIP3    H272513   5.446   6.623   3.224  0.1511 -0.0052 -0.4119
17008TIP3   OH272514   3.391   2.101  13.023  0.3790 -0.4488 -0.4175
17008TIP3    H172515   3.359   2.017  13.057 -0.1908 -0.7764 -1.7153
17008TIP3    H272516   3.313   2.155  13.015  0.6447 -0.0433 -0.2477
17009TIP3   OH272517   0.953   4.917   3.197 -0.2023  0.3715 -0.1911
17009TIP3    H172518   0.984   4.977   3.129  0.6759 -0.0452 -0.1593
17009TIP3    H272519   0.965   4.965   3.279 -2.4541  1.3710 -0.4242
17010TIP3   OH272520   0.886   0.126  13.069 -0.1926 -0.5311  0.1920
17010TIP3    H172521   0.855   0.209  13.106  2.1026  0.2890  0.3611
17010TIP3    H272522   0.882   0.065  13.142 -0.3140 -0.1459  0.5107
17011TIP3   OH272523   1.688   6.008   6.244 -0.0249 -0.4425 -0.3753
17011TIP3    H172524   1.712   5.916   6.236 -0.9031 -0.8722  1.7206
17011TIP3    H272525   1.620   6.009   6.312  1.0403  1.9401  0.6877
17012TIP3   OH272526   6.810   5.905  17.178  0.6633 -0.1541 -0.2257
17012TIP3    H172527   6.857   5.825  17.199 -1.0788 -1.1063  0.1496
17012TIP3    H272528   6.748   5.880  17.109 -0.8480  0.5070  0.8556
17013TIP3   OH272529   5.383   6.063   0.482  0.0277  0.1660 -0.4076
17013TIP3    H172530   5.356   5.972   0.482 -0.7898  0.4059 -0.7156
17013TIP3    H272531   5.456   6.066   0.420 -0.2627 -0.1863 -0.7706
17014TIP3   OH272532   3.825   6.752   2.065  0.4199  0.1098 -0.2923
17014TIP3    H172533   3.845   6.774   2.156  1.3900 -0.5121 -0.3482
17014TIP3    H272534   3.910   6.753   2.021 -0.1935  1.7551 -1.5033
17015TIP3   OH272535   1.424   3.723   0.365  0.9837  0.1943  0.0071
17015TIP3    H172536   1.330   3.741   0.361  1.2718  1.6535 -0.5979
17015TIP3    H272537   1.433   3.634   0.331 -0.3759 -0.7104  1.9329
17016TIP3   OH272538   2.379   6.442  13.543 -0.0089  0.1949 -0.5581
17016TIP3    H172539   2.403   6.478  13.628  1.1908 -1.4556 -0.1756
17016TIP3    H272540   2.440   6.369  13.529 -0.8552 -0.2081 -2.3593
17017TIP3   OH272541   3.622   6.404   2.999 -0.2737 -0.2959 -0.4246
17017TIP3    H172542   3.683   6.447   3.060  0.2708 -2.3247  0.5010
17017TIP3    H272543   3.535   6.432   3.028 -0.0253 -1.2934  1.3548
17018TIP3   OH272544   0.100   6.473   2.699  0.1181  0.0656 -0.0410
17018TIP3    H172545   0.066   6.470   2.789 -0.4375  0.1427 -0.2450
17018TIP3    H272546   0.060   6.551   2.661  1.9576  1.1991  0.2676
17019TIP3   OH272547   5.682   0.086  13.434 -0.3977 -0.3743 -0.4013
17019TIP3    H172548   5.750   0.080  13.367  0.2753 -1.7001  0.3684
17019TIP3    H272549   5.605   0.045  13.393  0.1614 -1.6588 -0.2011
17020TIP3   OH272550   6.664   5.687   3.717 -0.4988 -0.1227  0.1926
17020TIP3    H172551   6.690   5.747   3.646  1.3772  0.0974  1.0419
17020TIP3    H272552   6.697   5.729   3.796 -2.4245 -0.4685  1.2027
17021TIP3   OH272553   3.316   5.193  12.258  0.1109  0.5401  0.0282
17021TIP3    H172554   3.330   5.139  12.180 -0.4078  0.6861 -0.1698
17021TIP3    H272555   3.235   5.158  12.296  0.7714 -0.0286  0.9165
17022TIP3   OH272556   6.390   2.892   4.978  0.6397 -0.0499  0.2055
17022TIP3    H172557   6.454   2.822   4.989 -0.2055 -0.9235 -0.3395
17022TIP3    H272558   6.369   2.891   4.885 -2.2133 -1.6230  0.8068
17023TIP3   OH272559   3.084   3.735  12.895  0.1204  0.0499 -0.2756
17023TIP3    H172560   3.068   3.645  12.868  0.9147 -0.4925  1.0146
17023TIP3    H272561   3.009   3.758  12.949  0.3595 -0.1486  0.1414
17024TIP3   OH272562   2.182   3.355  14.732  0.5189  0.2982  0.5273
17024TIP3    H172563   2.132   3.274  14.739  0.2459  0.6247  2.8260
17024TIP3    H272564   2.137   3.406  14.664 -0.6205 -0.5667  0.6245
17025TIP3   OH272565   2.289   2.601  16.743 -0.3477  0.3651 -0.0579
17025TIP3    H172566   2.383   2.588  16.730 -0.4980 -0.8255 -0.0337
17025TIP3    H272567   2.254   2.513  16.757 -1.5761  0.7194 -0.7593
17026TIP3   OH272568   6.736   1.935  16.058  1.1924 -0.3716 -0.4047
17026TIP3    H172569   6.704   2.001  16.120  2.3138 -0.9063  0.7824
17026TIP3    H272570   6.806   1.979  16.010  1.7687 -0.6014  0.2101
17027TIP3   OH272571   6.658   0.290   4.663  0.2430  0.3113  0.0583
17027TIP3    H172572   6.738   0.329   4.697 -0.2787  0.4686  1.1493
17027TIP3    H272573   6.616   0.360   4.612 -0.1652  0.8499  1.1236
17028TIP3   OH272574   5.211   5.026  17.138  0.1301  0.7857 -0.3228
17028TIP3    H172575   5.296   5.060  17.167  0.9724 -0.6092 -1.0641
17028TIP3    H272576   5.183   4.970  17.211  1.0451 -0.7114 -1.0878
17029TIP3   OH272577   0.897   1.590  16.833 -0.6937 -0.1779  0.5037
17029TIP3    H172578   0.802   1.601  16.833 -0.6014  1.0885  3.5208
17029TIP3    H272579   0.912   1.507  16.878 -0.3674 -0.6812 -0.5129
17030TIP3   OH272580   2.898   4.390  17.213  0.0224 -0.7248 -0.2326
17030TIP3    H172581   2.879   4.303  17.177 -0.7758 -1.2226  1.3533
17030TIP3    H272582   2.821   4.412  17.265  0.8643  0.2746  0.6165
17031TIP3   OH272583   2.663   4.137   3.913 -0.1311 -0.5742  0.5128
17031TIP3    H172584   2.758   4.138   3.926 -0.2092  0.2878  1.0294
17031TIP3    H272585   2.652   4.142   3.818  0.3243  0.5197  0.5180
17032TIP3   OH272586   6.497   0.803  15.236 -0.0303  0.0131  0.5004
17032TIP3    H172587   6.467   0.715  15.258 -1.0383  0.7483  2.1542
17032TIP3    H272588   6.564   0.789  15.170  0.7688 -2.0933  1.6923
17033TIP3   OH272589   0.164   3.421  16.573  0.1593 -0.2973 -0.4490
17033TIP3    H172590   0.125   3.413  16.660  0.7245  2.0982  0.0676
17033TIP3    H272591   0.121   3.497  16.534  1.4236 -0.0505 -1.4110
17034TIP3   OH272592   1.340   4.163   2.696  0.7063  0.9119  0.0446
17034TIP3    H172593   1.339   4.144   2.602 -0.0514 -0.5446  0.3319
17034TIP3    H272594   1.250   4.189   2.716  1.1278  2.2959  0.1602
17035TIP3   OH272595   3.892   2.275   3.146  0.4090  0.4170 -0.2850
17035TIP3    H172596   3.834   2.351   3.146  0.3644  0.3835 -0.1228
17035TIP3    H272597   3.875   2.232   3.230  0.2298  0.0718 -0.4951
17036TIP3   OH272598   4.725   1.460   3.269 -0.1310  0.3408 -0.1570
17036TIP3    H172599   4.752   1.523   3.203 -0.6029  0.2054 -0.4813
17036TIP3    H272600   4.636   1.435   3.244  0.3152 -0.9892 -0.4405
17037TIP3   OH272601   2.087   4.722  15.093 -0.0134  0.8765  0.4866
17037TIP3    H172602   2.079   4.761  15.006  0.5337 -0.1720 -0.0374
17037TIP3    H272603   2.025   4.771  15.146 -1.7019  0.3004 -0.9186
17038TIP3   OH272604   6.063   1.758   4.291 -0.4556  0.2113 -0.1078
17038TIP3    H172605   6.066   1.672   4.332 -1.4524  0.3443  0.2685
17038TIP3    H272606   6.017   1.743   4.208 -0.2091  0.2912 -0.2586
17039TIP3   OH272607   1.245   5.360  11.709  0.5181 -0.1115 -0.3561
17039TIP3    H172608   1.161   5.401  11.733 -0.6487 -1.8682 -1.3293
17039TIP3    H272609   1.269   5.402  11.626  0.9951  0.9294  0.2986
17040TIP3   OH272610   2.818   5.562  12.997  0.0824 -0.2045 -0.5201
17040TIP3    H172611   2.900   5.530  13.035 -0.9101 -0.9999  0.9772
17040TIP3    H272612   2.828   5.546  12.903  1.1785 -1.3523 -0.2219
17041TIP3   OH272613   5.647   3.619  13.419 -0.7099 -0.1392  0.0318
17041TIP3    H172614   5.633   3.587  13.508 -2.0206  1.0998  0.2792
17041TIP3    H272615   5.584   3.570  13.365  0.4466 -1.2790 -0.3296
17042TIP3   OH272616   1.293   5.774   3.919 -0.1185 -0.6925 -0.0229
17042TIP3    H172617   1.237   5.721   3.863  0.7843 -0.0387 -1.5724
17042TIP3    H272618   1.291   5.861   3.880  1.7778 -0.6012  0.0246
17043TIP3   OH272619   3.322   2.164  12.689  0.7564 -0.2595  0.2952
17043TIP3    H172620   3.316   2.143  12.596  2.2162 -2.5602  0.6588
17043TIP3    H272621   3.409   2.202  12.700  0.8098 -0.5062  0.7854
17044TIP3   OH272622   6.541   0.194  14.595 -0.0058  0.1449 -0.5344
17044TIP3    H172623   6.621   0.203  14.647 -1.1628 -0.8914  1.4717
17044TIP3    H272624   6.534   0.099  14.579 -0.0745  0.3739 -1.9621
17045TIP3   OH272625   5.825   1.304  16.242 -0.0222  0.0534  0.2769
17045TIP3    H172626   5.837   1.382  16.297 -1.4474 -0.1571  0.8882
17045TIP3    H272627   5.737   1.312  16.207  0.3307 -0.5881 -0.7877
17046TIP3   OH272628   5.303   1.466   0.357  0.1564  0.0463  0.1429
17046TIP3    H172629   5.395   1.491   0.359  0.2490 -0.3298  0.6686
17046TIP3    H272630   5.255   1.548   0.360  0.4667  0.2050  0.7249
17047TIP3   OH272631   5.909   0.112  15.947  0.3031  0.1291 -0.4178
17047TIP3    H172632   5.891   0.026  15.911  0.7974  0.7200 -2.1353
17047TIP3    H272633   5.919   0.169  15.870  1.1815  1.4674  0.6508
17048TIP3   OH272634   1.162   0.329  11.919  0.0218  0.4538 -0.9366
17048TIP3    H172635   1.141   0.300  11.831  2.8927  0.7148 -1.7768
17048TIP3    H272636   1.186   0.422  11.909 -0.3673  0.6874  0.2307
17049TIP3   OH272637   6.438   1.613   3.841  0.5461  0.1535  0.2486
17049TIP3    H172638   6.461   1.692   3.793  3.3502 -0.7605  0.0354
17049TIP3    H272639   6.456   1.634   3.933 -0.1680  0.2634  0.3664
17050TIP3   OH272640   4.393   6.534  14.328 -0.4591  0.2939 -0.1500
17050TIP3    H172641   4.477   6.500  14.294 -0.5027 -0.4578  0.4741
17050TIP3    H272642   4.346   6.563  14.250  0.4055  0.7749 -0.5084
17051TIP3   OH272643   3.856   0.922   1.813  0.4459 -0.1471  0.0437
17051TIP3    H172644   3.882   0.832   1.836 -0.4223 -0.2427  0.6756
17051TIP3    H272645   3.888   0.934   1.724 -0.0706 -1.3451 -0.3171
17052TIP3   OH272646   0.320   4.423  12.106  0.0116  0.0757 -0.2815
17052TIP3    H172647   0.257   4.352  12.116 -2.5447  2.1939 -0.8863
17052TIP3    H272648   0.333   4.457  12.195  0.1886 -0.2633 -0.1778
17053TIP3   OH272649   6.346   5.586   6.129  0.1215  0.4773  0.5729
17053TIP3    H172650   6.361   5.556   6.039 -1.2519  0.8643  0.2117
17053TIP3    H272651   6.314   5.675   6.120 -1.3886  0.0394  1.3731
17054TIP3   OH272652   2.225   1.683   2.519  0.0914  0.3185  0.4993
17054TIP3    H172653   2.314   1.649   2.519  0.7003  1.8147 -1.4475
17054TIP3    H272654   2.180   1.633   2.450 -0.3920  0.0461  1.0063
17055TIP3   OH272655   3.713   6.484  16.999  0.1802 -0.2376  0.1747
17055TIP3    H172656   3.707   6.521  16.911 -0.4009  0.6075  0.5631
17055TIP3    H272657   3.657   6.406  16.996 -1.9837  1.2538  0.5235
17056TIP3   OH272658   6.498   0.764   2.977  0.5295  0.4391  0.0222
17056TIP3    H172659   6.527   0.687   2.928  0.0040 -0.5154  1.2006
17056TIP3    H272660   6.571   0.826   2.969  1.5981 -0.7524  0.3456
17057TIP3   OH272661   0.485   3.922   2.281  0.4163 -0.6174  0.3441
17057TIP3    H172662   0.402   3.950   2.240  1.2416 -0.0333 -0.9521
17057TIP3    H272663   0.553   3.968   2.232  1.5362 -1.2456  1.2786
17058TIP3   OH272664   5.244   4.389  11.955 -0.3959 -0.0073 -0.2024
17058TIP3    H172665   5.211   4.427  11.874  1.5736  0.1455 -0.9688
17058TIP3    H272666   5.297   4.315  11.927  0.2722  0.0215  0.9525
17059TIP3   OH272667   1.183   2.126   5.483  0.2791 -0.1467 -0.0355
17059TIP3    H172668   1.162   2.108   5.392 -1.2120  0.7077  0.1121
17059TIP3    H272669   1.251   2.063   5.506 -0.0852 -1.0552 -1.4332
17060TIP3   OH272670   5.324   2.069   0.036 -0.2669  0.1636  0.2701
17060TIP3    H172671   5.357   2.142  -0.017  0.8884 -0.0634  0.6547
17060TIP3    H272672   5.359   1.991  -0.006  0.6091 -0.0242  1.2972
17061TIP3   OH272673   6.215   1.472  16.801  0.4243  0.5450  0.2983
17061TIP3    H172674   6.160   1.495  16.726 -0.4564  0.1961  0.8336
17061TIP3    H272675   6.246   1.384  16.782  0.6607  0.6752  0.0801
17062TIP3   OH272676   6.195   6.569  15.514 -0.0421  0.0077  0.5685
17062TIP3    H172677   6.214   6.654  15.553 -1.5905 -0.3778  2.1961
17062TIP3    H272678   6.114   6.583  15.465  0.3661 -0.2403 -0.1926
17063TIP3   OH272679   1.172   5.508  13.925 -0.2736 -0.4648  0.3334
17063TIP3    H172680   1.215   5.441  13.872 -0.4399 -0.2601 -0.0593
17063TIP3    H272681   1.242   5.568  13.951 -0.3518 -0.0050 -0.4936
17064TIP3   OH272682   1.931   3.657   0.845  0.1723  0.0167 -0.0399
17064TIP3    H172683   1.907   3.729   0.788 -0.8091  0.9944  1.5535
17064TIP3    H272684   1.886   3.581   0.808  1.3014  0.1765 -1.7893
17065TIP3   OH272685   3.820   2.653   3.632 -0.2093 -0.1037  0.4751
17065TIP3    H172686   3.814   2.749   3.640 -0.0719  0.0674 -1.3936
17065TIP3    H272687   3.837   2.623   3.722  0.1837  1.6556  1.0077
17066TIP3   OH272688   3.397   1.461   6.476  0.0683  0.1305  0.0206
17066TIP3    H172689   3.336   1.475   6.548  1.9605  0.8284  1.5306
17066TIP3    H272690   3.467   1.408   6.514  0.4574 -0.5989 -1.6562
17067TIP3   OH272691   3.455   0.034  16.822  0.0633  0.5251  0.3445
17067TIP3    H172692   3.483   0.002  16.736 -0.7322  0.7826 -0.0166
17067TIP3    H272693   3.416  -0.042  16.864  0.2147  0.4624  0.3677
17068TIP3   OH272694   1.966   0.428  15.771 -0.7455 -0.0009  0.6387
17068TIP3    H172695   2.030   0.409  15.702 -0.6918  1.4594  0.2798
17068TIP3    H272696   1.952   0.343  15.814  1.2246 -0.3937  0.5633
17069TIP3   OH272697   2.547   5.218  16.373 -0.0859 -0.5901 -0.7929
17069TIP3    H172698   2.467   5.267  16.355 -0.6808 -0.1596  2.7764
17069TIP3    H272699   2.617   5.283  16.367 -0.6119  0.2347  1.4090
17070TIP3   OH272700   6.146   4.886  12.431  0.4098  0.2725  0.3468
17070TIP3    H172701   6.125   4.876  12.524  1.5314  0.4455  0.6203
17070TIP3    H272702   6.096   4.962  12.403  0.2129  0.3315  0.8549
17071TIP3   OH272703   5.133   6.709  15.830 -0.2104  0.2110 -0.2396
17071TIP3    H172704   5.080   6.662  15.766  2.5636 -0.5121 -2.1170
17071TIP3    H272705   5.155   6.644  15.896 -3.1071  0.9648  1.5175
17072TIP3   OH272706   1.039   2.792   1.802 -0.2289  0.2633  0.4978
17072TIP3    H172707   0.970   2.733   1.832 -0.2188  0.6171  1.2452
17072TIP3    H272708   1.117   2.736   1.794 -0.7080 -0.2257 -0.7873
17073TIP3   OH272709   4.977   5.685  15.774 -0.2759 -0.3139 -0.2684
17073TIP3    H172710   5.002   5.742  15.847 -1.7696 -0.2823  0.2339
17073TIP3    H272711   4.898   5.641  15.805 -0.9732 -0.2247 -1.9043
17074TIP3   OH272712   3.104   2.914  15.419  0.3740  0.1922 -0.7421
17074TIP3    H172713   3.079   2.917  15.512  1.6637  2.3915 -0.4325
17074TIP3    H272714   3.081   2.825  15.391 -0.5075 -0.3426  1.5417
17075TIP3   OH272715   1.564   2.310   5.722 -0.1275  0.2226  0.1532
17075TIP3    H172716   1.603   2.356   5.796 -0.4845 -0.2972  0.6751
17075TIP3    H272717   1.587   2.362   5.645  0.1068  0.8524  0.6520
17076TIP3   OH272718   0.266   2.234  12.676  0.3533 -0.0087  0.0524
17076TIP3    H172719   0.357   2.204  12.669  0.8468  1.1490  1.2428
17076TIP3    H272720   0.269   2.306  12.739 -1.2547  0.6134 -0.5341
17077TIP3   OH272721   6.592   1.917   0.675  0.3871 -0.2723  0.3191
17077TIP3    H172722   6.565   1.825   0.678  0.1285 -0.1954  0.3556
17077TIP3    H272723   6.618   1.937   0.765  4.9366 -1.6424 -0.5192
17078TIP3   OH272724   2.222   3.109  14.120 -0.0796  0.1607 -0.1372
17078TIP3    H172725   2.224   3.195  14.079 -1.5087 -0.1793 -0.9523
17078TIP3    H272726   2.176   3.053  14.057 -1.1560 -0.6631  1.3297
17079TIP3   OH272727   0.610   0.852  16.922 -0.4159 -0.2109 -0.4952
17079TIP3    H172728   0.594   0.945  16.937 -1.7618 -0.6685  1.0847
17079TIP3    H272729   0.696   0.837  16.961 -0.1977  0.3593 -0.7439
17080TIP3   OH272730   3.963   4.958  12.828  0.1240 -0.2272  0.3036
17080TIP3    H172731   3.935   4.976  12.739 -0.2120  2.1823  0.8448
17080TIP3    H272732   3.887   4.982  12.882  1.0077  0.2548  1.3544
17081TIP3   OH272733   6.490   4.213   4.057 -0.3502  0.5692 -0.0405
17081TIP3    H172734   6.577   4.194   4.024 -0.4073 -0.7920  0.5634
17081TIP3    H272735   6.502   4.288   4.116  0.0971  1.5640 -1.3771
17082TIP3   OH272736   3.614   5.454   6.473  0.5860  0.2005 -0.0947
17082TIP3    H172737   3.702   5.491   6.464  0.6927 -0.3808 -1.6636
17082TIP3    H272738   3.622   5.364   6.442 -0.7037  0.3639 -0.9923
17083TIP3   OH272739   4.488   0.182  17.051 -0.4092  0.0186 -0.0773
17083TIP3    H172740   4.477   0.093  17.019  0.5892 -0.4348  0.7895
17083TIP3    H272741   4.579   0.186  17.081 -0.9846  0.7389  1.6713
17084TIP3   OH272742   6.094   5.530   4.602 -0.8517 -0.4701  0.2683
17084TIP3    H172743   6.096   5.554   4.695 -0.0534 -1.1355  0.4320
17084TIP3    H272744   6.186   5.528   4.575 -1.0402 -0.9058 -0.3677
17085TIP3   OH272745   0.494   1.812   0.466  0.1025 -0.0630 -0.3503
17085TIP3    H172746   0.487   1.907   0.454 -0.0970 -0.0210  0.0820
17085TIP3    H272747   0.585   1.792   0.446  0.5772  0.4701  1.2414
17086TIP3   OH272748   4.956   6.048   2.622  0.3972  0.5048 -0.6718
17086TIP3    H172749   4.990   5.965   2.657 -0.9584  0.2272  0.0331
17086TIP3    H272750   4.993   6.054   2.535  0.9292 -0.6011 -0.5298
17087TIP3   OH272751   0.381   2.364  15.349  0.4185  0.3345  0.3749
17087TIP3    H172752   0.377   2.433  15.415  1.4230 -0.2374  1.0624
17087TIP3    H272753   0.428   2.293  15.393  3.9096  1.0808 -1.9955
17088TIP3   OH272754   2.145   2.095  13.854 -0.5804  0.2363 -0.1459
17088TIP3    H172755   2.082   2.090  13.926 -0.2589  0.6312  0.1664
17088TIP3    H272756   2.093   2.082  13.776 -0.9905  0.1543  0.1403
17089TIP3   OH272757   0.981   5.338   4.430 -0.6199  0.4743  0.0882
17089TIP3    H172758   0.982   5.335   4.334  0.6892  1.9088  0.0452
17089TIP3    H272759   0.893   5.308   4.453 -1.0865  0.4830 -1.5797
17090TIP3   OH272760   1.081   5.776   0.594  0.1970 -0.1014  0.5079
17090TIP3    H172761   1.041   5.855   0.558  1.4750  0.5044  0.3981
17090TIP3    H272762   1.064   5.780   0.688  0.8376  0.6381  0.5916
17091TIP3   OH272763   5.893   2.275  12.662  0.1850  0.2772 -0.6966
17091TIP3    H172764   5.836   2.309  12.593 -0.3308  0.1456 -0.3388
17091TIP3    H272765   5.942   2.205  12.620 -0.9505 -0.5644 -0.6350
17092TIP3   OH272766   4.312   6.521   2.734  0.2820 -0.2786  0.5079
17092TIP3    H172767   4.407   6.521   2.742  0.2168 -0.6659  1.3420
17092TIP3    H272768   4.280   6.516   2.824 -0.5501  2.6799  0.4407
17093TIP3   OH272769   1.285   0.051  11.662  0.2793  0.3691  0.2240
17093TIP3    H172770   1.363   0.074  11.612 -0.0050 -2.5684 -1.6776
17093TIP3    H272771   1.213   0.063  11.600 -0.1810 -2.4261  0.1630
17094TIP3   OH272772   6.452   3.856   2.730 -0.1164 -0.5211  0.2195
17094TIP3    H172773   6.536   3.881   2.691  0.5241  1.8834  2.9744
17094TIP3    H272774   6.405   3.939   2.741 -0.7425 -1.2431  3.4081
17095TIP3   OH272775   2.591   1.052   2.019 -0.1214 -0.1802 -0.0304
17095TIP3    H172776   2.649   1.046   1.942 -0.6206  1.9885 -0.6034
17095TIP3    H272777   2.545   1.134   2.008 -2.0299 -1.0314  1.3653
17096TIP3   OH272778   6.453   5.501  12.719  0.1801 -0.1920  0.2305
17096TIP3    H172779   6.455   5.595  12.701 -3.6931  0.2378  1.5265
17096TIP3    H272780   6.479   5.460  12.636  2.9353  1.9583 -0.0583
17097TIP3   OH272781   4.878   5.700   3.278 -0.0786  0.2877 -0.3764
17097TIP3    H172782   4.800   5.742   3.241  0.6374  0.3774 -1.8165
17097TIP3    H272783   4.890   5.743   3.363 -3.4779 -1.9913  1.3555
17098TIP3   OH272784   0.401   2.300  17.142  0.4452  0.1275 -0.2905
17098TIP3    H172785   0.424   2.392  17.128 -0.5470  0.6075  1.0886
17098TIP3    H272786   0.451   2.253  17.076 -0.3887  1.8122 -2.2039
17099TIP3   OH272787   5.704   6.012   4.460  0.5324  0.3411 -0.7795
17099TIP3    H172788   5.721   5.957   4.383  1.7401  1.2677 -1.2078
17099TIP3    H272789   5.713   6.101   4.427  0.9234  0.7503  0.4054
17100TIP3   OH272790   0.936   5.441   5.076 -0.3341  0.4636  0.1502
17100TIP3    H172791   1.002   5.378   5.106 -0.6665 -0.1660 -0.4111
17100TIP3    H272792   0.943   5.438   4.981 -0.2500  1.4019  0.1214
17101TIP3   OH272793   6.541   2.622   0.496 -0.1139 -0.3974 -0.2898
17101TIP3    H172794   6.483   2.644   0.424 -0.4396  0.4674  0.2245
17101TIP3    H272795   6.526   2.529   0.512 -0.0075 -0.6062 -1.3569
17102TIP3   OH272796   5.073   1.761  11.901  0.2770 -0.0971 -0.6735
17102TIP3    H172797   5.075   1.665  11.898  0.3795 -0.1162 -0.0938
17102TIP3    H272798   5.138   1.784  11.968 -1.4550  0.2850  0.8950
17103TIP3   OH272799   5.030   3.627   4.949 -0.5310 -0.5686  0.9705
17103TIP3    H172800   5.105   3.663   4.997  1.6144 -0.1869 -2.4434
17103TIP3    H272801   4.981   3.577   5.014  2.2922 -0.2212  3.4810
17104TIP3   OH272802   2.766   1.043   6.123  0.3145 -0.3469 -0.0791
17104TIP3    H172803   2.681   1.073   6.156 -0.2957 -0.3656 -1.5868
17104TIP3    H272804   2.794   1.111   6.063  1.8022  0.0773  1.0726
17105TIP3   OH272805   3.100   4.482   1.793 -0.3331  0.2922 -0.1426
17105TIP3    H172806   3.083   4.403   1.845  0.6575 -0.2562 -0.6425
17105TIP3    H272807   3.083   4.454   1.703  2.7297 -0.1329 -0.6128
17106TIP3   OH272808   2.060   5.200   0.277  0.0621 -0.1664 -1.4321
17106TIP3    H172809   2.097   5.133   0.220  2.4363  1.8030 -2.2827
17106TIP3    H272810   2.104   5.186   0.361  0.1815 -0.0238 -1.4692
17107TIP3   OH272811   0.357   1.693  14.519  0.1926 -0.1356  0.0678
17107TIP3    H172812   0.300   1.747  14.464 -1.2640 -0.3499  1.3274
17107TIP3    H272813   0.412   1.646  14.456 -0.7486  0.3640 -1.1677
17108TIP3   OH272814   6.754   3.639  12.896  0.1823  0.2695 -0.5027
17108TIP3    H172815   6.659   3.648  12.904 -0.0748 -2.2490 -0.3173
17108TIP3    H272816   6.788   3.670  12.980 -0.5786 -0.0521 -0.0722
17109TIP3   OH272817   5.232   0.157   1.696  0.3477  0.3133  0.7419
17109TIP3    H172818   5.225   0.062   1.682  2.3404 -0.0866  2.1956
17109TIP3    H272819   5.322   0.178   1.673 -0.5084  2.1663 -1.0318
17110TIP3   OH272820   0.148   5.111   3.712 -0.0021 -0.3307 -0.0032
17110TIP3    H172821   0.058   5.095   3.741  0.0098  0.3211  0.3897
17110TIP3    H272822   0.139   5.143   3.622 -0.0586 -1.9673 -0.5966
17111TIP3   OH272823   3.226   2.540  12.978 -1.1077 -0.1892 -0.2391
17111TIP3    H172824   3.273   2.572  12.900  2.3059 -3.5300  0.3155
17111TIP3    H272825   3.278   2.572  13.052 -2.6017  0.3457  0.5991
17112TIP3   OH272826   6.546   6.564   3.476  0.4780 -0.1662  0.0215
17112TIP3    H172827   6.489   6.533   3.546 -1.9483 -1.8930 -2.6007
17112TIP3    H272828   6.575   6.484   3.432  3.7734  0.7568  0.3205
17113TIP3   OH272829   1.703   0.865   1.871 -0.6465  0.0048 -0.3676
17113TIP3    H172830   1.794   0.883   1.846 -0.7183  1.6730  0.4911
17113TIP3    H272831   1.664   0.825   1.794  0.5698  0.1138 -1.0515
17114TIP3   OH272832   1.600   4.843  17.270 -0.7419  0.4664 -0.5412
17114TIP3    H172833   1.624   4.899  17.344  0.2925 -0.0675 -0.4563
17114TIP3    H272834   1.675   4.849  17.211 -1.5092  0.7848 -1.4894
17115TIP3   OH272835   2.810   3.475  16.482 -0.2648 -0.6540 -0.2932
17115TIP3    H172836   2.889   3.516  16.448 -0.0682 -0.0920  0.8412
17115TIP3    H272837   2.763   3.546  16.527 -1.5086 -0.9317 -1.1127
17116TIP3   OH272838   1.984   1.360   1.550  0.1313  0.4070  0.0122
17116TIP3    H172839   1.969   1.296   1.619 -1.3017  1.1653  0.4398
17116TIP3    H272840   2.047   1.319   1.491 -0.6011 -1.2921  0.3964
17117TIP3   OH272841   3.235   3.544  11.019  0.4525 -0.2101 -0.1868
17117TIP3    H172842   3.175   3.531  10.945  0.0855 -0.1747  0.1049
17117TIP3    H272843   3.202   3.486  11.087  0.3224  0.3413  0.2271
17118TIP3   OH272844   2.443   0.898   4.408  0.4397 -0.4172 -0.1767
17118TIP3    H172845   2.437   0.985   4.367 -1.4518 -0.3007  0.2889
17118TIP3    H272846   2.361   0.854   4.383  0.2980 -1.1774  1.5581
17119TIP3   OH272847   4.129   2.762  13.875 -0.2692 -0.6382  0.0991
17119TIP3    H172848   4.204   2.730  13.925 -0.6362 -0.3955  0.8050
17119TIP3    H272849   4.096   2.685  13.828 -1.7206 -1.5255  2.5006
17120TIP3   OH272850   1.027   6.290  14.808  0.4999 -0.9807  0.4104
17120TIP3    H172851   0.944   6.329  14.832  0.3160 -1.9416  1.3704
17120TIP3    H272852   1.014   6.261  14.717  0.7263  1.3554 -0.4036
17121TIP3   OH272853   2.471   5.259   4.321  0.8439 -0.2211 -0.2158
17121TIP3    H172854   2.437   5.298   4.240 -0.1052  0.4418  0.4861
17121TIP3    H272855   2.470   5.165   4.304 -2.0005 -0.2834 -0.0061
17122TIP3   OH272856   3.154   0.477   1.651  0.2116  0.5585 -0.4195
17122TIP3    H172857   3.081   0.470   1.590  0.5653  2.7035 -1.1450
17122TIP3    H272858   3.119   0.445   1.734 -1.0467  0.0012 -1.1439
17123TIP3   OH272859   6.732   4.095   5.082 -0.0647  0.5584 -0.5094
17123TIP3    H172860   6.646   4.132   5.101 -0.4185 -0.0701 -0.8781
17123TIP3    H272861   6.780   4.101   5.165  0.6260  3.7770 -1.0690
17124TIP3   OH272862   0.676   5.521  15.574  0.2931 -0.0006  0.4543
17124TIP3    H172863   0.764   5.536  15.608 -0.0512 -0.6083  1.6431
17124TIP3    H272864   0.689   5.484  15.487  1.2388 -1.3286  1.1467
17125TIP3   OH272865   5.275   0.741  14.953 -0.2131 -0.6454  0.5658
17125TIP3    H172866   5.321   0.825  14.956 -0.1999 -0.6343  0.0982
17125TIP3    H272867   5.189   0.760  14.992  0.2479 -0.7182  1.6338
17126TIP3   OH272868   5.502   5.123  11.678  0.1235  0.1435 -0.2074
17126TIP3    H172869   5.437   5.076  11.626 -0.2347 -0.1617  0.5057
17126TIP3    H272870   5.469   5.118  11.768  0.5630  0.9480  0.0082
17127TIP3   OH272871   1.921   4.105   5.595 -0.0587  0.5027 -0.3759
17127TIP3    H172872   1.937   4.142   5.682  0.0064  0.1748 -0.2498
17127TIP3    H272873   2.004   4.065   5.570 -0.0742  0.6036 -0.5950
17128TIP3   OH272874   1.497   4.613  12.389 -0.3275 -0.4242 -0.1013
17128TIP3    H172875   1.559   4.608  12.317  1.6166 -1.6609  1.5815
17128TIP3    H272876   1.456   4.699  12.381  2.1781  0.7358 -0.8270
17129TIP3   OH272877   5.164   4.386  14.236  0.1656  0.5399 -0.2157
17129TIP3    H172878   5.078   4.353  14.265  0.6355 -0.6360 -0.1230
17129TIP3    H272879   5.144   4.440  14.160 -0.5465 -0.7082 -0.9322
17130TIP3   OH272880   5.332   3.888  14.261 -0.6647  0.1699  0.2703
17130TIP3    H172881   5.285   3.855  14.184 -1.4412 -0.0382  0.8232
17130TIP3    H272882   5.304   3.831  14.333  0.5963 -0.0858  0.5805
17131TIP3   OH272883   6.509   3.799  12.935  0.1166 -0.1897 -0.6050
17131TIP3    H172884   6.546   3.809  13.022 -0.4252 -0.3515 -0.3559
17131TIP3    H272885   6.504   3.888  12.900 -1.0098  0.0269  0.0825
17132TIP3   OH272886   1.126   1.742   5.008 -0.0474  0.2828 -0.6735
17132TIP3    H172887   1.150   1.669   5.065 -1.6597  0.6387  0.5021
17132TIP3    H272888   1.153   1.714   4.920 -1.2273 -2.0155 -0.3479
17133TIP3   OH272889   0.310   2.921  13.148 -0.2415  0.0085 -0.0880
17133TIP3    H172890   0.247   2.988  13.122 -1.3044 -1.5166 -1.4807
17133TIP3    H272891   0.263   2.868  13.213  0.0391 -0.3622 -0.1867
17134TIP3   OH272892   5.098   2.777   3.139 -0.4100  0.6689 -0.7440
17134TIP3    H172893   5.107   2.860   3.187 -1.8948  1.1716 -1.2915
17134TIP3    H272894   5.183   2.734   3.150 -0.0702  1.6426  0.6916
17135TIP3   OH272895   2.376   5.391   2.997  0.4815 -0.0058 -0.4123
17135TIP3    H172896   2.340   5.348   3.074  0.8684 -0.4420 -0.4688
17135TIP3    H272897   2.470   5.375   3.002  0.4177 -0.7784 -1.4117
17136TIP3   OH272898   4.111   1.772  13.592 -0.7942 -0.0066 -0.0712
17136TIP3    H172899   4.067   1.688  13.600  2.3063 -1.9602 -2.5265
17136TIP3    H272900   4.168   1.777  13.669 -0.7743 -0.2978 -0.0656
17137TIP3   OH272901   6.499   2.163   1.306 -0.2335  0.6349  0.2409
17137TIP3    H172902   6.452   2.108   1.244 -0.1512  1.1865 -0.3090
17137TIP3    H272903   6.533   2.235   1.254 -0.9835  1.6164  1.0853
17138TIP3   OH272904   2.984   2.919   4.794 -0.8215  0.3575 -0.3258
17138TIP3    H172905   3.017   2.853   4.855  1.4136  1.6268 -0.1005
17138TIP3    H272906   2.922   2.970   4.846  0.7919  1.1996  0.8199
17139TIP3   OH272907   1.376   5.384  15.709  0.0265 -0.4974 -0.2091
17139TIP3    H172908   1.385   5.474  15.677 -0.0301 -0.4969 -0.2230
17139TIP3    H272909   1.411   5.388  15.798  0.0001 -0.4556 -0.2008
17140TIP3   OH272910   1.841   6.354  11.796 -0.1743  0.1158  0.1882
17140TIP3    H172911   1.753   6.381  11.770  0.0644 -0.2120 -1.0136
17140TIP3    H272912   1.829   6.266  11.833 -0.2281 -0.3825 -0.9688
17141TIP3   OH272913   4.322   2.100   4.849  0.3574 -0.4622 -0.7122
17141TIP3    H172914   4.382   2.175   4.845  0.4646 -0.5952 -1.8214
17141TIP3    H272915   4.353   2.042   4.779  0.5331 -1.7339  0.4005
17142TIP3   OH272916   6.325   5.093  15.504 -0.4607 -0.4081 -0.7687
17142TIP3    H172917   6.369   5.080  15.588 -2.2377  0.6991  0.3645
17142TIP3    H272918   6.371   5.167  15.465  0.2779 -0.8346 -0.7234
17143TIP3   OH272919   2.919   1.698  12.028  0.5173 -0.3928 -0.1184
17143TIP3    H172920   3.001   1.747  12.033  1.0676 -1.3899  1.1317
17143TIP3    H272921   2.925   1.635  12.101 -2.2704  0.9459  1.3379
17144TIP3   OH272922   3.610   4.550  10.789  0.7047 -0.0546  1.4850
17144TIP3    H172923   3.691   4.499  10.781  0.8840  0.2441  1.3819
17144TIP3    H272924   3.540   4.485  10.780  0.9218 -0.0693 -0.3016
17145TIP3   OH272925   5.827   3.353  11.321 -0.2377  0.5877  0.1860
17145TIP3    H172926   5.912   3.312  11.337 -0.8524 -1.2627 -1.0852
17145TIP3    H272927   5.774   3.331  11.398 -1.0403 -2.3694 -1.1689
17146TIP3   OH272928   0.335   3.834   5.399 -0.9953 -0.0939  0.3491
17146TIP3    H172929   0.367   3.813   5.487  0.3213  1.7293  0.3140
17146TIP3    H272930   0.364   3.760   5.345 -0.1881 -0.3210  1.0864
17147TIP3   OH272931   2.458   1.864  11.228  0.1524  0.5136  0.4862
17147TIP3    H172932   2.486   1.910  11.307  0.5129  1.2723 -0.0810
17147TIP3    H272933   2.363   1.851  11.241  0.1713  0.8185  0.9399
17148TIP3   OH272934   0.143   4.926  13.559  0.4749  0.0004  0.3701
17148TIP3    H172935   0.229   4.883  13.552 -0.0689 -0.7925 -1.9581
17148TIP3    H272936   0.097   4.877  13.626  0.9673 -1.1509 -0.1124
17149TIP3   OH272937   3.476   3.581   5.305 -0.0806 -0.2921 -0.1855
17149TIP3    H172938   3.551   3.521   5.295 -0.8064 -1.0036 -1.5936
17149TIP3    H272939   3.402   3.524   5.326 -0.4116  0.3105  0.2798
17150TIP3   OH272940   5.297   2.498   5.837  0.1638 -0.2779  0.7217
17150TIP3    H172941   5.365   2.436   5.811  0.2035  0.4907 -1.1147
17150TIP3    H272942   5.279   2.549   5.758 -0.9007  1.0826  1.7963
17151TIP3   OH272943   2.012   5.563  12.445  0.0202  0.1737 -0.4282
17151TIP3    H172944   1.939   5.615  12.477  0.3000  1.0666 -1.2418
17151TIP3    H272945   1.972   5.502  12.382 -0.2547 -0.3821  0.2807
17152TIP3   OH272946   3.777   2.682   5.538 -0.3900 -0.4791  0.5382
17152TIP3    H172947   3.698   2.644   5.501 -1.5100  0.6499  1.6980
17152TIP3    H272948   3.832   2.608   5.561 -1.5088 -1.3051  0.5620
17153TIP3   OH272949   2.415   0.215  12.410 -0.3057  0.0165 -0.5355
17153TIP3    H172950   2.395   0.127  12.376 -0.6817  0.2008 -0.7982
17153TIP3    H272951   2.466   0.199  12.489  0.2429 -0.4281 -0.9688
17154TIP3   OH272952   6.428   1.242   2.854 -0.3390 -0.5370  0.3641
17154TIP3    H172953   6.520   1.238   2.826 -0.4470  0.4247 -0.1475
17154TIP3    H272954   6.385   1.294   2.786 -1.0483 -0.0637  1.1751
17155TIP3   OH272955   3.854   0.788   3.884  0.0276 -0.2191  0.1777
17155TIP3    H172956   3.878   0.845   3.811 -1.0895  0.1124  0.0576
17155TIP3    H272957   3.905   0.708   3.870 -0.0986 -0.1175 -0.9145
17156TIP3   OH272958   4.466   2.450   1.563  0.5140 -0.5110  0.0542
17156TIP3    H172959   4.427   2.374   1.520  1.4128 -1.5766  1.0819
17156TIP3    H272960   4.471   2.517   1.494  0.0476 -1.4952 -0.9498
17157TIP3   OH272961   3.684   2.161   4.539  0.3073  0.4965  0.6840
17157TIP3    H172962   3.761   2.181   4.592  0.3484  0.5542  0.6032
17157TIP3    H272963   3.614   2.214   4.577 -0.3488 -1.5332  2.4555
17158TIP3   OH272964   6.390   0.232  17.153  0.4852 -0.4289  0.2228
17158TIP3    H172965   6.418   0.305  17.208  0.9571 -0.4275 -0.0175
17158TIP3    H272966   6.472   0.191  17.124  0.2116 -1.8939  1.4793
17159TIP3   OH272967   6.043   3.296  13.888 -1.2605  0.0838  0.5584
17159TIP3    H172968   6.125   3.248  13.898 -0.4614  1.2705 -0.3179
17159TIP3    H272969   6.017   3.280  13.798 -1.2727  0.8691  0.4264
17160TIP3   OH272970   2.302   0.822   4.646 -0.3436 -0.0693  0.2177
17160TIP3    H172971   2.386   0.831   4.691 -0.5185  2.6239  0.0889
17160TIP3    H272972   2.324   0.829   4.553 -0.6456  0.3198  0.1720
17161TIP3   OH272973   2.253   6.338   3.381 -0.1640 -0.0999  0.1454
17161TIP3    H172974   2.294   6.265   3.335 -0.5696  0.1296 -0.5837
17161TIP3    H272975   2.242   6.307   3.471  0.3766 -0.6476  0.0251
17162TIP3   OH272976   6.542   1.505  15.481  0.4589  0.1103 -0.3709
17162TIP3    H172977   6.509   1.579  15.429 -0.0608 -0.9314 -1.5518
17162TIP3    H272978   6.613   1.469  15.429  1.0711  0.1043  0.4652
17163TIP3   OH272979   1.095   6.182  16.940  0.0290 -0.3518  0.2194
17163TIP3    H172980   1.097   6.232  17.022  0.9886 -0.0350  0.0072
17163TIP3    H272981   1.175   6.208  16.894 -2.0478  1.8833 -2.2800
17164TIP3   OH272982   4.845   2.515  13.222  0.3387  0.2964  0.6208
17164TIP3    H172983   4.933   2.476  13.230 -0.4316 -1.5077  0.5937
17164TIP3    H272984   4.856   2.586  13.159  2.1590  1.2812  2.0040
17165TIP3   OH272985   5.591   0.622   0.293  0.5496  0.1200  0.3276
17165TIP3    H172986   5.666   0.622   0.352  0.8472  2.3259  0.0042
17165TIP3    H272987   5.526   0.568   0.337  0.9882  1.2082  2.4072
17166TIP3   OH272988   6.690   3.042   6.035  0.2418  0.4506 -0.2142
17166TIP3    H172989   6.709   2.967   6.092  0.5577  0.1859 -0.6663
17166TIP3    H272990   6.648   3.004   5.958 -0.0198  0.7899 -0.2407
17167TIP3   OH272991   3.029   5.269  13.953  0.0667  0.0109 -0.0834
17167TIP3    H172992   3.041   5.181  13.917  1.4869 -0.6943  2.0140
17167TIP3    H272993   3.039   5.328  13.878 -2.9202 -1.6900 -1.8794
17168TIP3   OH272994   4.503   1.315   4.630  0.3627  0.3019  0.2078
17168TIP3    H172995   4.468   1.400   4.605 -0.3196 -0.7225 -2.5473
17168TIP3    H272996   4.466   1.298   4.717 -3.1034  0.8685 -1.0659
17169TIP3   OH272997   2.882   1.997  16.937  0.1938 -0.0690 -0.0377
17169TIP3    H172998   2.846   1.947  16.863  0.2721  2.6966 -2.0470
17169TIP3    H272999   2.977   1.994  16.924  0.3931 -2.1141  1.7094
17170TIP3   OH273000   6.276   3.398   1.718 -0.1563  0.0999 -0.3632
17170TIP3    H173001   6.265   3.368   1.628 -0.9765  2.4208 -1.0552
17170TIP3    H273002   6.259   3.492   1.715  0.1396  0.2699  2.1556
17171TIP3   OH273003   4.515   2.287  15.165 -0.1494 -0.1576 -0.9288
17171TIP3    H173004   4.545   2.233  15.092  1.3392  0.0245 -0.4667
17171TIP3    H273005   4.536   2.376  15.141 -0.8649  0.0388 -0.8499
17172TIP3   OH273006   3.342   2.828   0.097  0.1760  0.7406  0.2968
17172TIP3    H173007   3.349   2.745   0.145  1.5043  0.7276  0.0906
17172TIP3    H273008   3.292   2.806   0.018 -0.4645  0.3886  0.7919
17173TIP3   OH273009   3.077   2.721  11.933 -0.4405  0.1071  0.2806
17173TIP3    H173010   3.121   2.764  11.859 -2.2950  1.3993 -0.1374
17173TIP3    H273011   3.080   2.786  12.003 -2.1646  0.4677  0.0500
17174TIP3   OH273012   6.470   6.464   0.656  0.7727  0.1486  0.4951
17174TIP3    H173013   6.541   6.424   0.706  2.5418  1.4427 -0.9454
17174TIP3    H273014   6.509   6.489   0.573 -1.9934 -1.4083 -1.3634
17175TIP3   OH273015   3.050   3.867   4.140  0.6815  0.5020 -0.6448
17175TIP3    H173016   2.988   3.940   4.139  1.4823  1.1786 -0.8492
17175TIP3    H273017   3.074   3.856   4.232  1.3791  1.1905 -0.7428
17176TIP3   OH273018   3.621   2.209  14.077 -0.0142  0.6628  0.0026
17176TIP3    H173019   3.638   2.225  13.984  2.2286  1.2939  0.4763
17176TIP3    H273020   3.708   2.196  14.114 -1.1204 -3.2842  1.3836
17177TIP3   OH273021   4.048   4.021  12.614  0.1258  0.3611 -0.4831
17177TIP3    H173022   4.014   3.994  12.699 -0.3665  1.3043 -0.3751
17177TIP3    H273023   4.050   4.116  12.618  0.1856  0.4073 -1.4929
17178TIP3   OH273024   3.083   4.996  14.463  0.4970  0.3136 -0.1119
17178TIP3    H173025   3.017   4.991  14.531  0.9179 -0.7746  0.2193
17178TIP3    H273026   3.101   4.905  14.439  1.8938  0.5904 -0.1627
17179TIP3   OH273027   3.194   2.079  15.532  0.1169  0.3301 -0.1588
17179TIP3    H173028   3.272   2.087  15.477  0.0264 -2.2993 -0.6920
17179TIP3    H273029   3.134   2.024  15.483 -1.3330  0.7343  1.0988
17180TIP3   OH273030   2.037   3.213   5.522  0.6327 -0.7922 -0.1642
17180TIP3    H173031   1.964   3.183   5.577 -0.6775 -1.0492 -2.0204
17180TIP3    H273032   2.053   3.303   5.551  0.8046 -1.3242  1.4887
17181TIP3   OH273033   5.825   0.930  11.865  0.2263 -0.1078  0.5759
17181TIP3    H173034   5.802   0.873  11.791  0.6599  0.1251  0.2558
17181TIP3    H273035   5.921   0.926  11.869  0.2832  0.8484  0.3481
17182TIP3   OH273036   0.842   5.107  15.079  0.3694 -0.1224 -0.0708
17182TIP3    H173037   0.758   5.072  15.107 -0.4742  0.6111 -1.6715
17182TIP3    H273038   0.829   5.202  15.074  0.9349 -0.1052 -1.4903
17183TIP3   OH273039   0.185   5.422   1.730 -0.1607  0.4286  0.3300
17183TIP3    H173040   0.259   5.377   1.690  1.0229  2.5992  0.0166
17183TIP3    H273041   0.167   5.372   1.809  0.7879 -0.8941 -0.2719
17184TIP3   OH273042   4.747   0.768  15.314 -0.2307 -0.2875  0.3540
17184TIP3    H173043   4.721   0.677  15.303  0.0983 -0.8015  3.3442
17184TIP3    H273044   4.665   0.815  15.326 -0.2942 -0.5566  1.0176
17185TIP3   OH273045   5.427   0.938  12.848 -0.0200 -0.3496  0.0528
17185TIP3    H173046   5.356   0.902  12.795 -0.6851  0.0659  0.6495
17185TIP3    H273047   5.485   0.864  12.865  0.6354 -0.3282 -1.9341
17186TIP3   OH273048   5.568   6.710  15.210 -0.7937  0.0891  0.4219
17186TIP3    H173049   5.658   6.725  15.180 -0.9316 -0.8629 -0.5076
17186TIP3    H273050   5.554   6.776  15.278 -0.0357  1.4689 -0.7303
17187TIP3   OH273051   3.924   0.593   1.880  0.1736 -0.3305  0.0630
17187TIP3    H173052   3.944   0.508   1.841 -0.6615 -0.8010  0.6626
17187TIP3    H273053   4.004   0.618   1.926  0.2398 -1.0391  0.3393
17188TIP3   OH273054   4.925   6.605  16.674  0.2930  0.0055 -0.2675
17188TIP3    H173055   4.999   6.580  16.730  1.2389  2.7608 -0.1796
17188TIP3    H273056   4.966   6.638  16.593 -0.8970 -0.0615 -0.9120
17189TIP3   OH273057   3.145   2.074  13.226  0.2533 -0.9204 -0.0087
17189TIP3    H173058   3.052   2.092  13.220  0.7063  1.3118 -0.8054
17189TIP3    H273059   3.187   2.155  13.197  2.4400 -1.5802  1.1819
17190TIP3   OH273060   4.942   4.929   2.027  0.4301  0.7154  0.4988
17190TIP3    H173061   4.888   4.949   1.951  0.6893 -0.5816 -0.0395
17190TIP3    H273062   4.900   4.975   2.099 -1.3105 -0.1437  0.0546
17191TIP3   OH273063   2.446   2.073   2.809  0.3238 -0.3062 -0.2784
17191TIP3    H173064   2.449   2.169   2.815 -1.0731 -0.2948  0.3648
17191TIP3    H273065   2.514   2.043   2.869 -0.2321  0.2542  0.6389
17192TIP3   OH273066   2.021   3.607   3.586 -0.0235  0.1916 -0.4290
17192TIP3    H173067   1.991   3.687   3.542  1.0636  0.8341 -0.0356
17192TIP3    H273068   2.089   3.638   3.646  1.3334 -1.2153 -1.2274
17193TIP3   OH273069   1.317   0.533   0.203  0.0918 -0.4310 -0.3347
17193TIP3    H173070   1.372   0.611   0.195  0.1938 -0.4747 -0.0798
17193TIP3    H273071   1.266   0.531   0.122 -1.8349  1.3887  0.7877
17194TIP3   OH273072   1.206   4.005  11.078 -0.3682 -0.2346 -0.2085
17194TIP3    H173073   1.232   4.096  11.061  0.2171  0.1382  2.5016
17194TIP3    H273074   1.114   4.002  11.050 -0.4768  1.2607 -0.1030
17195TIP3   OH273075   6.534   1.070  12.624 -0.1478 -0.8361 -0.4711
17195TIP3    H173076   6.556   1.155  12.585 -1.3173 -1.0837 -1.7118
17195TIP3    H273077   6.509   1.090  12.714 -0.5330  0.1604 -0.7938
17196TIP3   OH273078   6.689   1.892   4.726 -0.0418 -0.8358  0.3820
17196TIP3    H173079   6.719   1.971   4.771  1.6958 -0.6462 -1.0289
17196TIP3    H273080   6.758   1.828   4.744 -1.0176 -1.7661  0.8095
17197TIP3   OH273081   2.213   1.361   5.738 -0.1682 -0.1006  0.8655
17197TIP3    H173082   2.260   1.290   5.782 -0.2319 -0.6524  0.0527
17197TIP3    H273083   2.161   1.402   5.808  0.9063  0.0160  1.6170
17198TIP3   OH273084   0.121   3.618  15.119  0.5884  0.7120  0.2873
17198TIP3    H173085   0.160   3.696  15.078  0.6287 -0.1075 -1.2690
17198TIP3    H273086   0.186   3.549  15.104  0.8014  0.4879  2.1467
17199TIP3   OH273087   0.511   3.485   2.273  0.4561 -0.2396  0.1969
17199TIP3    H173088   0.460   3.447   2.201 -0.2854  0.8243  0.1499
17199TIP3    H273089   0.594   3.437   2.272  0.2646 -0.5529 -1.0543
17200TIP3   OH273090   4.602   6.506   2.177 -0.4454  0.6314  0.4711
17200TIP3    H173091   4.569   6.560   2.248 -0.2716  2.2202 -0.6230
17200TIP3    H273092   4.697   6.508   2.187 -0.4567  0.0498  0.7526
17201TIP3   OH273093   0.867   1.865   3.547  0.4646  0.6242  0.1172
17201TIP3    H173094   0.787   1.906   3.580  0.6101  1.1007 -0.1297
17201TIP3    H273095   0.912   1.834   3.626  0.4218  1.0565  0.3115
17202TIP3   OH273096   5.942   4.135  11.030  0.3388 -0.0804 -0.8686
17202TIP3    H173097   6.030   4.100  11.045  1.4778  3.0799  0.2194
17202TIP3    H273098   5.954   4.206  10.968 -1.4075  0.5694 -0.4962
17203TIP3   OH273099   6.230   2.941   3.581 -0.1478 -0.1276 -0.3593
17203TIP3    H173100   6.204   2.913   3.493 -1.3857  0.4325 -0.1816
17203TIP3    H273101   6.180   3.021   3.597 -1.3810 -1.2672  1.6152
17204TIP3   OH273102   2.678   5.722  15.796  0.2487  0.3199  0.6683
17204TIP3    H173103   2.629   5.792  15.840  0.7487 -0.5391  2.6407
17204TIP3    H273104   2.632   5.642  15.822  2.1016 -0.4110  1.7695
17205TIP3   OH273105   2.399   6.645  12.517  0.4557  0.2636  0.0387
17205TIP3    H173106   2.324   6.622  12.573 -0.2384 -0.3741 -1.1250
17205TIP3    H273107   2.466   6.580  12.539  0.0009 -0.3017 -0.2307
17206TIP3   OH273108   0.598   4.875  16.978 -0.1495  0.1839 -0.2981
17206TIP3    H173109   0.518   4.828  16.998 -1.0634  0.9350 -2.0006
17206TIP3    H273110   0.596   4.952  17.035 -1.0880  0.6359 -0.9140
17207TIP3   OH273111   5.723   5.524  12.864  0.0726 -0.3189  0.5578
17207TIP3    H173112   5.709   5.606  12.817 -0.2391  0.1729  1.5008
17207TIP3    H273113   5.683   5.457  12.807  0.2939  0.1737 -0.1909
17208TIP3   OH273114   3.992   2.715  13.240 -0.1768  0.0325  0.2128
17208TIP3    H173115   4.066   2.765  13.275  0.3647 -0.0558 -0.7692
17208TIP3    H273116   3.995   2.632  13.287 -0.2266  0.3926  0.8557
17209TIP3   OH273117   3.967   0.066  11.280 -0.1548 -0.8255 -0.1668
17209TIP3    H173118   3.996  -0.019  11.314  0.5564 -0.5188  0.0139
17209TIP3    H273119   3.933   0.047  11.193 -1.2669 -1.4987  0.4079
17210TIP3   OH273120   2.431   0.071   1.546  0.5637 -0.2184  0.6958
17210TIP3    H173121   2.391   0.043   1.463  2.0239  0.5452 -0.2914
17210TIP3    H273122   2.506   0.012   1.557  0.3347 -0.3603  1.5182
17211TIP3   OH273123   6.596   4.351  11.409 -0.5262  0.0198  0.2185
17211TIP3    H173124   6.622   4.442  11.400 -0.3952 -0.0192  0.2039
17211TIP3    H273125   6.635   4.307  11.334 -0.6345 -0.0393  0.1956
17212TIP3   OH273126   2.267   4.387   5.854 -0.2758  0.7092 -0.4197
17212TIP3    H173127   2.307   4.416   5.936 -0.2914  0.8773 -0.4733
17212TIP3    H273128   2.303   4.446   5.787 -0.2413  0.5550 -0.5398
17213TIP3   OH273129   1.676   2.789  13.529 -0.0993 -0.1541 -0.0233
17213TIP3    H173130   1.647   2.778  13.438  2.1126 -0.8234 -0.6773
17213TIP3    H273131   1.722   2.708  13.548  1.4126  0.9297  0.9478
17214TIP3   OH273132   2.715   6.140  14.518 -0.2115 -0.0731  0.1126
17214TIP3    H173133   2.724   6.053  14.479  0.9581  0.1723 -0.1891
17214TIP3    H273134   2.632   6.172  14.483  0.0557 -0.4869 -0.9548
17215TIP3   OH273135   6.453   1.989   3.200  0.0332  0.4847 -0.4035
17215TIP3    H173136   6.444   2.003   3.294  2.3312  0.0947 -0.0748
17215TIP3    H273137   6.507   2.062   3.170 -1.3225  1.0252 -1.5709
17216TIP3   OH273138   4.410   2.980   3.549 -0.0612 -0.0792  0.0996
17216TIP3    H173139   4.440   3.066   3.519 -0.4465 -0.2289 -0.7391
17216TIP3    H273140   4.361   2.998   3.629 -0.6665  0.5614 -0.4062
17217TIP3   OH273141   4.042   0.812  10.953  0.8514 -0.0967  0.5356
17217TIP3    H173142   4.092   0.893  10.968  0.2461  0.3009  0.4247
17217TIP3    H273143   4.009   0.821  10.864  0.1565 -0.1216  0.7876
17218TIP3   OH273144   5.811   5.549   0.118  0.1404 -0.0896  0.0476
17218TIP3    H173145   5.811   5.504   0.203 -0.3014  0.9033  0.5860
17218TIP3    H273146   5.888   5.606   0.121 -0.9814  1.4235  0.5963
17219TIP3   OH273147   3.566   2.219  15.036 -0.4173 -0.3783 -0.2535
17219TIP3    H173148   3.607   2.280  14.975 -0.9653  0.9509  0.6960
17219TIP3    H273149   3.615   2.229  15.118  0.3699 -2.2106 -0.4602
17220TIP3   OH273150   1.699   3.472  12.933 -0.0462 -0.2084 -0.0996
17220TIP3    H173151   1.753   3.472  13.012  0.9012 -2.2688 -0.7000
17220TIP3    H273152   1.671   3.563  12.922  2.8759  0.8297  0.5496
17221TIP3   OH273153   2.009   6.766   2.381 -0.2313  0.1389 -0.2365
17221TIP3    H173154   2.043   6.749   2.469  0.6266 -1.2813 -0.8284
17221TIP3    H273155   1.938   6.829   2.395  3.0277  3.7388  0.9261
17222TIP3   OH273156   6.534   3.521   0.056 -0.0793  0.0787  0.1264
17222TIP3    H173157   6.467   3.467   0.015 -2.2047  2.9438 -0.3828
17222TIP3    H273158   6.514   3.517   0.150  0.4140 -0.8245  0.1980
17223TIP3   OH273159   6.761   5.879  11.875  0.1656 -0.1628  0.4668
17223TIP3    H173160   6.727   5.790  11.866  1.0158 -0.3985 -0.5161
17223TIP3    H273161   6.849   5.875  11.838  1.0006  0.6121  2.3246
17224TIP3   OH273162   3.915   3.758   2.940  0.1964 -0.2003  0.3532
17224TIP3    H173163   3.910   3.811   3.019  0.5321  0.9532 -0.3756
17224TIP3    H273164   3.845   3.694   2.948 -0.9082  1.0499  0.7685
17225TIP3   OH273165   5.584   3.215   1.088 -0.1005  0.0904 -0.4449
17225TIP3    H173166   5.560   3.272   1.162  1.0789  0.0826 -0.0530
17225TIP3    H273167   5.503   3.207   1.038 -1.0572 -0.2934  1.1100
17226TIP3   OH273168   4.749   6.517   3.034 -0.7455  0.2807 -0.2013
17226TIP3    H173169   4.755   6.422   3.046  2.0445  0.6287  1.5410
17226TIP3    H273170   4.832   6.542   2.994 -2.1143  1.8161 -2.1464
17227TIP3   OH273171   2.517   3.757  14.931  0.6545  0.0292  0.0198
17227TIP3    H173172   2.428   3.769  14.901  0.4449  1.4842  1.1661
17227TIP3    H273173   2.567   3.736  14.852 -0.5925 -0.2456 -0.7028
17228TIP3   OH273174   4.214   6.387  14.677  0.0698 -0.1943 -0.4828
17228TIP3    H173175   4.288   6.367  14.620  0.3395  0.4466 -0.3689
17228TIP3    H273176   4.151   6.431  14.620  0.4906  0.7699 -0.2218
17229TIP3   OH273177   0.855   2.565  16.223 -0.6318 -0.2501 -0.0991
17229TIP3    H173178   0.849   2.623  16.299 -2.1766 -1.1397  0.4725
17229TIP3    H273179   0.818   2.617  16.151 -0.6666 -0.0036  0.0966
17230TIP3   OH273180   2.810   0.544   6.195  0.7122 -0.1255  0.5641
17230TIP3    H173181   2.857   0.518   6.274  0.6533 -0.0608  0.6197
17230TIP3    H273182   2.852   0.626   6.169  0.5298  0.0083  0.6970
17231TIP3   OH273183   4.134   0.155   4.113 -0.1966  0.0139  0.2616
17231TIP3    H173184   4.065   0.142   4.178 -0.5657 -0.2131 -0.1744
17231TIP3    H273185   4.215   0.132   4.159 -0.3793  0.5356  0.8532
17232TIP3   OH273186   4.873   2.225  13.129 -0.4409 -0.6058 -0.3663
17232TIP3    H173187   4.784   2.259  13.140 -1.6798 -3.8496  0.2162
17232TIP3    H273188   4.888   2.228  13.035 -1.6024 -1.0038 -0.5791
17233TIP3   OH273189   2.441   4.467   2.674 -0.3530  0.4544 -0.2470
17233TIP3    H173190   2.375   4.479   2.742  1.2406 -0.1777  1.4409
17233TIP3    H273191   2.477   4.555   2.660 -1.7508  0.8701 -1.4350
17234TIP3   OH273192   3.654   0.841   3.238 -0.6003 -0.0284  0.1422
17234TIP3    H173193   3.667   0.890   3.319 -1.7854  2.0847 -0.8960
17234TIP3    H273194   3.700   0.892   3.171  0.5160 -1.8367 -0.5189
17235TIP3   OH273195   5.896   2.536   0.711  0.0283 -0.0572  0.1541
17235TIP3    H173196   5.938   2.496   0.635 -2.5814  0.0059 -1.3746
17235TIP3    H273197   5.886   2.464   0.773 -0.4860 -0.7805 -0.7513
17236TIP3   OH273198   0.484   4.286  13.768  0.0323 -0.0795  0.6653
17236TIP3    H173199   0.398   4.251  13.743  0.0177 -1.2976  2.3583
17236TIP3    H273200   0.487   4.277  13.863  1.9375  0.2278  0.6484
17237TIP3   OH273201   2.387   5.376  13.883  0.4173  0.1851 -0.3772
17237TIP3    H173202   2.316   5.341  13.937  1.6363 -2.4373 -0.3823
17237TIP3    H273203   2.358   5.358  13.793  1.3817 -1.5579 -0.3565
17238TIP3   OH273204   5.594   0.530  13.517 -0.2143  0.4693 -0.0664
17238TIP3    H173205   5.511   0.577  13.508 -0.7365 -0.6253 -0.9653
17238TIP3    H273206   5.571   0.446  13.555  0.9291  1.5642  3.2895
17239TIP3   OH273207   2.879   3.423  12.033  0.1319 -0.1002 -0.4085
17239TIP3    H173208   2.966   3.387  12.048  0.5454  0.7074 -0.8164
17239TIP3    H273209   2.872   3.433  11.938  0.1263  1.0937 -0.3008
17240TIP3   OH273210   0.081   5.992   5.635 -0.2100 -0.1966  0.0452
17240TIP3    H173211   0.136   6.058   5.593  1.3847 -1.7290 -0.3287
17240TIP3    H273212   0.005   5.984   5.577  1.8414 -2.0915 -2.5053
17241TIP3   OH273213   2.506   3.194   3.025  0.6059 -0.4287  0.8731
17241TIP3    H173214   2.561   3.255   3.074  2.0096 -0.8962 -0.0860
17241TIP3    H273215   2.480   3.127   3.089  2.0269 -0.7795  1.0874
17242TIP3   OH273216   2.607   1.665  13.482  0.4313 -0.4588  0.1578
17242TIP3    H173217   2.679   1.696  13.537  0.6304 -1.3247  0.3890
17242TIP3    H273218   2.631   1.575  13.459  0.9729  0.3265 -2.4429
17243TIP3   OH273219   4.229   4.038  17.138 -0.2330  0.2687 -0.2848
17243TIP3    H173220   4.216   4.062  17.046  0.1040  0.2715 -0.3346
17243TIP3    H273221   4.164   3.969  17.154  0.7861 -0.8817 -0.9813
17244TIP3   OH273222   4.914   1.676   2.509  0.4116 -0.2023 -0.0653
17244TIP3    H173223   4.877   1.742   2.451 -0.8642 -0.5076  0.3730
17244TIP3    H273224   4.929   1.600   2.453 -0.6124 -0.4225 -0.0597
17245TIP3   OH273225   5.633   0.351  15.621  0.5459 -0.2309 -0.4427
17245TIP3    H173226   5.558   0.311  15.665 -0.4861  1.3143 -0.7527
17245TIP3    H273227   5.596   0.391  15.542  1.6304  0.9056 -0.3888
17246TIP3   OH273228   3.813   4.100   2.607  0.3867  0.5825 -0.3387
17246TIP3    H173229   3.828   4.163   2.536 -2.8129  1.6440 -0.1314
17246TIP3    H273230   3.866   4.024   2.583  4.3393  3.2350 -0.6406
17247TIP3   OH273231   5.435   1.421   5.556  0.4791 -0.4832  0.0843
17247TIP3    H173232   5.380   1.366   5.612  0.2115  0.3718  0.6734
17247TIP3    H273233   5.461   1.363   5.484 -0.7713 -1.0445  0.0708
17248TIP3   OH273234   3.648   1.700  15.632  0.0892 -0.1946 -0.1070
17248TIP3    H173235   3.595   1.721  15.555  0.1412  0.0259 -0.0820
17248TIP3    H273236   3.730   1.667  15.596 -1.0838 -3.1758 -0.1586
17249TIP3   OH273237   1.635   2.412  14.091 -0.1624  0.4411 -0.4970
17249TIP3    H173238   1.638   2.323  14.126 -1.2726  0.0286 -1.4207
17249TIP3    H273239   1.724   2.446  14.103 -0.1249 -0.2491  1.2398
17250TIP3   OH273240   2.606   2.729  13.863 -0.2661 -0.0606 -0.0205
17250TIP3    H173241   2.535   2.685  13.911  0.1410 -0.3539  0.3148
17250TIP3    H273242   2.624   2.671  13.789 -1.0441  0.5000 -0.6601
17251TIP3   OH273243   6.392   1.187   2.060  0.0620 -0.2936  0.1919
17251TIP3    H173244   6.460   1.150   2.006  1.2813 -0.0649  1.5346
17251TIP3    H273245   6.345   1.112   2.096  1.4818 -0.5413  1.5916
17252TIP3   OH273246   1.520   1.875   0.489 -0.6951 -0.5743 -0.0180
17252TIP3    H173247   1.492   1.792   0.451 -0.9434 -0.1686 -0.7201
17252TIP3    H273248   1.469   1.941   0.443 -1.6775 -0.1457  1.6787
17253TIP3   OH273249   1.736   6.761   3.202 -0.2039  0.2859 -0.0639
17253TIP3    H173250   1.657   6.729   3.158  0.4054 -0.9080 -0.2948
17253TIP3    H273251   1.741   6.711   3.283  1.3111 -0.9996 -0.9050
17254TIP3   OH273252   6.621   2.115   6.784 -0.5992 -0.1348  0.2666
17254TIP3    H173253   6.629   2.027   6.819  0.0792 -0.0549  0.3182
17254TIP3    H273254   6.551   2.156   6.836  0.2095 -0.1030  1.3423
17255TIP3   OH273255   6.348   2.783   0.044 -0.0267  0.0913  0.0296
17255TIP3    H173256   6.278   2.834   0.086 -1.0567 -0.5091 -0.9497
17255TIP3    H273257   6.374   2.719   0.110 -0.3649  0.3372  0.4065
17256TIP3   OH273258   6.022   0.555  14.642 -0.2151 -0.7379 -0.2035
17256TIP3    H173259   6.079   0.587  14.573 -1.2629  1.1019 -0.2426
17256TIP3    H273260   6.011   0.630  14.701  0.6186 -2.2453  1.9553
17257TIP3   OH273261   3.526   1.473   2.373 -0.2582  0.1128  0.5774
17257TIP3    H173262   3.517   1.564   2.403 -0.4879  0.4595 -0.5124
17257TIP3    H273263   3.460   1.464   2.304  1.7854  0.0225 -1.4215
17258TIP3   OH273264   6.354   6.308   5.688 -0.2699  0.1099 -0.0071
17258TIP3    H173265   6.284   6.322   5.624 -2.0684  0.2712  1.9279
17258TIP3    H273266   6.361   6.391   5.734  1.2776  0.1217 -0.2659
17259TIP3   OH273267   3.733   4.689  13.875 -0.2955  0.2066  0.5716
17259TIP3    H173268   3.722   4.767  13.928  0.1304  1.4836 -1.1698
17259TIP3    H273269   3.825   4.692  13.848 -0.6301 -0.1432 -0.6401
17260TIP3   OH273270   1.894   6.249  15.050  0.1338  0.0400 -0.1195
17260TIP3    H173271   1.823   6.287  14.997 -1.1706 -0.1490  1.4578
17260TIP3    H273272   1.941   6.193  14.989 -0.6592  0.6911 -1.3695
17261TIP3   OH273273   3.562   0.389   0.886  0.1044  0.2492 -0.8255
17261TIP3    H173274   3.591   0.385   0.795 -1.0437  1.6520 -1.2672
17261TIP3    H273275   3.483   0.336   0.888  1.7656 -2.3089  0.0517
17262TIP3   OH273276   3.726   5.652   1.264 -0.8846 -0.9739  0.2007
17262TIP3    H173277   3.665   5.578   1.255  0.2953 -1.7830 -1.3419
17262TIP3    H273278   3.701   5.693   1.347 -2.9550 -1.8128  0.0249
17263TIP3   OH273279   3.695   0.592   2.059  0.4914  0.1490 -0.2282
17263TIP3    H173280   3.661   0.659   2.118 -1.1721  0.2805 -1.3053
17263TIP3    H273281   3.768   0.634   2.014  0.6532  0.6181  0.4656
17264TIP3   OH273282   5.997   6.193  11.478 -0.1697 -0.2867 -0.1074
17264TIP3    H173283   5.993   6.193  11.383 -1.3659 -0.4864 -0.0563
17264TIP3    H273284   6.034   6.107  11.501  0.0641 -0.2590 -0.3773
17265TIP3   OH273285   3.395   0.247   3.208 -0.4834 -0.4843  0.1150
17265TIP3    H173286   3.302   0.228   3.219 -0.1305 -2.3218 -0.0168
17265TIP3    H273287   3.439   0.179   3.258  0.8391 -0.8163 -1.5014
17266TIP3   OH273288   0.276   2.872   3.683 -0.7850 -0.4257  0.0046
17266TIP3    H173289   0.230   2.832   3.757 -0.3713 -0.1633  0.4075
17266TIP3    H273290   0.365   2.888   3.716 -0.4743 -0.6990 -0.6837
17267TIP3   OH273291   6.446   1.216   6.230 -0.2298  0.0156 -0.0562
17267TIP3    H173292   6.449   1.160   6.152 -1.9611  0.3205 -0.3685
17267TIP3    H273293   6.536   1.246   6.241  0.4330 -1.6607 -0.7379
17268TIP3   OH273294   3.530   1.513   5.784  0.0373 -0.1159  0.2410
17268TIP3    H173295   3.514   1.536   5.876 -0.1994  0.2059  0.1229
17268TIP3    H273296   3.449   1.539   5.739  0.3323  0.1687 -0.1317
17269TIP3   OH273297   1.772   2.963  14.034 -0.1132 -0.3163 -0.2784
17269TIP3    H173298   1.726   2.955  14.117 -0.0747 -0.6060 -0.2854
17269TIP3    H273299   1.712   2.927  13.968 -0.5153  0.7467 -0.5030
17270TIP3   OH273300   6.401   1.255  16.786  0.3792 -0.3156  0.1073
17270TIP3    H173301   6.493   1.276  16.768  0.0984  1.0596  0.2160
17270TIP3    H273302   6.366   1.230  16.700  0.9819 -1.3824  0.1609
17271TIP3   OH273303   2.765   4.827   3.787 -0.0658  0.2865 -0.1956
17271TIP3    H173304   2.701   4.873   3.841 -1.3956 -0.3023 -1.2204
17271TIP3    H273305   2.714   4.795   3.712  0.7789 -2.8346  0.4823
17272TIP3   OH273306   0.666   1.436  15.469  0.1711  0.3666  0.6680
17272TIP3    H173307   0.654   1.524  15.433  0.5540  0.3863  0.5832
17272TIP3    H273308   0.646   1.377  15.396  0.9914  0.4076  0.4061
17273TIP3   OH273309   4.112   2.267   3.448 -0.0139 -0.3926 -0.7149
17273TIP3    H173310   4.138   2.346   3.497 -0.0003  0.1482 -1.5858
17273TIP3    H273311   4.019   2.256   3.469 -0.1125  0.0759 -0.8818
17274TIP3   OH273312   5.168   2.232   5.071  0.1800  0.1611  0.4586
17274TIP3    H173313   5.204   2.160   5.123  0.7103 -0.1124 -0.2836
17274TIP3    H273314   5.077   2.207   5.056  0.5052 -0.6114 -0.2465
17275TIP3   OH273315   4.208   2.145   6.261  0.4559  0.2326 -0.3165
17275TIP3    H173316   4.263   2.223   6.250  1.9949 -0.7666  0.0458
17275TIP3    H273317   4.219   2.120   6.353 -0.1159 -0.3337 -0.3956
17276TIP3   OH273318   2.787   2.390  15.746  0.1733 -0.5304  0.1903
17276TIP3    H173319   2.692   2.378  15.739  0.1953  0.3256 -1.7311
17276TIP3    H273320   2.824   2.313  15.702  0.3586 -0.0615 -0.4763
17277TIP3   OH273321   4.409   4.285  13.030  0.0906  0.1521 -0.0230
17277TIP3    H173322   4.388   4.310  13.120 -0.0341  0.3483 -0.1028
17277TIP3    H273323   4.335   4.231  13.003 -1.1752  2.2046 -0.8575
17278TIP3   OH273324   3.031   2.549   1.790  0.0738 -0.3555 -0.6381
17278TIP3    H173325   3.086   2.475   1.816 -0.0565 -0.1947  0.1098
17278TIP3    H273326   2.951   2.509   1.756 -0.3093 -0.5475  0.4782
17279TIP3   OH273327   5.952   6.363  16.190  0.1950  0.2062  0.0837
17279TIP3    H173328   5.895   6.289  16.169  0.2686  0.8703 -2.7332
17279TIP3    H273329   5.999   6.381  16.108  0.7670  2.8656  0.9273
17280TIP3   OH273330   3.641   1.601   5.014 -0.2340  0.1708 -0.2238
17280TIP3    H173331   3.660   1.538   5.083 -1.6124  1.6926  1.5775
17280TIP3    H273332   3.629   1.547   4.935  2.3131 -1.5044  0.4624
17281TIP3   OH273333   4.963   5.065  13.610 -0.0169  0.3318  0.5668
17281TIP3    H173334   4.877   5.027  13.598 -0.8770  2.4626 -0.2801
17281TIP3    H273335   5.020   4.991  13.630 -2.3920 -0.8712  3.1211
17282TIP3   OH273336   3.402   3.121  14.359 -0.0864 -0.2070  0.5816
17282TIP3    H173337   3.467   3.066  14.315 -0.6416 -0.5910  0.2373
17282TIP3    H273338   3.362   3.172  14.289 -0.2416 -0.0565  0.7772
17283TIP3   OH273339   2.923   6.288   1.917 -0.1450  0.2643  0.1508
17283TIP3    H173340   2.844   6.279   1.969 -1.3185  1.5583 -1.3645
17283TIP3    H273341   2.928   6.382   1.897  1.2391  0.0535 -0.5747
17284TIP3   OH273342   5.211   5.935   0.919  0.2699 -0.2024  0.2937
17284TIP3    H173343   5.174   5.868   0.863  0.9294 -0.1280 -0.2411
17284TIP3    H273344   5.142   5.955   0.982  0.5411 -2.3533  1.3148
17285TIP3   OH273345   1.429   4.259  13.765 -0.1388 -0.1754  0.0444
17285TIP3    H173346   1.488   4.187  13.741  0.2572  0.2244 -0.1926
17285TIP3    H273347   1.423   4.312  13.685  0.3217  0.5708  0.5019
17286TIP3   OH273348   0.756   0.787  15.506  0.4107 -0.0657 -0.6779
17286TIP3    H173349   0.811   0.803  15.429  0.8065 -1.1786 -0.6395
17286TIP3    H273350   0.818   0.785  15.579  0.1085  0.3946 -0.4082
17287TIP3   OH273351   6.765   4.409   5.977  0.0751 -0.1615  0.1152
17287TIP3    H173352   6.686   4.389   5.927  0.4713  1.0620 -0.9936
17287TIP3    H273353   6.837   4.383   5.921  0.5044  0.2908  0.4506
17288TIP3   OH273354   5.415   5.710  10.878  0.2218 -0.5731 -0.0360
17288TIP3    H173355   5.347   5.681  10.818 -0.0777 -1.9687  0.9436
17288TIP3    H273356   5.480   5.754  10.823 -0.6668 -0.6978 -1.1891
17289TIP3   OH273357   5.719   3.209  13.826 -0.3086 -0.1696 -0.5685
17289TIP3    H173358   5.745   3.213  13.734  1.3311  1.0471 -0.0775
17289TIP3    H273359   5.780   3.146  13.865 -0.5399 -0.1458 -0.1680
17290TIP3   OH273360   4.638   4.912   0.486  0.9243  0.7658  0.3083
17290TIP3    H173361   4.719   4.940   0.443  0.8674  0.0695 -0.2564
17290TIP3    H273362   4.582   4.990   0.483  0.1562  0.1734 -2.7389
17291TIP3   OH273363   4.546   2.102   2.374 -0.0944 -0.7702 -0.1638
17291TIP3    H173364   4.634   2.085   2.408  0.7427 -0.7830 -2.3080
17291TIP3    H273365   4.511   2.015   2.354 -0.4308 -0.7340  0.2567
17292TIP3   OH273366   6.431   4.644  17.114 -0.2271 -0.2082 -0.1600
17292TIP3    H173367   6.404   4.594  17.191 -0.4025 -1.0377 -0.7594
17292TIP3    H273368   6.517   4.607  17.091 -1.3298 -1.7541 -1.9192
17293TIP3   OH273369   3.132   3.892  12.174  0.4772 -0.3832 -0.6363
17293TIP3    H173370   3.124   3.987  12.172 -0.6961 -0.4737 -0.6479
17293TIP3    H273371   3.043   3.861  12.195  0.8338 -1.4707 -0.7133
17294TIP3   OH273372   5.035   6.256  16.587 -0.2349 -0.4906  0.1880
17294TIP3    H173373   5.099   6.186  16.604  0.0029 -0.4666 -0.5896
17294TIP3    H273374   5.057   6.324  16.651  1.3210  0.0371 -0.8712
17295TIP3   OH273375   5.124   0.402  16.521 -0.8150 -0.5564  0.1547
17295TIP3    H173376   5.077   0.431  16.443  0.8119  0.3456 -0.5188
17295TIP3    H273377   5.152   0.483  16.565  1.4069 -1.0332 -0.2878
17296TIP3   OH273378   6.257   2.577   0.796  0.6001  0.3793  0.3827
17296TIP3    H173379   6.348   2.550   0.780  1.4694  3.3314 -0.0915
17296TIP3    H273380   6.220   2.587   0.708 -0.7405 -2.3760  0.5806
17297TIP3   OH273381   4.657   2.978  13.728  0.4169 -0.4460 -0.4473
17297TIP3    H173382   4.627   2.889  13.708  1.3958 -0.8798 -0.0354
17297TIP3    H273383   4.652   2.984  13.824 -0.1984  0.1490 -0.5114
17298TIP3   OH273384   0.778   3.158   3.258 -0.3178 -0.2720 -0.1594
17298TIP3    H173385   0.803   3.226   3.320 -1.6205 -0.9868  1.1736
17298TIP3    H273386   0.684   3.171   3.244 -0.3286 -1.0299 -0.8481
17299TIP3   OH273387   3.975   0.824  13.169 -0.6543 -0.0255  0.0566
17299TIP3    H173388   3.919   0.879  13.113 -1.8343 -0.4746  0.7932
17299TIP3    H273389   3.979   0.871  13.252 -2.1002 -1.3122  0.8668
17300TIP3   OH273390   2.733   5.424  14.800 -0.0917 -0.2394 -0.2027
17300TIP3    H173391   2.638   5.439  14.794  0.0232  0.6432  0.0957
17300TIP3    H273392   2.771   5.494  14.747  0.4680  0.5212  1.1913
17301TIP3   OH273393   1.633   2.593   4.007  0.5824 -0.3574  0.0421
17301TIP3    H173394   1.654   2.500   4.004 -2.1218 -1.1127  1.9897
17301TIP3    H273395   1.702   2.631   4.061  0.0681 -1.7742  1.7383
17302TIP3   OH273396   6.572   2.399  17.037 -0.0384  0.8866  0.1181
17302TIP3    H173397   6.609   2.371  16.953  1.1193 -0.1047  0.9392
17302TIP3    H273398   6.477   2.397  17.023  0.1442  0.7805 -1.1761
17303TIP3   OH273399   0.288   2.905   1.488 -0.3345 -0.1246  0.1632
17303TIP3    H173400   0.252   2.954   1.562  1.2950  0.3426  0.6513
17303TIP3    H273401   0.211   2.863   1.448 -1.4837  1.1668  0.9564
17304TIP3   OH273402   2.318   0.915   3.075 -1.1944 -0.3910  0.7016
17304TIP3    H173403   2.315   0.995   3.022 -3.6898 -0.5378  0.5596
17304TIP3    H273404   2.370   0.939   3.152  1.3355  0.2203 -1.1512
17305TIP3   OH273405   2.331   6.292   3.959  0.0361  0.1855  0.5513
17305TIP3    H173406   2.355   6.304   4.051  0.7233  0.1114  0.3890
17305TIP3    H273407   2.415   6.297   3.912 -0.2253 -0.4852  0.0032
17306TIP3   OH273408   3.324   3.655   4.992  0.7877 -0.0616  0.0115
17306TIP3    H173409   3.288   3.568   4.974 -1.0522  0.5231  0.7284
17306TIP3    H273410   3.374   3.644   5.073  0.6039 -0.4627  0.0733
17307TIP3   OH273411   2.466   6.531  12.061 -0.1205 -0.0504 -0.2013
17307TIP3    H173412   2.543   6.559  12.111  1.1601 -2.3534 -0.8292
17307TIP3    H273413   2.450   6.603  12.000  0.8531  0.9267  0.6567
17308TIP3   OH273414   0.766   0.325   0.656 -0.2003 -0.7074  0.3129
17308TIP3    H173415   0.828   0.264   0.696  0.4592  0.5784  1.2722
17308TIP3    H273416   0.814   0.408   0.649 -1.0916 -0.2819 -0.9552
17309TIP3   OH273417   4.512   3.136   3.224  0.2672 -0.0916  0.4589
17309TIP3    H173418   4.579   3.130   3.156 -1.1883 -0.3190 -0.9871
17309TIP3    H273419   4.447   3.070   3.200 -1.7116  1.7788  0.4395
17310TIP3   OH273420   1.987   4.145  13.443 -0.3803 -0.4253  0.7565
17310TIP3    H173421   2.082   4.146  13.440 -0.3891 -1.7171 -0.5495
17310TIP3    H273422   1.959   4.166  13.354 -1.3505  1.3363  1.4449
17311TIP3   OH273423   3.423   3.902  11.256  0.2401  0.3206  0.3994
17311TIP3    H173424   3.491   3.963  11.283  1.9463 -0.9589 -0.8706
17311TIP3    H273425   3.357   3.905  11.326  2.2509  0.5540  2.3172
17312TIP3   OH273426   0.433   3.883  12.990 -0.0804  0.1804 -0.7165
17312TIP3    H173427   0.405   3.801  12.949  1.0156 -1.4873  1.7771
17312TIP3    H273428   0.408   3.874  13.082  0.3064  2.5550 -0.3403
17313TIP3   OH273429   1.370   4.223   3.425 -0.2392 -0.0747 -0.3103
17313TIP3    H173430   1.293   4.280   3.432 -0.7972 -0.9881  1.2194
17313TIP3    H273431   1.432   4.259   3.488 -1.0416 -1.8204  1.5309
17314TIP3   OH273432   3.205   4.748  14.072  0.0017  0.6266 -0.0742
17314TIP3    H173433   3.139   4.716  14.011  2.9769 -2.1002 -2.0317
17314TIP3    H273434   3.275   4.782  14.017  1.4024  1.0526  1.8827
17315TIP3   OH273435   1.558   2.699  11.357 -0.2475 -0.5006  0.0941
17315TIP3    H173436   1.498   2.629  11.333  0.1750 -1.3026  1.3381
17315TIP3    H273437   1.545   2.710  11.451 -0.0294  0.8331 -0.0207
17316TIP3   OH273438   5.301   2.405   2.421 -0.2753 -0.1073 -0.1632
17316TIP3    H173439   5.315   2.495   2.392  1.0598 -0.8067 -1.7463
17316TIP3    H273440   5.292   2.355   2.339  1.6802 -1.8319  0.6528
17317TIP3   OH273441   1.718   1.978   2.445 -0.3960 -0.3775 -0.0546
17317TIP3    H173442   1.664   2.046   2.483 -2.0486 -1.2416 -0.8161
17317TIP3    H273443   1.806   1.996   2.477 -1.0361  1.3655  0.7513
17318TIP3   OH273444   2.144   1.508   2.752 -0.3454 -0.1559 -0.4408
17318TIP3    H173445   2.095   1.525   2.833 -0.0903  0.3654 -0.3939
17318TIP3    H273446   2.123   1.583   2.696  1.2917  0.6589  0.0041
17319TIP3   OH273447   3.369   6.735   1.888  0.2900 -1.1320  0.1116
17319TIP3    H173448   3.392   6.745   1.981 -2.1084 -2.8679  0.9356
17319TIP3    H273449   3.402   6.814   1.847  2.2075 -0.7290  2.2853
17320TIP3   OH273450   2.947   4.447  16.677 -0.2054 -0.4580  0.4514
17320TIP3    H173451   2.935   4.393  16.599  1.9695 -0.7917  0.2955
17320TIP3    H273452   2.953   4.536  16.644 -0.5264 -0.4756  0.3527
17321TIP3   OH273453   1.080   6.617  11.277 -0.1900  1.1109  0.4565
17321TIP3    H173454   1.007   6.583  11.226 -0.6861  0.1602  1.7894
17321TIP3    H273455   1.124   6.679  11.218 -1.4804  0.9489 -0.6808
17322TIP3   OH273456   4.566   6.336   4.181 -0.1228  0.1514 -0.1742
17322TIP3    H173457   4.542   6.410   4.125 -2.2043 -0.4185 -0.0882
17322TIP3    H273458   4.649   6.305   4.146  0.5520  2.2437 -0.4815
17323TIP3   OH273459   2.922   4.878  16.043 -0.4025 -0.0728  0.5923
17323TIP3    H173460   2.927   4.962  16.088 -0.6190  0.8149 -0.9767
17323TIP3    H273461   2.829   4.860  16.035 -0.3577 -0.4112  0.8366
17324TIP3   OH273462   4.892   2.543   2.520  0.2213  0.3587  0.5880
17324TIP3    H173463   4.955   2.533   2.591 -2.7101  1.0310  3.3925
17324TIP3    H273464   4.834   2.467   2.529  0.4781 -0.1570 -1.8321
17325TIP3   OH273465   0.297   1.036  15.065  0.2446 -0.0736 -0.4909
17325TIP3    H173466   0.206   1.053  15.089  0.2398 -0.1353 -0.4671
17325TIP3    H273467   0.337   1.003  15.145 -0.1975 -1.9457 -1.0233
17326TIP3   OH273468   3.230   3.496  12.613 -0.0717 -0.3879  0.2065
17326TIP3    H173469   3.237   3.461  12.702  0.4847 -0.5091  0.1193
17326TIP3    H273470   3.281   3.577  12.616 -2.7735  1.3652  0.8836
17327TIP3   OH273471   0.813   5.628  14.592  0.5604  0.5919  0.6109
17327TIP3    H173472   0.756   5.632  14.669  0.6859  0.3110  0.7205
17327TIP3    H273473   0.842   5.537  14.589 -0.0374  0.4247 -0.2090
17328TIP3   OH273474   2.603   0.101  13.785  0.0083  0.0479  0.2851
17328TIP3    H173475   2.542   0.144  13.725  0.5951  0.0059 -0.3553
17328TIP3    H273476   2.687   0.103  13.738 -0.0373 -2.1653  0.0642
17329TIP3   OH273477   2.941   4.030  10.971  0.0017  0.4079 -0.6896
17329TIP3    H173478   2.868   3.989  11.018  1.5726 -0.4826  1.0796
17329TIP3    H273479   2.988   3.956  10.930  1.1705  0.7100  0.0707
17330TIP3   OH273480   4.891   2.508  16.710 -0.3344 -0.3135  0.0251
17330TIP3    H173481   4.819   2.458  16.672 -0.6454 -1.3430  1.8847
17330TIP3    H273482   4.922   2.564  16.639 -2.2368 -0.6695 -1.1288
17331TIP3   OH273483   1.022   2.173  14.436 -0.0603  0.2173 -0.0506
17331TIP3    H173484   1.050   2.250  14.386  0.5226 -0.3719 -0.6421
17331TIP3    H273485   0.974   2.120  14.373 -0.5796  0.1564  0.3933
17332TIP3   OH273486   4.659   6.486  13.234  0.1739 -0.6602 -0.7849
17332TIP3    H173487   4.744   6.529  13.243  0.3397 -1.4078  1.6042
17332TIP3    H273488   4.612   6.539  13.170  0.3268  3.1238  2.0809
17333TIP3   OH273489   5.285   0.735  15.455  0.1747  0.7688 -0.3965
17333TIP3    H173490   5.217   0.704  15.395  1.8596  0.1509 -2.0349
17333TIP3    H273491   5.292   0.666  15.521 -0.6454  0.7491 -0.3250
17334TIP3   OH273492   4.512   2.350   0.454 -0.1729  0.0865 -0.4680
17334TIP3    H173493   4.519   2.427   0.398  1.6654 -0.0670 -0.4880
17334TIP3    H273494   4.508   2.276   0.393 -0.4736  0.0776 -0.4352
17335TIP3   OH273495   1.864   4.828   3.517  0.1162 -0.1056  0.1445
17335TIP3    H173496   1.927   4.894   3.546  0.3936  0.1295 -0.9789
17335TIP3    H273497   1.784   4.877   3.498  0.5056 -0.0016 -1.2649
17336TIP3   OH273498   4.460   5.124  12.997 -0.3286 -0.1261  0.6555
17336TIP3    H173499   4.371   5.089  13.000 -0.6167  0.4857 -0.4494
17336TIP3    H273500   4.467   5.180  13.074 -0.8569 -0.2502  0.7936
17337TIP3   OH273501   1.430   4.676   1.298 -0.1091 -0.4799 -0.3740
17337TIP3    H173502   1.421   4.737   1.371 -0.8279 -2.5068  1.2761
17337TIP3    H273503   1.493   4.611   1.330 -0.7752 -1.6269 -1.3863
17338TIP3   OH273504   5.159   2.458   5.264  0.1882  0.2158  0.4679
17338TIP3    H173505   5.250   2.431   5.275  0.0872 -0.1623  0.3558
17338TIP3    H273506   5.124   2.401   5.196  0.5868  2.0323 -1.3141
17339TIP3   OH273507   0.618   5.432  15.912 -0.0509 -0.1361  0.5605
17339TIP3    H173508   0.575   5.508  15.873 -1.4278 -1.0666  0.2263
17339TIP3    H273509   0.711   5.448  15.899 -0.3820  0.8280 -0.7828
17340TIP3   OH273510   0.193   2.844  12.032 -0.4240  0.2852 -1.3347
17340TIP3    H173511   0.249   2.823  12.106 -0.0388  1.8569 -1.1518
17340TIP3    H273512   0.104   2.827  12.064 -0.1289 -1.1894 -1.2765
17341TIP3   OH273513   5.446   1.757   6.362 -0.2618 -0.2200 -0.3036
17341TIP3    H173514   5.415   1.692   6.300 -1.1602  0.8118 -0.9588
17341TIP3    H273515   5.541   1.756   6.354 -0.3669 -0.2175 -1.5710
17342TIP3   OH273516   4.456   0.773  15.269 -0.3042  0.0315  0.4412
17342TIP3    H173517   4.413   0.835  15.328 -1.3233  0.5598 -0.8131
17342TIP3    H273518   4.420   0.794  15.183  1.7816 -0.1680 -0.5031
17343TIP3   OH273519   5.126   6.594  12.462  0.2611 -0.0846  0.0815
17343TIP3    H173520   5.195   6.572  12.400 -1.7435 -1.5489 -1.7110
17343TIP3    H273521   5.120   6.517  12.519  0.3764  0.1989  0.4780
17344TIP3   OH273522   1.963   3.166  14.640  0.0615 -0.9263 -0.2548
17344TIP3    H173523   1.967   3.071  14.645 -2.8073 -1.1094 -0.7492
17344TIP3    H273524   1.971   3.186  14.547  1.3210 -0.6429 -0.0873
17345TIP3   OH273525   5.825   6.106  17.114 -0.3730 -0.9795 -0.1658
17345TIP3    H173526   5.871   6.096  17.031 -0.6538  0.9105 -0.5628
17345TIP3    H273527   5.837   6.198  17.138 -4.1146 -0.3423 -0.3991
17346TIP3   OH273528   0.015   2.691  13.033  0.5524  0.3155  0.2434
17346TIP3    H173529   0.022   2.757  12.964 -0.5339  0.0241 -0.1477
17346TIP3    H273530  -0.048   2.728  13.095 -1.0237 -0.9034 -0.6111
17347TIP3   OH273531   5.169   3.393  16.960  0.0961 -0.7257  0.4389
17347TIP3    H173532   5.254   3.422  16.993  0.6251 -2.6014  0.7440
17347TIP3    H273533   5.109   3.462  16.987  1.5932  0.8902 -0.2376
17348TIP3   OH273534   3.702   4.648   0.318  0.1036 -0.3484 -0.6972
17348TIP3    H173535   3.757   4.702   0.374 -0.1917 -0.0812 -0.6597
17348TIP3    H273536   3.714   4.559   0.350 -0.0685 -0.1930 -0.2101
17349TIP3   OH273537   1.622   4.726  11.987 -0.2549 -0.7386 -0.4294
17349TIP3    H173538   1.626   4.814  11.948  0.6108 -0.7289 -0.3409
17349TIP3    H273539   1.592   4.669  11.917  0.4099 -0.5713 -0.8555
17350TIP3   OH273540   0.911   5.441  15.952 -0.2764  0.1095  0.6363
17350TIP3    H173541   0.880   5.354  15.975 -0.6505  0.4982  1.6109
17350TIP3    H273542   0.963   5.469  16.027 -0.3208  0.8059  0.4119
17351TIP3   OH273543   6.587   2.336  10.693  0.1678 -0.2485  0.0140
17351TIP3    H173544   6.580   2.276  10.619  1.6303  1.1069 -1.2254
17351TIP3    H273545   6.667   2.309  10.738  1.0945  1.0760 -0.8284
17352TIP3   OH273546   3.937   3.011   2.644 -0.2096 -0.5387  0.4154
17352TIP3    H173547   3.887   2.930   2.641 -0.1181 -0.6497  1.8993
17352TIP3    H273548   3.938   3.041   2.553  1.2884 -3.1422 -0.4977
17353TIP3   OH273549   3.589   3.049  12.725  0.3951  0.9249 -0.3811
17353TIP3    H173550   3.610   2.960  12.696 -1.1376  0.9065 -1.5162
17353TIP3    H273551   3.639   3.061  12.805  3.1112  0.1939 -1.9214
17354TIP3   OH273552   6.154   4.791  14.347 -0.5181  0.0979  0.1676
17354TIP3    H173553   6.131   4.754  14.432 -1.8812  0.0321 -0.2197
17354TIP3    H273554   6.131   4.723  14.284  2.5291 -0.7267 -0.1129
17355TIP3   OH273555   1.788   0.413  12.830 -0.0206 -0.0181  0.1992
17355TIP3    H173556   1.792   0.501  12.793  0.5747  0.1845  0.7279
17355TIP3    H273557   1.812   0.356  12.757  0.6384  0.3393  0.1305
17356TIP3   OH273558   0.837   5.199  10.630  0.6186 -0.8095  0.5050
17356TIP3    H173559   0.828   5.214  10.536 -0.1882  0.0803  0.7161
17356TIP3    H273560   0.838   5.104  10.640 -0.8034 -0.9017 -0.2622
17357TIP3   OH273561   3.531   4.305   0.377 -0.2208 -0.0089  0.1802
17357TIP3    H173562   3.603   4.271   0.431 -0.4164  0.5497  0.7864
17357TIP3    H273563   3.569   4.312   0.289 -0.9673 -4.5306 -0.6193
17358TIP3   OH273564   5.707   1.441   0.040  0.0508  0.3561  0.2053
17358TIP3    H173565   5.611   1.447   0.038  0.0376  0.6098  1.3092
17358TIP3    H273566   5.726   1.384   0.114  0.7704  0.9676  0.5015
17359TIP3   OH273567   3.886   5.415  12.329 -0.5834 -0.2000 -0.4768
17359TIP3    H173568   3.953   5.424  12.262 -1.9383 -0.5956 -1.9251
17359TIP3    H273569   3.912   5.337  12.379  1.4603  1.1955  0.7225
17360TIP3   OH273570   5.136   3.651  11.094 -0.6733  0.5288 -0.6308
17360TIP3    H173571   5.143   3.578  11.032 -0.2671 -0.2409  0.3092
17360TIP3    H273572   5.090   3.614  11.170 -0.0076  1.1099  0.0605
17361TIP3   OH273573   0.444   4.488  16.885  0.0790  0.0596  0.2493
17361TIP3    H173574   0.467   4.476  16.793 -0.6278 -0.8252  0.1783
17361TIP3    H273575   0.498   4.425  16.932 -0.7324 -0.6146  0.2806
17362TIP3   OH273576   0.270   3.572   2.037 -0.4360  0.4033 -0.5581
17362TIP3    H173577   0.215   3.623   2.097  0.6761  1.6056 -0.5581
17362TIP3    H273578   0.359   3.600   2.055  0.3699 -2.7038  0.5544
17363TIP3   OH273579   3.858   4.545  10.580  0.5379  0.2436  0.0999
17363TIP3    H173580   3.851   4.615  10.515 -0.4988 -0.6571 -0.7708
17363TIP3    H273581   3.811   4.471  10.541  0.5165 -0.5293  1.5715
17364TIP3   OH273582   3.116   5.800  17.290 -0.0976  0.1773  0.2422
17364TIP3    H173583   3.185   5.846  17.339 -1.0910  0.4436  1.4319
17364TIP3    H273584   3.152   5.713  17.275  0.1726  0.0471  1.5885
17365TIP3   OH273585   5.696   3.531  14.250 -0.5935  0.0593  0.3440
17365TIP3    H173586   5.694   3.479  14.331 -0.5660  2.0068  1.6352
17365TIP3    H273587   5.778   3.506  14.208 -0.9622 -1.5306  0.5318
17366TIP3   OH273588   4.082   3.530   5.113  0.2445 -0.1935 -0.3326
17366TIP3    H173589   4.034   3.448   5.105  0.6533 -0.2553 -2.4458
17366TIP3    H273590   4.016   3.595   5.135 -0.0478 -1.1023  1.5845
17367TIP3   OH273591   3.035   1.347  14.035 -0.2441 -0.0172 -0.1751
17367TIP3    H173592   3.027   1.430  13.987 -0.3605 -0.6524 -1.2647
17367TIP3    H273593   2.972   1.355  14.107  0.1779  1.0854  0.0953
17368TIP3   OH273594   4.541   6.501  12.081  0.4718 -0.1018 -0.0009
17368TIP3    H173595   4.531   6.475  11.989 -0.0999  1.0828 -0.2834
17368TIP3    H273596   4.605   6.573  12.078  0.6213 -0.2110  0.5546
17369TIP3   OH273597   4.157   5.781  16.776  1.0168  0.3386 -1.3036
17369TIP3    H173598   4.101   5.740  16.711 -0.7666  0.5305  0.0973
17369TIP3    H273599   4.132   5.874  16.774 -0.9315 -0.0577  1.4625
17370TIP3   OH273600   3.502   1.755   4.313 -0.0808 -0.8107 -0.4754
17370TIP3    H173601   3.523   1.728   4.403 -0.1662  0.1405 -0.1715
17370TIP3    H273602   3.547   1.839   4.302 -1.8916  0.1572 -0.5834
17371TIP3   OH273603   5.340   1.379  13.597 -0.2850 -0.7024  0.5095
17371TIP3    H173604   5.404   1.355  13.665  0.3223 -0.5855 -0.0161
17371TIP3    H273605   5.256   1.351  13.633  0.0806 -1.0272  1.1311
17372TIP3   OH273606   2.651   3.999  16.562 -0.2358 -0.6823 -0.4504
17372TIP3    H173607   2.607   4.004  16.477  2.4684 -1.7546 -1.9791
17372TIP3    H273608   2.736   3.959  16.543  1.1118  0.5940  2.5095
17373TIP3   OH273609   4.279   3.116   2.341  0.2051 -0.0134 -0.2662
17373TIP3    H173610   4.273   3.021   2.335 -0.7829 -0.0607  1.1280
17373TIP3    H273611   4.294   3.133   2.434 -1.1340  1.2480 -0.2564
17374TIP3   OH273612   6.561   5.319  16.768  0.5662 -0.2215 -0.7395
17374TIP3    H173613   6.523   5.399  16.804 -0.2519 -0.0215 -2.0411
17374TIP3    H273614   6.497   5.287  16.704  2.4485  0.0290 -2.8202
17375TIP3   OH273615   0.442   2.832  17.021 -0.0025 -0.0740 -0.3666
17375TIP3    H173616   0.418   2.918  17.057 -1.8119 -0.0301 -1.6098
17375TIP3    H273617   0.527   2.812  17.061 -0.7015  1.1756  1.8429
17376TIP3   OH273618   4.378   3.389  15.340  0.1352 -0.2244  0.6204
17376TIP3    H173619   4.399   3.360  15.252  1.0459  0.4095  0.6248
17376TIP3    H273620   4.323   3.466  15.327  1.1346  0.4957  0.5930
17377TIP3   OH273621   1.209   6.497   4.314 -0.1145  0.1448 -0.4526
17377TIP3    H173622   1.122   6.458   4.324 -0.0071  0.0401  0.0450
17377TIP3    H273623   1.197   6.564   4.247 -0.5990  0.1876 -0.3252
17378TIP3   OH273624   3.292   5.386   3.671  0.4235  0.0916 -0.0589
17378TIP3    H173625   3.290   5.388   3.767 -0.0853 -0.6030 -0.0532
17378TIP3    H273626   3.336   5.304   3.650 -2.6251 -1.5072 -0.4313
17379TIP3   OH273627   4.114   0.053   3.656  0.1688 -0.4832  0.0315
17379TIP3    H173628   4.092   0.013   3.572 -1.2297  1.6022 -0.6465
17379TIP3    H273629   4.206   0.078   3.647  0.5669 -2.0054 -0.1621
17380TIP3   OH273630   6.739   4.099   3.995 -0.2077 -0.0586  0.3677
17380TIP3    H173631   6.811   4.144   3.951  0.8751 -0.7092  1.4449
17380TIP3    H273632   6.777   4.066   4.077 -1.8259 -0.0732  1.1434
17381TIP3   OH273633   2.018   6.406   3.241  0.1189 -0.0994 -0.1604
17381TIP3    H173634   2.035   6.489   3.196 -1.3963  1.0177  1.2995
17381TIP3    H273635   2.087   6.400   3.307  0.7191 -0.4192 -0.8079
17382TIP3   OH273636   0.564   0.741  13.396  0.6628 -0.1814 -0.2271
17382TIP3    H173637   0.480   0.695  13.389  1.2010 -0.8908 -2.1517
17382TIP3    H273638   0.558   0.811  13.330  1.1461  0.4908  0.4319
17383TIP3   OH273639   6.541   5.126   3.330  0.0323  0.1644 -0.6069
17383TIP3    H173640   6.592   5.107   3.252  0.5305  2.3765 -0.8592
17383TIP3    H273641   6.605   5.151   3.396 -0.5849  1.3244 -0.4261
17384TIP3   OH273642   1.010   6.658   6.039  0.1034  0.5434  0.2898
17384TIP3    H173643   1.044   6.659   6.129  0.1138  1.2573  0.2837
17384TIP3    H273644   1.085   6.683   5.985  0.0381  0.3382  0.1056
17385TIP3   OH273645   4.290   4.669   3.868 -0.1892 -0.0874 -0.9552
17385TIP3    H173646   4.232   4.745   3.869  0.7610  0.6336  2.1303
17385TIP3    H273647   4.367   4.698   3.818 -0.2400  0.6763 -0.5958
17386TIP3   OH273648   2.155   2.158  16.945  0.7045 -0.1108  0.1474
17386TIP3    H173649   2.149   2.084  17.005  0.7859  0.3252  0.7024
17386TIP3    H273650   2.177   2.232  17.001  0.9266  0.2736 -0.4441
17387TIP3   OH273651   6.146   2.017   4.677 -0.2859 -0.0322  0.0643
17387TIP3    H173652   6.119   1.989   4.765  3.0455 -0.2832  1.0868
17387TIP3    H273653   6.238   2.040   4.687 -0.3539  1.7800 -2.9829
17388TIP3   OH273654   4.051   1.122  14.258 -0.1903 -0.1257  0.7363
17388TIP3    H173655   4.030   1.136  14.350  1.5419  0.9361  0.9851
17388TIP3    H273656   4.021   1.202  14.215 -0.0086 -0.1739  0.5226
17389TIP3   OH273657   0.462   5.498   3.472  0.4642 -0.8302  0.2012
17389TIP3    H173658   0.517   5.575   3.459  0.2187 -0.4498  1.3271
17389TIP3    H273659   0.511   5.427   3.430  0.5994 -0.0300 -0.9948
17390TIP3   OH273660   5.839   1.344  15.707  0.2998  0.2869  0.5137
17390TIP3    H173661   5.908   1.373  15.649  0.9766 -0.3359  0.9959
17390TIP3    H273662   5.875   1.355  15.795 -0.5690  0.8623  0.8010
17391TIP3   OH273663   3.319   5.080  14.925 -0.7998  0.0766 -0.3518
17391TIP3    H173664   3.387   5.120  14.871 -1.4699  0.3056 -1.0416
17391TIP3    H273665   3.313   4.990  14.894 -0.7852  0.0472 -0.2716
17392TIP3   OH273666   1.124   1.723  11.483  0.0458 -0.0622  0.0780
17392TIP3    H173667   1.147   1.778  11.408 -1.6188  0.8041  0.1863
17392TIP3    H273668   1.090   1.784  11.548  1.7697 -0.7654  1.6943
17393TIP3   OH273669   5.725   4.334  14.398  0.3447 -0.0283 -0.1993
17393TIP3    H173670   5.642   4.342  14.446  0.0918 -0.2385 -0.5976
17393TIP3    H273671   5.776   4.410  14.425  0.8680 -1.0029  1.6827
17394TIP3   OH273672   0.326   0.580   4.548  0.1767 -0.4344  0.0162
17394TIP3    H173673   0.249   0.637   4.552  1.0076  0.8572 -1.6129
17394TIP3    H273674   0.346   0.562   4.639 -1.5753 -0.1306  0.4972
17395TIP3   OH273675   6.231   4.222   3.152 -0.0858 -0.0870  0.3040
17395TIP3    H173676   6.213   4.144   3.204  1.6157 -0.6086  0.1442
17395TIP3    H273677   6.309   4.199   3.101 -0.3716  1.2390 -0.7501
17396TIP3   OH273678   0.300   4.064  12.408 -0.6420  0.3085 -0.0533
17396TIP3    H173679   0.223   4.026  12.367 -0.0931 -0.5062 -0.3481
17396TIP3    H273680   0.374   4.028  12.357 -0.1560  2.5278 -0.9818
17397TIP3   OH273681   6.525   3.929   4.267  0.0957 -0.4578 -0.2259
17397TIP3    H173682   6.605   3.942   4.215  0.4774 -0.9342  0.2418
17397TIP3    H273683   6.454   3.956   4.209  0.5943 -0.0690 -0.6586
17398TIP3   OH273684   5.510   0.029   0.301 -0.3015 -0.0016 -0.2290
17398TIP3    H173685   5.597   0.033   0.342 -0.6209  1.5225  0.3180
17398TIP3    H273686   5.521  -0.034   0.229  1.1125 -0.2253  0.1552
17399TIP3   OH273687   0.189   2.036   1.035  0.5167  0.5142  0.0587
17399TIP3    H173688   0.234   1.981   0.971 -0.1439 -0.3247  0.3074
17399TIP3    H273689   0.144   1.974   1.093  0.8328  1.2703  1.1373
17400TIP3   OH273690   0.390   1.974   3.886  0.0484  0.1353 -0.2094
17400TIP3    H173691   0.411   2.058   3.846 -1.6483  0.4016 -0.5990
17400TIP3    H273692   0.311   1.992   3.937 -1.5668 -1.6786 -1.9916
17401TIP3   OH273693   2.257   3.950  16.364  0.6561 -0.3943 -0.5317
17401TIP3    H173694   2.170   3.977  16.333 -0.0356  0.3727  1.9545
17401TIP3    H273695   2.243   3.862  16.399  1.2762 -0.9951 -1.8080
17402TIP3   OH273696   5.272   1.517   1.893 -0.1914  0.0653  0.2456
17402TIP3    H173697   5.290   1.545   1.803  1.3775  0.3481  0.6257
17402TIP3    H273698   5.278   1.597   1.945  0.8129 -0.4020  0.8600
17403TIP3   OH273699   2.869   4.763   2.251  0.1942  0.2589  0.3005
17403TIP3    H173700   2.835   4.775   2.162 -1.2027 -0.5503  0.6980
17403TIP3    H273701   2.951   4.811   2.253 -0.1461  0.9165 -1.2060
17404TIP3   OH273702   4.199   4.997  13.022 -0.2882 -0.0843 -0.2375
17404TIP3    H173703   4.201   4.966  13.112 -0.2866  1.2722  0.2350
17404TIP3    H273704   4.108   5.024  13.008  0.1479  1.5773  0.0152
17405TIP3   OH273705   5.562   5.156   0.298 -0.4663  0.5477 -0.1478
17405TIP3    H173706   5.630   5.089   0.294  0.0642  1.0663  0.1335
17405TIP3    H273707   5.580   5.213   0.224 -0.5397  0.7424 -0.0152
17406TIP3   OH273708   6.806   1.844  12.042  0.0305 -0.1973 -0.0999
17406TIP3    H173709   6.728   1.878  11.997 -0.2449 -0.7487 -0.0513
17406TIP3    H273710   6.773   1.768  12.091  0.8708 -1.2827 -1.1880
17407TIP3   OH273711   3.549   0.925  12.549 -0.0759  0.0453 -0.1558
17407TIP3    H173712   3.530   0.922  12.643  0.6234 -1.0668 -0.0389
17407TIP3    H273713   3.469   0.959  12.509  0.2692  2.3353  1.0124
17408TIP3   OH273714   4.666   5.731   6.295  0.2932  0.4698  0.4230
17408TIP3    H173715   4.666   5.636   6.298  0.4501  0.4774  0.6709
17408TIP3    H273716   4.686   5.758   6.385 -0.9058  0.7367  0.6304
17409TIP3   OH273717   6.379   6.080  13.478  0.4062 -0.4957  0.6787
17409TIP3    H173718   6.330   6.023  13.419  0.4460 -1.5496  1.6461
17409TIP3    H273719   6.411   6.022  13.547  3.0839  0.1414  0.0383
17410TIP3   OH273720   1.574   1.551  13.897  0.0208 -0.2061  0.1567
17410TIP3    H173721   1.661   1.514  13.909  0.0681 -0.2517 -0.3013
17410TIP3    H273722   1.542   1.567  13.985  0.1182 -1.0758  0.3573
17411TIP3   OH273723   5.195   4.609   5.279  0.2942  0.4524  0.1519
17411TIP3    H173724   5.277   4.658   5.286  0.5762 -0.2097  1.8073
17411TIP3    H273725   5.222   4.521   5.251  0.5307 -0.6635  3.6099
17412TIP3   OH273726   1.930   0.649  14.622  0.7946  0.0737  0.4074
17412TIP3    H173727   1.872   0.682  14.691  0.1846 -2.6941  1.2884
17412TIP3    H273728   1.972   0.727  14.586 -2.3048  1.9943  0.8186
17413TIP3   OH273729   0.467   5.366   1.681  0.3376  0.0101 -0.7087
17413TIP3    H173730   0.460   5.459   1.705  0.3102  0.1187 -1.1262
17413TIP3    H273731   0.558   5.355   1.654 -0.4152  0.6934 -3.7917
17414TIP3   OH273732   2.463   4.187  16.047  0.0378  0.0525  0.3296
17414TIP3    H173733   2.545   4.232  16.031  0.0803  0.1989  0.9318
17414TIP3    H273734   2.396   4.245  16.011  0.0575  0.8122  1.4789
17415TIP3   OH273735   3.553   3.544  14.651 -0.3833  0.2216  0.2934
17415TIP3    H173736   3.607   3.519  14.726  0.5377  0.4007 -0.2959
17415TIP3    H273737   3.584   3.487  14.580 -0.6550  0.6502 -0.1685
17416TIP3   OH273738   6.083   2.225   3.242  0.0612 -0.3800 -0.1046
17416TIP3    H173739   6.142   2.163   3.283 -0.3727  0.9608  2.6355
17416TIP3    H273740   6.001   2.177   3.229 -0.1175 -0.5300  1.5496
17417TIP3   OH273741   4.921   3.516   1.138  0.0539 -0.0236  0.1577
17417TIP3    H173742   5.009   3.551   1.128  0.1306 -0.1774  0.2880
17417TIP3    H273743   4.891   3.500   1.049  0.7134 -1.3481  0.1639
17418TIP3   OH273744   4.821   3.666   9.891 -0.2402  0.7656 -0.3021
17418TIP3    H173745   4.873   3.594   9.856  0.2034  1.6646 -1.5045
17418TIP3    H273746   4.870   3.696   9.968  0.7313  1.2132 -1.0823
17419TIP3   OH273747   2.282   4.343  15.907 -0.0941  0.0260  0.3447
17419TIP3    H173748   2.194   4.360  15.942 -1.9544 -4.3191 -1.7911
17419TIP3    H273749   2.267   4.321  15.815  3.7452  2.8836 -1.1064
17420TIP3   OH273750   1.845   2.212  11.303  0.3388  0.1983  0.1885
17420TIP3    H173751   1.796   2.294  11.301 -0.8462 -0.5139 -2.6644
17420TIP3    H273752   1.918   2.229  11.362  0.6568  3.5977 -1.0819
17421TIP3   OH273753   2.305   4.985  11.252 -0.8205 -0.3988  0.1363
17421TIP3    H173754   2.286   5.063  11.306  0.1619  0.0713 -0.1966
17421TIP3    H273755   2.382   4.946  11.293 -1.7585 -1.6482  0.7645
17422TIP3   OH273756   5.216   6.662  14.753  0.3694 -0.7898 -0.0248
17422TIP3    H173757   5.304   6.633  14.775 -0.0804 -1.0531  1.4689
17422TIP3    H273758   5.173   6.585  14.716 -0.1815 -1.5054  2.0615
17423TIP3   OH273759   4.134   6.588   4.987 -0.4650  0.5192 -0.2517
17423TIP3    H173760   4.082   6.629   4.917 -1.1709 -0.2471 -0.1901
17423TIP3    H273761   4.068   6.547   5.044  0.1530  0.4647  0.4237
17424TIP3   OH273762   1.078   4.739  12.695 -0.2326 -0.2992  0.3672
17424TIP3    H173763   1.101   4.752  12.603 -1.2173  1.3934  0.3350
17424TIP3    H273764   1.125   4.808  12.741 -0.7805 -0.3202  0.9614
17425TIP3   OH273765   2.450   1.052  11.675 -0.2771  0.8910  0.2046
17425TIP3    H173766   2.507   1.070  11.600  1.3736 -0.8494  1.0190
17425TIP3    H273767   2.375   1.110  11.661  2.4238  4.5723  0.0246
17426TIP3   OH273768   2.465   5.427   4.089  0.2329  0.7798 -0.3646
17426TIP3    H173769   2.458   5.510   4.137 -0.3431  1.6760 -1.9596
17426TIP3    H273770   2.560   5.413   4.081  0.3515  1.8402 -0.9983
17427TIP3   OH273771   5.854   6.573   6.636 -0.0567 -0.0777  0.2579
17427TIP3    H173772   5.894   6.560   6.722  0.1907 -1.9556 -0.1193
17427TIP3    H273773   5.927   6.564   6.575  0.0233  2.5749 -0.1092
17428TIP3   OH273774   2.017   5.892   2.684  0.2876 -0.0100 -0.0710
17428TIP3    H173775   2.082   5.959   2.664 -1.6351  2.3686  1.3398
17428TIP3    H273776   2.045   5.853   2.767  0.0094  0.9051  0.4554
17429TIP3   OH273777   0.404   1.019  12.090  0.1144 -0.6693  0.6057
17429TIP3    H173778   0.467   0.948  12.081 -1.2472 -1.8832  0.4583
17429TIP3    H273779   0.356   1.019  12.007  0.7847  1.1289  0.1731
17430TIP3   OH273780   2.185   4.413  13.696 -0.3682 -0.0097  0.8459
17430TIP3    H173781   2.261   4.410  13.638 -1.0312  1.7613 -0.1801
17430TIP3    H273782   2.116   4.451  13.642 -1.3049  0.6800  2.4883
17431TIP3   OH273783   3.267   6.722   2.800 -0.5049  0.1552 -0.2129
17431TIP3    H173784   3.227   6.800   2.838 -1.5047 -0.0911 -0.7434
17431TIP3    H273785   3.200   6.654   2.808 -0.1267 -0.3127 -0.9346
17432TIP3   OH273786   6.226   4.927   0.379 -0.2947  0.1496 -0.5505
17432TIP3    H173787   6.264   4.968   0.300  0.5690  1.0919  0.3307
17432TIP3    H273788   6.200   5.002   0.433  1.9853 -0.4434  1.4210
17433TIP3   OH273789   2.773   2.062   4.137 -0.4157 -0.0194  0.3561
17433TIP3    H173790   2.704   2.127   4.125 -1.0330 -0.7366 -0.0886
17433TIP3    H273791   2.775   2.045   4.231 -1.2394 -0.3996  0.3135
17434TIP3   OH273792   0.876   3.269   6.023 -0.3344 -0.1618 -0.2714
17434TIP3    H173793   0.912   3.343   5.975 -0.2530  0.0778  0.1560
17434TIP3    H273794   0.924   3.269   6.106  0.0754 -1.0416 -0.5026
17435TIP3   OH273795   2.107   4.172  16.538  0.2138 -0.2141 -0.4505
17435TIP3    H173796   2.160   4.094  16.551 -0.3259 -0.4975  0.0542
17435TIP3    H273797   2.073   4.163  16.449  0.9418 -0.0652 -0.7518
17436TIP3   OH273798   1.164   3.479   6.071  0.2629  0.3643 -0.9266
17436TIP3    H173799   1.197   3.419   6.003  2.0068  0.1948  0.0691
17436TIP3    H273800   1.118   3.421   6.133  0.7565  0.2316 -0.6870
17437TIP3   OH273801   5.465   2.783  11.838 -0.1047 -0.2760 -0.7193
17437TIP3    H173802   5.539   2.799  11.779  0.4644  2.0952  0.5734
17437TIP3    H273803   5.479   2.843  11.911 -3.1473 -0.0167 -0.2880
17438TIP3   OH273804   0.496   0.582   3.419  0.2275  0.3911  0.0918
17438TIP3    H173805   0.450   0.661   3.392 -1.0040 -0.2926  0.1646
17438TIP3    H273806   0.555   0.611   3.489  0.4466  1.3995 -0.5036
17439TIP3   OH273807   2.612   3.227   1.947  0.5211 -0.2393 -0.0362
17439TIP3    H173808   2.597   3.279   2.026  1.7850 -2.1804  1.5473
17439TIP3    H273809   2.683   3.273   1.901 -1.0463  1.5791 -0.7397
17440TIP3   OH273810   1.608   2.026   0.054 -0.1330  0.0997 -0.8419
17440TIP3    H173811   1.612   2.121   0.040  0.6059 -0.0747 -1.8812
17440TIP3    H273812   1.662   2.011   0.131  1.0715  0.3428 -1.6344
17441TIP3   OH273813   0.901   4.815   5.788  0.5609 -0.0478 -0.0334
17441TIP3    H173814   0.946   4.811   5.872  1.8481  1.1702 -0.6459
17441TIP3    H273815   0.963   4.777   5.725  0.9273  1.9599 -0.9373
17442TIP3   OH273816   0.200   6.138  15.250  0.3027  0.0718 -0.7458
17442TIP3    H173817   0.144   6.075  15.205  0.0702 -0.7132  0.6076
17442TIP3    H273818   0.264   6.166  15.185 -0.3133 -0.6910 -1.6767
17443TIP3   OH273819   5.383   0.949  17.219  0.4495 -0.3398  0.2650
17443TIP3    H173820   5.371   0.859  17.249  0.4988  0.1577  1.8139
17443TIP3    H273821   5.301   0.970  17.174  0.3544 -1.0822  0.0896
17444TIP3   OH273822   4.937   2.470  10.764  0.3674  0.4501  0.0427
17444TIP3    H173823   4.844   2.461  10.746  0.7617 -2.4095 -0.8406
17444TIP3    H273824   4.944   2.467  10.859 -0.2751 -1.7821  0.0481
17445TIP3   OH273825   3.735   1.378   0.397  0.4179 -0.3114 -0.1419
17445TIP3    H173826   3.787   1.307   0.434  0.4999 -0.2806 -0.1973
17445TIP3    H273827   3.679   1.407   0.469  0.6197 -0.2129 -0.0258
17446TIP3   OH273828   1.571   2.033   2.011 -0.2004 -0.5210  0.0087
17446TIP3    H173829   1.511   2.000   1.944 -0.6225  0.4632 -0.1083
17446TIP3    H273830   1.543   2.124   2.026  1.3995  0.0180 -0.2020
17447TIP3   OH273831   2.615   1.238  17.185 -0.2348 -0.5580  0.6040
17447TIP3    H173832   2.562   1.220  17.262 -1.1136 -2.0604 -0.3510
17447TIP3    H273833   2.627   1.333  17.186 -0.7177 -0.5110  2.2733
17448TIP3   OH273834   3.322   5.621   2.635  0.7499  0.1234  0.3589
17448TIP3    H173835   3.304   5.710   2.662  1.1215  0.2481  0.2096
17448TIP3    H273836   3.284   5.614   2.547 -1.5426 -0.6613  1.3825
17449TIP3   OH273837   2.594   0.817   5.278  0.2709  0.0023 -0.1867
17449TIP3    H173838   2.606   0.824   5.373 -1.7218 -1.8238  0.2286
17449TIP3    H273839   2.511   0.861   5.260  1.0412  1.0759 -1.2238
17450TIP3   OH273840   5.898   3.404  14.096 -0.0168 -0.4357  0.4173
17450TIP3    H173841   5.911   3.481  14.042 -2.7431 -1.0047 -1.1474
17450TIP3    H273842   5.945   3.334  14.050 -0.2451 -0.3983  0.1285
17451TIP3   OH273843   2.113   6.481  11.799  0.3530  0.3182 -0.1160
17451TIP3    H173844   2.153   6.491  11.712  2.5779  0.5207  0.8887
17451TIP3    H273845   2.043   6.417  11.786  1.7321 -0.9084 -1.7567
17452TIP3   OH273846   5.741   0.495   4.074 -0.1754  0.4700 -0.5176
17452TIP3    H173847   5.729   0.433   4.002  0.2166 -1.6847  1.2332
17452TIP3    H273848   5.814   0.460   4.125  0.3911  2.6452  0.2473
17453TIP3   OH273849   2.209   6.810   4.738 -0.2153  0.4152 -0.6676
17453TIP3    H173850   2.273   6.743   4.713  0.1356  0.6816 -0.4812
17453TIP3    H273851   2.127   6.781   4.697  0.0771  0.1963 -1.0985
17454TIP3   OH273852   0.622   5.030  16.318  0.1978  0.3508  0.2594
17454TIP3    H173853   0.569   5.089  16.372  0.4604  1.9099 -1.1385
17454TIP3    H273854   0.710   5.068  16.321 -0.0530  1.2311 -2.2981
17455TIP3   OH273855   3.891   3.676  12.643 -0.2817 -0.5937  0.3276
17455TIP3    H173856   3.985   3.678  12.657 -0.3765 -2.6489  1.5043
17455TIP3    H273857   3.880   3.639  12.555  0.0398  2.4068 -1.0416
17456TIP3   OH273858   3.624   6.540   1.550 -0.5136  0.4439 -0.0435
17456TIP3    H173859   3.580   6.464   1.511  1.6068 -0.5065 -0.6237
17456TIP3    H273860   3.596   6.540   1.641 -0.1627 -1.2951  0.0690
17457TIP3   OH273861   1.211   5.008   1.882  0.2655 -0.2152 -0.0302
17457TIP3    H173862   1.190   4.915   1.881  1.8948 -0.5937 -0.1623
17457TIP3    H273863   1.130   5.051   1.857 -0.8260 -1.5345  1.1655
17458TIP3   OH273864   5.862   0.806  15.409 -0.2495  0.3261 -0.4615
17458TIP3    H173865   5.780   0.809  15.458 -0.5792 -1.5101 -0.8342
17458TIP3    H273866   5.906   0.727  15.441  1.0147  0.8717 -0.8229
17459TIP3   OH273867   1.561   0.189  16.668 -0.0851  0.4843 -0.2782
17459TIP3    H173868   1.533   0.134  16.594 -0.5682 -0.5351  0.6578
17459TIP3    H273869   1.641   0.147  16.700 -0.1396  0.6496  0.0746
17460TIP3   OH273870   0.434   2.777   4.841 -0.2497 -0.0378 -0.2228
17460TIP3    H173871   0.482   2.762   4.922 -1.7800 -0.7395  0.5606
17460TIP3    H273872   0.402   2.691   4.815 -2.3800  0.6318  0.0949
17461TIP3   OH273873   3.966   0.118   1.556 -0.9386  0.2110 -0.3010
17461TIP3    H173874   3.943   0.171   1.480 -1.1469 -0.7612 -0.9191
17461TIP3    H273875   3.949   0.028   1.529  2.5646 -0.4634 -0.3974
17462TIP3   OH273876   3.909   0.168   6.514 -0.0485 -0.0835  0.4135
17462TIP3    H173877   3.894   0.213   6.597 -0.9762  0.9489 -0.3118
17462TIP3    H273878   3.824   0.131   6.491 -0.1550  0.9543 -0.8569
17463TIP3   OH273879   0.673   5.412   1.056 -0.0284  0.4626  0.0278
17463TIP3    H173880   0.721   5.436   0.977 -0.1857  1.2776  0.1721
17463TIP3    H273881   0.589   5.378   1.024  0.5484 -0.7593 -0.2124
17464TIP3   OH273882   3.671   1.270  11.729  0.4049  0.5117  0.0478
17464TIP3    H173883   3.603   1.336  11.741  1.7750  1.6704  1.8633
17464TIP3    H273884   3.636   1.191  11.771  0.5276  1.3792  1.8649
17465TIP3   OH273885   3.025   2.231   1.696  0.2290 -0.0484  0.1308
17465TIP3    H173886   2.984   2.150   1.727 -1.5111  0.6229 -0.3826
17465TIP3    H273887   3.071   2.266   1.773 -0.6196 -0.5292  0.8589
17466TIP3   OH273888   1.040   2.269   3.595 -0.8136 -0.0939 -0.2110
17466TIP3    H173889   1.101   2.253   3.523 -0.5318 -0.8008  0.1788
17466TIP3    H273890   1.095   2.302   3.666 -0.9828 -0.0905 -0.0811
17467TIP3   OH273891   1.595   3.440  15.366 -0.0109  0.1544  0.2965
17467TIP3    H173892   1.651   3.474  15.296 -1.7858  1.8693 -0.3293
17467TIP3    H273893   1.560   3.518  15.408 -2.6539 -0.8725  0.0923
17468TIP3   OH273894   3.579   4.760  17.039 -0.1116  0.0005  0.2968
17468TIP3    H173895   3.610   4.779  16.950  0.0593 -0.7609  0.1942
17468TIP3    H273896   3.523   4.834  17.061 -0.1471  0.1990 -0.4462
17469TIP3   OH273897   5.094   0.456  12.748 -0.5801  0.4504  0.2308
17469TIP3    H173898   5.116   0.445  12.840  0.9055  0.3346 -0.1281
17469TIP3    H273899   5.028   0.525  12.748 -0.1601  0.8729  1.3400
17470TIP3   OH273900   1.171   2.375   0.511 -0.3853  0.5029 -0.0993
17470TIP3    H173901   1.240   2.384   0.445  0.8897 -0.4360  1.0713
17470TIP3    H273902   1.092   2.355   0.460  0.3918  0.6167 -1.3902
17471TIP3   OH273903   6.044   4.965   0.938  0.0862  0.2852  0.0316
17471TIP3    H173904   6.009   4.876   0.927  1.0290 -0.3387  1.9161
17471TIP3    H273905   5.991   5.003   1.008  1.2578  0.3531  0.8861
17472TIP3   OH273906   1.622   3.487  12.241  0.6240 -0.1628 -0.2600
17472TIP3    H173907   1.709   3.518  12.216  0.3395  0.3496 -0.6294
17472TIP3    H273908   1.561   3.538  12.187 -0.0066  0.9948  1.4704
17473TIP3   OH273909   5.976   4.660   2.029  0.1153  0.2528  0.3774
17473TIP3    H173910   5.961   4.726   1.960 -0.1281  0.0892  0.2731
17473TIP3    H273911   5.898   4.665   2.084  0.3651  0.4685  0.7125
17474TIP3   OH273912   5.861   3.728  15.256  0.6117 -0.1782 -0.1681
17474TIP3    H173913   5.880   3.650  15.205 -0.4056  0.6030 -1.7890
17474TIP3    H273914   5.859   3.799  15.192  1.0101  1.1032  1.2000
17475TIP3   OH273915   4.835   4.960   0.880  0.4116 -0.0282 -0.0958
17475TIP3    H173916   4.865   5.051   0.882 -0.4478  0.2811 -0.9010
17475TIP3    H273917   4.910   4.909   0.911  1.0937  0.8980 -0.2007
17476TIP3   OH273918   6.420   2.358  16.411 -0.0818  0.1677  0.4463
17476TIP3    H173919   6.406   2.266  16.434 -3.2854  0.1365 -1.4844
17476TIP3    H273920   6.357   2.406  16.464  1.0525  1.2281  0.8742
17477TIP3   OH273921   1.047   2.925  13.341  0.1501  0.0305 -0.8464
17477TIP3    H173922   1.014   2.917  13.430  2.2404 -1.4061 -0.1668
17477TIP3    H273923   1.025   2.841  13.300  2.6255 -0.8398 -0.4656
17478TIP3   OH273924   5.392   4.836  10.684 -1.2116 -0.5254  0.0406
17478TIP3    H173925   5.345   4.758  10.654 -2.5643 -0.8872  2.9037
17478TIP3    H273926   5.477   4.804  10.712  0.2227 -0.1294 -3.5355
17479TIP3   OH273927   0.564   5.202  13.202  0.6932  0.1438 -0.1185
17479TIP3    H173928   0.603   5.139  13.263  1.4318 -1.0519 -1.7772
17479TIP3    H273929   0.636   5.227  13.144 -0.2661  0.3160 -1.2604
17480TIP3   OH273930   2.707   4.372   4.113 -0.7301  0.4856  0.3967
17480TIP3    H173931   2.694   4.295   4.059  0.4111  0.1353  0.6020
17480TIP3    H273932   2.769   4.426   4.063  0.6498 -0.0308  1.5410
17481TIP3   OH273933   1.189   4.523  12.494 -0.3667 -0.1684  0.3539
17481TIP3    H173934   1.171   4.615  12.473 -1.3260 -0.4831 -0.2403
17481TIP3    H273935   1.259   4.526  12.559 -1.3319  1.0421  1.3647
17482TIP3   OH273936   1.533   5.152   5.513 -0.0639 -0.2135 -0.2527
17482TIP3    H173937   1.510   5.111   5.430 -1.8463  3.7137 -1.7840
17482TIP3    H273938   1.618   5.115   5.535  0.0852 -1.8896 -3.4251
17483TIP3   OH273939   2.841   6.460   1.638 -0.1178  0.4464 -0.4409
17483TIP3    H173940   2.789   6.427   1.711 -1.7149  0.6679 -1.4564
17483TIP3    H273941   2.877   6.543   1.669  1.1548 -0.5874  0.9163
17484TIP3   OH273942   2.852   1.388   1.045 -0.3029 -0.0147 -0.2877
17484TIP3    H173943   2.824   1.340   1.123 -0.6830  0.6945  0.0162
17484TIP3    H273944   2.948   1.380   1.045 -0.1968  1.1279  1.0033
17485TIP3   OH273945   4.385   2.581   1.110  0.0788  0.0251 -0.5826
17485TIP3    H173946   4.381   2.486   1.100  2.8399 -0.2811  0.7635
17485TIP3    H273947   4.376   2.614   1.021  1.2120 -1.6028 -1.3301
17486TIP3   OH273948   2.551   2.847  16.621  0.6485  0.2241  0.0173
17486TIP3    H173949   2.644   2.825  16.610  0.9178  0.4451  1.7885
17486TIP3    H273950   2.516   2.845  16.532  1.6783 -2.8824 -0.3755
17487TIP3   OH273951   5.211   1.442  12.114 -0.5102  0.5387  0.3536
17487TIP3    H173952   5.258   1.372  12.070  1.1084  2.5701 -1.2668
17487TIP3    H273953   5.133   1.456  12.061  0.1954  1.2913 -0.5281
17488TIP3   OH273954   3.207   0.135  12.107  0.4318 -0.5970  0.0260
17488TIP3    H173955   3.270   0.175  12.167  1.1466 -1.7870  0.0721
17488TIP3    H273956   3.200   0.044  12.136  0.3223 -1.0179 -1.3108
17489TIP3   OH273957   1.134   3.181  11.796  0.1288 -0.3630 -0.7566
17489TIP3    H173958   1.135   3.276  11.804  1.2589 -0.6080  3.0015
17489TIP3    H273959   1.042   3.158  11.805  0.0508  0.2786  0.1874
17490TIP3   OH273960   2.614   5.074   3.882  0.1758  0.2567 -0.2047
17490TIP3    H173961   2.652   5.048   3.966  1.0130  2.8474  0.2634
17490TIP3    H273962   2.650   5.161   3.865 -0.9502  0.2929 -2.6636
17491TIP3   OH273963   6.314   6.276  16.902 -0.7589 -0.1305  0.5294
17491TIP3    H173964   6.251   6.348  16.896  2.0640  2.2551 -3.5135
17491TIP3    H273965   6.274   6.205  16.850 -1.0850  0.6179 -0.2599
17492TIP3   OH273966   3.833   2.759  10.980  0.3878 -0.2386  0.5928
17492TIP3    H173967   3.775   2.714  11.042 -0.4712  0.4230  0.2810
17492TIP3    H273968   3.827   2.707  10.900  0.4833 -0.3562  0.6630
17493TIP3   OH273969   1.484   6.064   3.543  0.1177  0.1249  0.0206
17493TIP3    H173970   1.512   6.021   3.624  1.3705 -1.2782 -1.1387
17493TIP3    H273971   1.528   6.149   3.544  1.1325 -0.4017  0.1997
17494TIP3   OH273972   0.120   4.585   3.778  0.5808 -0.1509  0.4674
17494TIP3    H173973   0.170   4.646   3.724 -0.2125  0.1071  0.0289
17494TIP3    H273974   0.186   4.523   3.810  1.3907  0.9012  0.8952
17495TIP3   OH273975   6.204   5.719  14.825 -0.3796 -0.2940  0.3359
17495TIP3    H173976   6.126   5.728  14.880 -0.1881 -1.2434  0.7694
17495TIP3    H273977   6.254   5.799  14.840 -2.8611  1.9646 -2.5021
17496TIP3   OH273978   3.108   6.517  12.512 -0.5998  0.8059 -0.0812
17496TIP3    H173979   3.081   6.431  12.543 -0.9968  0.7375 -0.6207
17496TIP3    H273980   3.099   6.513  12.417  4.2352 -0.2345 -0.6047
17497TIP3   OH273981   2.783   5.514   5.349  0.6074  0.1289  0.2269
17497TIP3    H173982   2.826   5.508   5.264 -1.3484  0.0673 -0.7922
17497TIP3    H273983   2.725   5.589   5.342 -1.3921 -1.3212  0.6197
17498TIP3   OH273984   4.750   4.549   5.281  0.6807 -0.1988 -0.3134
17498TIP3    H173985   4.673   4.582   5.327  0.0820 -0.7443 -0.9059
17498TIP3    H273986   4.809   4.519   5.350 -0.2368 -1.0615  0.1051
17499TIP3   OH273987   4.881   2.690  16.048  0.4801 -0.1301  0.4495
17499TIP3    H173988   4.910   2.719  16.134 -0.1051  0.0919  0.5734
17499TIP3    H273989   4.949   2.720  15.988 -0.7333  2.6678  0.4018
17500TIP3   OH273990   2.066   4.859   2.765  0.1664 -0.4548 -0.0151
17500TIP3    H173991   2.064   4.949   2.798 -0.6418  0.1163 -1.5370
17500TIP3    H273992   2.103   4.807   2.836  0.6602  1.0909  0.8678
17501TIP3   OH273993   2.052   0.607  12.506 -0.2384 -0.2006  0.0341
17501TIP3    H173994   2.016   0.662  12.436 -1.0079 -1.6266 -0.7159
17501TIP3    H273995   2.089   0.531  12.461 -0.0603 -0.7746  1.1158
17502TIP3   OH273996   3.980   3.810   5.363  0.2735 -0.0994  0.0754
17502TIP3    H173997   3.930   3.778   5.437  0.4261  0.2882  0.3467
17502TIP3    H273998   4.072   3.798   5.389  0.3583  1.8361  0.7562
17503TIP3   OH273999   6.301   2.504   4.105 -0.2902 -0.0230  0.0674
17503TIP3    H174000   6.207   2.491   4.089 -0.0705 -1.9970  0.2607
17503TIP3    H274001   6.341   2.497   4.018 -0.1310 -1.1615  0.2181
17504TIP3   OH274002   3.827   6.746   5.927 -0.0350  0.6048 -0.1141
17504TIP3    H174003   3.880   6.690   5.869 -0.1186  1.1857 -0.7547
17504TIP3    H274004   3.757   6.689   5.957  0.5848  0.0093  0.2293
17505TIP3   OH274005   0.311   2.318   0.906  0.3425  0.1253 -0.3472
17505TIP3    H174006   0.239   2.379   0.921 -0.0001 -0.1430 -0.9118
17505TIP3    H274007   0.346   2.301   0.994 -0.1779  0.3758 -0.0889
17506TIP3   OH274008   1.526   5.748  12.808 -0.6240 -0.0113  0.3432
17506TIP3    H174009   1.595   5.785  12.863 -0.0309  1.1305 -1.1013
17506TIP3    H274010   1.570   5.727  12.726 -1.5684 -1.3016  0.1520
17507TIP3   OH274011   3.436   0.268  16.962  0.0324  0.1285  0.1473
17507TIP3    H174012   3.440   0.191  16.905  0.3748 -0.3785  0.8513
17507TIP3    H274013   3.417   0.232  17.049 -1.2215  0.9531  0.2269
17508TIP3   OH274014   5.593   5.396  16.184 -0.3162  0.1740 -0.4165
17508TIP3    H174015   5.614   5.378  16.276  1.3605  1.4656 -0.5148
17508TIP3    H274016   5.534   5.471  16.188 -0.2577  0.2183 -0.3969
17509TIP3   OH274017   3.252   2.442   2.802 -0.0193 -0.5270  0.2960
17509TIP3    H174018   3.344   2.438   2.830  0.3366 -0.6907 -0.8610
17509TIP3    H274019   3.203   2.411   2.878  0.8092  0.4852  1.2777
17510TIP3   OH274020   4.175   1.458   5.511 -0.4819 -0.0287  0.2948
17510TIP3    H174021   4.110   1.510   5.465  0.0782 -0.6334 -1.2006
17510TIP3    H274022   4.185   1.501   5.596 -1.4296  1.1643 -0.1979
17511TIP3   OH274023   0.738   6.443  11.350 -0.1980 -0.2520  0.0520
17511TIP3    H174024   0.746   6.378  11.281 -0.5147 -0.6363  0.3743
17511TIP3    H274025   0.812   6.425  11.408 -1.3998 -1.6049  1.1996
17512TIP3   OH274026   3.918   5.007  16.891 -0.5207  0.2448 -0.6303
17512TIP3    H174027   3.867   5.011  16.810 -1.5659 -1.2993 -0.0714
17512TIP3    H274028   3.895   5.087  16.938 -2.0133 -0.1549 -0.6443
17513TIP3   OH274029   6.377   1.843  11.631 -0.1195 -0.5074  0.4666
17513TIP3    H174030   6.468   1.872  11.636 -0.8224  1.7036  0.8147
17513TIP3    H274031   6.344   1.852  11.721 -0.9141 -0.5498  0.1833
17514TIP3   OH274032   0.326   0.050  13.957  0.2956  0.0818 -0.4951
17514TIP3    H174033   0.316   0.046  14.052 -1.9077  2.0050 -0.5946
17514TIP3    H274034   0.275   0.127  13.931  1.8693  0.3093 -3.1136
17515TIP3   OH274035   2.778   1.424   1.458 -0.1774 -0.2928 -0.2555
17515TIP3    H174036   2.864   1.466   1.449 -0.0215 -0.1435  1.6264
17515TIP3    H274037   2.782   1.380   1.543 -1.6170 -1.1337 -0.6040
17516TIP3   OH274038   4.370   6.571   5.172  0.3017  0.0288  0.1818
17516TIP3    H174039   4.376   6.478   5.151  0.1973  0.1436 -0.3811
17516TIP3    H274040   4.299   6.603   5.116 -1.0119  0.0355  1.8432
17517TIP3   OH274041   0.188   0.876  11.622 -0.1225 -0.6989  0.2805
17517TIP3    H174042   0.218   0.967  11.623 -0.2740 -0.6294  3.3712
17517TIP3    H274043   0.093   0.882  11.609 -0.2252 -0.3690  1.1573
17518TIP3   OH274044   4.031   6.145   1.047  0.3125 -0.2736  0.6701
17518TIP3    H174045   3.995   6.060   1.024  0.4620 -0.1088 -0.1800
17518TIP3    H274046   3.993   6.206   0.984  2.3606 -0.1665 -0.5177
17519TIP3   OH274047   0.300   2.661   4.050 -0.8326 -0.1004 -0.1784
17519TIP3    H174048   0.235   2.693   3.987  0.9076  0.5431 -1.7146
17519TIP3    H274049   0.286   2.715   4.128 -2.0276  0.1396 -0.5451
17520TIP3   OH274050   6.359   4.611   0.913 -0.0659  0.0675  0.0614
17520TIP3    H174051   6.322   4.686   0.959  1.7596 -0.0081  1.7013
17520TIP3    H274052   6.338   4.536   0.968 -1.8837 -0.6816 -1.5672
17521TIP3   OH274053   2.783   1.570  14.964  0.0109 -0.3481  0.4039
17521TIP3    H174054   2.705   1.580  15.018 -0.9383  2.8870 -1.4141
17521TIP3    H274055   2.752   1.583  14.874  2.0686 -2.5021 -0.6725
17522TIP3   OH274056   0.549   1.513  14.814 -0.2088 -0.6164  0.1666
17522TIP3    H174057   0.461   1.551  14.812 -0.6946 -1.6073  1.9311
17522TIP3    H274058   0.544   1.437  14.757  0.0709  0.4603 -1.3291
17523TIP3   OH274059   0.287   1.945  17.169 -0.0813  0.0075  0.1626
17523TIP3    H174060   0.196   1.924  17.190 -0.4911  1.3382 -0.1747
17523TIP3    H274061   0.286   1.964  17.075  0.6589 -0.5344  0.0455
17524TIP3   OH274062   3.308   1.930   1.608  0.9306 -0.0514  0.5810
17524TIP3    H174063   3.216   1.912   1.589  0.5921  2.1466 -0.0793
17524TIP3    H274064   3.341   1.851   1.650 -0.9427 -1.3145 -0.2891
17525TIP3   OH274065   0.698   6.084   5.468 -0.5687 -0.6888 -0.0591
17525TIP3    H174066   0.775   6.121   5.510 -0.9284 -1.0142  0.9123
17525TIP3    H274067   0.654   6.158   5.427 -1.3216 -0.0113  1.9209
17526TIP3   OH274068   5.316   5.323  17.119  0.0307 -0.0352 -0.1854
17526TIP3    H174069   5.301   5.384  17.191 -1.0747 -0.5605  0.0309
17526TIP3    H274070   5.399   5.352  17.080  0.1217  0.8620  0.6637
17527TIP3   OH274071   0.439   2.594  12.116 -0.9578 -0.1580  0.5540
17527TIP3    H174072   0.418   2.579  12.024 -0.6888  0.4661  0.3847
17527TIP3    H274073   0.518   2.542  12.131  0.6014  1.8769 -0.3177
17528TIP3   OH274074   1.094   0.653   1.117 -0.3410  0.2538  0.7777
17528TIP3    H174075   1.083   0.558   1.122 -0.1105 -0.0382 -2.9222
17528TIP3    H274076   1.187   0.665   1.096  0.1352  1.4402  3.3844
17529TIP3   OH274077   5.642   6.678   2.946 -0.2552  0.1115  0.0393
17529TIP3    H174078   5.636   6.719   2.860 -1.4236  1.7294  0.8748
17529TIP3    H274079   5.571   6.718   2.997  2.1426  1.2318  2.6126
17530TIP3   OH274080   4.655   5.196  11.411  0.0933 -0.8479 -0.2987
17530TIP3    H174081   4.672   5.103  11.397 -0.6045 -0.8892 -0.8984
17530TIP3    H274082   4.611   5.200  11.496 -0.2586 -1.1041 -0.4715
17531TIP3   OH274083   6.499   2.096   0.164 -0.1665  0.0040  0.0112
17531TIP3    H174084   6.534   2.181   0.137 -1.6087  0.8476  0.7545
17531TIP3    H274085   6.549   2.073   0.242 -0.4872  0.6584  0.4096
17532TIP3   OH274086   6.503   1.272   3.475 -0.0548 -0.7048 -0.0055
17532TIP3    H174087   6.442   1.210   3.515 -0.7753  0.2081  0.3253
17532TIP3    H274088   6.565   1.293   3.544  1.3802 -2.5584 -0.6896
17533TIP3   OH274089   4.051   6.632  12.545 -0.2567  0.5652 -0.0768
17533TIP3    H174090   4.132   6.597  12.583 -1.3166 -0.4805  1.2494
17533TIP3    H274091   4.077   6.663  12.458  1.3413 -0.7234 -0.0734
17534TIP3   OH274092   4.096   5.238  14.145 -0.6440 -0.1568  0.5001
17534TIP3    H174093   4.055   5.214  14.228  0.1670  0.6579  1.1485
17534TIP3    H274094   4.190   5.233  14.162 -0.4460 -1.5600 -0.8383
17535TIP3   OH274095   4.504   6.257   1.605  0.2548  0.2249  0.2046
17535TIP3    H174096   4.468   6.170   1.623  1.2966  0.0535  1.5100
17535TIP3    H274097   4.448   6.291   1.535  0.3615 -1.8251 -0.9340
17536TIP3   OH274098   4.765   5.346  11.722 -0.7328  0.0120 -0.6319
17536TIP3    H174099   4.790   5.420  11.666 -3.5309  0.7593 -0.9465
17536TIP3    H274100   4.816   5.359  11.802 -0.0640  1.4469 -1.2579
17537TIP3   OH274101   0.416   4.455   4.628  0.2892 -0.3110 -0.6353
17537TIP3    H174102   0.509   4.436   4.616  0.8837  1.2619  1.1533
17537TIP3    H274103   0.376   4.370   4.646  1.7026 -0.7501  0.4958
17538TIP3   OH274104   4.650   6.483  16.951 -0.5767  0.1753 -0.0182
17538TIP3    H174105   4.685   6.413  16.895  1.5298  1.0123  0.2086
17538TIP3    H274106   4.585   6.439  17.006  0.8082 -1.6443  0.2111
17539TIP3   OH274107   1.346   2.568   2.073 -0.2041 -0.2012 -0.6570
17539TIP3    H174108   1.436   2.563   2.041  0.1201  1.2425  0.0237
17539TIP3    H274109   1.348   2.635   2.141 -1.3632 -1.6513  0.8244
17540TIP3   OH274110   1.800   0.987  11.493  0.1629 -0.1347 -0.4483
17540TIP3    H174111   1.812   0.900  11.454  2.1880  0.0316 -0.2321
17540TIP3    H274112   1.888   1.013  11.522 -0.8565  0.8386  1.9126
17541TIP3   OH274113   0.391   0.326  14.043  0.0815 -0.7983  0.4196
17541TIP3    H174114   0.408   0.395  14.107  1.6385  0.3041 -1.1283
17541TIP3    H274115   0.449   0.255  14.069  1.6624  0.1331 -0.4850
17542TIP3   OH274116   2.965   5.892  12.827 -0.1242  0.0844 -0.5797
17542TIP3    H174117   2.879   5.866  12.860  0.1036  0.1255  0.0590
17542TIP3    H274118   3.027   5.855  12.889  0.3568 -0.4824 -1.3952
17543TIP3   OH274119   4.880   5.482  11.919 -0.1005  0.2435  0.2114
17543TIP3    H174120   4.866   5.577  11.915  0.9465  0.4076  0.3827
17543TIP3    H274121   4.971   5.472  11.946 -0.4398 -0.8167  1.0005
17544TIP3   OH274122   4.244   5.847  15.634  0.0698  0.8735  0.0815
17544TIP3    H174123   4.336   5.871  15.623 -0.3419  2.7238  0.3967
17544TIP3    H274124   4.199   5.931  15.642 -1.6015 -0.0258  0.2884
17545TIP3   OH274125   0.690   3.336   3.747 -0.1337  0.3613 -0.3308
17545TIP3    H174126   0.765   3.278   3.737  0.3571  1.0288 -0.5762
17545TIP3    H274127   0.621   3.295   3.695 -0.3764 -0.9885  1.0265
17546TIP3   OH274128   3.434   1.669  13.372  0.0628 -0.3867 -0.2754
17546TIP3    H174129   3.473   1.693  13.288 -1.1710  0.3905 -0.6307
17546TIP3    H274130   3.370   1.738  13.390 -0.4651 -1.1346  0.7704
17547TIP3   OH274131   0.725   1.547  14.568  0.1779 -0.4691 -0.1638
17547TIP3    H174132   0.673   1.567  14.490  0.9529 -0.5638 -0.7075
17547TIP3    H274133   0.671   1.577  14.641 -0.8024 -0.9044 -0.7032
17548TIP3   OH274134   1.899   4.817   4.895 -0.8333  0.7330 -0.2245
17548TIP3    H174135   1.805   4.798   4.888 -0.6757  0.3709 -1.5861
17548TIP3    H274136   1.941   4.730   4.894 -0.4257  0.9340 -0.7319
17549TIP3   OH274137   2.044   0.670   3.285  0.0121 -0.6574 -0.4077
17549TIP3    H174138   1.990   0.602   3.326  2.6759 -2.4368  0.2735
17549TIP3    H274139   2.026   0.662   3.192  1.5120 -3.4364 -0.4921
17550TIP3   OH274140   4.280   4.606  16.536 -0.1001  0.1001 -0.0108
17550TIP3    H174141   4.304   4.614  16.444  0.7361 -0.8819  0.1151
17550TIP3    H274142   4.205   4.664  16.546 -1.5835 -1.4389 -1.8156
17551TIP3   OH274143   2.070   2.860  12.751 -0.7794 -0.0964 -0.1908
17551TIP3    H174144   2.108   2.934  12.704 -1.7910 -0.3386 -1.4146
17551TIP3    H274145   2.138   2.793  12.748 -1.0610 -0.3253 -1.8718
17552TIP3   OH274146   5.057   2.262  11.772  0.3311  0.2423  0.1097
17552TIP3    H174147   5.038   2.219  11.855  1.3863  0.0240  0.2515
17552TIP3    H274148   4.995   2.335  11.768 -0.7595 -0.6545  0.3572
17553TIP3   OH274149   4.180   4.177  12.914 -0.0476 -0.1482 -0.9337
17553TIP3    H174150   4.120   4.216  12.851 -1.5107 -2.3258 -0.9250
17553TIP3    H274151   4.243   4.129  12.860  0.0301 -0.1616 -0.8304
17554TIP3   OH274152   0.513   4.772   5.542 -0.2255  0.4115 -0.0986
17554TIP3    H174153   0.425   4.782   5.508 -0.0760 -2.0827 -1.3396
17554TIP3    H274154   0.518   4.681   5.571  1.9636  0.4629 -0.1878
17555TIP3   OH274155   1.776   0.889  16.511 -0.4318  0.8623  0.2510
17555TIP3    H174156   1.721   0.967  16.507 -0.3400  0.9058 -0.2169
17555TIP3    H274157   1.782   0.868  16.604  0.9355  2.4231  0.5371
17556TIP3   OH274158   2.686   3.013   1.747 -0.1744 -0.9079  0.4261
17556TIP3    H174159   2.680   2.918   1.734  0.2778 -0.6184 -2.1637
17556TIP3    H274160   2.616   3.049   1.693 -0.0246  0.2767  0.9997
17557TIP3   OH274161   1.793   4.024   4.799  0.0101 -0.3874  0.1566
17557TIP3    H174162   1.740   3.985   4.730 -1.2575 -0.5986  1.2184
17557TIP3    H274163   1.883   4.001   4.777 -0.4714 -1.3754 -0.8192
17558TIP3   OH274164   3.324   1.754   4.808 -0.2192 -0.6624  0.1375
17558TIP3    H174165   3.290   1.765   4.719  0.4384  0.2882 -0.0135
17558TIP3    H274166   3.353   1.842   4.833 -1.4930 -0.6771  1.7529
17559TIP3   OH274167   5.545   2.979   2.536  0.1499  0.2802  0.3004
17559TIP3    H174168   5.513   2.982   2.626 -0.6512  0.3035  0.0179
17559TIP3    H274169   5.536   2.888   2.510 -0.2064  0.3915  0.0321
17560TIP3   OH274170   4.892   4.312   1.960 -0.1398  0.3916 -0.1951
17560TIP3    H174171   4.825   4.356   2.012 -0.0902  1.7086 -1.2250
17560TIP3    H274172   4.922   4.240   2.016 -0.6539  1.2941  1.2662
17561TIP3   OH274173   5.783   4.355  17.174  0.1597 -0.0570 -1.1927
17561TIP3    H174174   5.765   4.357  17.080 -1.3475 -1.5419 -0.9611
17561TIP3    H274175   5.872   4.320  17.180 -0.0993 -0.8810 -2.0325
17562TIP3   OH274176   6.762   1.271  13.597 -0.4073 -0.2013 -0.2615
17562TIP3    H174177   6.753   1.367  13.595 -2.0249 -0.2693  1.6394
17562TIP3    H274178   6.802   1.253  13.682 -2.0530 -1.3250  0.2879
17563TIP3   OH274179   4.193   2.327   4.275 -0.1696  0.1813 -0.2198
17563TIP3    H174180   4.187   2.241   4.318 -1.6477  0.5806  0.3832
17563TIP3    H274181   4.210   2.307   4.183  0.7346 -0.7314  0.1353
17564TIP3   OH274182   6.618   4.145   3.602  0.1687 -0.0072  0.4186
17564TIP3    H174183   6.710   4.166   3.589  0.2243 -0.2452  0.4351
17564TIP3    H274184   6.595   4.089   3.528 -0.4662  1.6160 -0.6322
17565TIP3   OH274185   2.182   5.206  10.378 -0.1600  0.0465  0.8246
17565TIP3    H174186   2.099   5.175  10.341  0.1858 -1.2704  1.1330
17565TIP3    H274187   2.248   5.146  10.342  1.1343  3.0095 -2.0014
17566TIP3   OH274188   2.401   1.508  15.443  0.0187 -0.3929 -0.1160
17566TIP3    H174189   2.329   1.529  15.384  0.8837 -0.0555 -1.0755
17566TIP3    H274190   2.359   1.473  15.522 -1.1589 -0.8386 -0.9247
17567TIP3   OH274191   1.220   6.333   0.126 -0.1216  0.2838 -0.5367
17567TIP3    H174192   1.180   6.417   0.104  1.5550  1.0329 -0.7812
17567TIP3    H274193   1.230   6.335   0.221  1.0335  0.8908 -0.6595
17568TIP3   OH274194   3.171   5.958  13.075 -0.4994  0.4993  0.6620
17568TIP3    H174195   3.173   5.864  13.059 -0.7633  0.5841  0.1157
17568TIP3    H274196   3.095   5.972  13.131 -0.7360  0.4464  0.3517
17569TIP3   OH274197   3.434   5.353  12.017 -0.3971  0.3986 -0.1535
17569TIP3    H174198   3.434   5.322  12.107  0.1430  0.8344 -0.0034
17569TIP3    H274199   3.355   5.407  12.010  0.4939  1.8095  0.5547
17570TIP3   OH274200   3.510   5.509  13.246  0.9419  0.2005 -0.6377
17570TIP3    H174201   3.514   5.440  13.311 -0.8896 -0.7024 -1.4389
17570TIP3    H274202   3.565   5.478  13.174  0.3244 -0.3226 -0.8903
17571TIP3   OH274203   2.738   5.906   1.049  0.7285  0.4131 -0.0405
17571TIP3    H174204   2.653   5.866   1.033  0.9681  0.4873 -1.6302
17571TIP3    H274205   2.795   5.834   1.076  1.1004 -0.3374 -2.6559
17572TIP3   OH274206   6.194   0.867  16.740 -0.7101 -0.2634  0.2427
17572TIP3    H174207   6.141   0.789  16.754  1.2945 -1.4696  1.4215
17572TIP3    H274208   6.251   0.844  16.667  0.4992 -0.2796  1.1614
17573TIP3   OH274209   0.840   1.394   5.834 -0.2690  0.0691 -0.0027
17573TIP3    H174210   0.924   1.439   5.849  0.3628 -0.6979 -1.0954
17573TIP3    H274211   0.775   1.450   5.876  0.8094  0.6015  1.0015
17574TIP3   OH274212   2.179   6.795   3.237 -0.0443  0.3937 -0.1912
17574TIP3    H174213   2.199   6.739   3.312  1.0576  0.6915 -0.2505
17574TIP3    H274214   2.102   6.756   3.197 -1.4359  0.9504  1.8609
17575TIP3   OH274215   2.034   3.572  13.341 -0.5658 -0.1038  0.5682
17575TIP3    H174216   2.064   3.659  13.316 -2.0099 -0.4657 -2.7464
17575TIP3    H274217   2.027   3.575  13.436 -0.8609  3.4928  0.4958
17576TIP3   OH274218   5.583   4.089   6.323  0.0464 -0.5521 -0.0089
17576TIP3    H174219   5.676   4.103   6.341 -0.2361  0.1133  0.9288
17576TIP3    H274220   5.565   4.145   6.247  0.7089 -1.6876 -1.0360
17577TIP3   OH274221   4.965   1.635   4.623  0.5312 -0.3627  0.2785
17577TIP3    H174222   4.936   1.721   4.654  0.5782  0.1262 -0.9990
17577TIP3    H274223   5.032   1.655   4.557 -1.4298 -1.2805 -2.0584
17578TIP3   OH274224   2.955   4.835   0.305 -0.0815 -0.0655  0.0447
17578TIP3    H174225   3.048   4.825   0.283  0.1452 -0.9393  1.3297
17578TIP3    H274226   2.928   4.914   0.259  0.7066 -1.0791 -2.2274
17579TIP3   OH274227   6.818   4.175  12.664 -0.0864 -0.3465  0.0340
17579TIP3    H174228   6.854   4.122  12.735  2.3102  0.9929 -0.1445
17579TIP3    H274229   6.783   4.253  12.707 -1.8745 -1.1478  0.0869
17580TIP3   OH274230   2.814   4.411  12.278  0.3058 -0.3472 -0.1948
17580TIP3    H174231   2.768   4.351  12.219 -1.4804  0.9604 -0.1773
17580TIP3    H274232   2.900   4.422  12.238  0.2972 -2.1087 -0.7490
17581TIP3   OH274233   2.246   3.221   3.619  0.2955  0.1262 -0.1228
17581TIP3    H174234   2.256   3.308   3.581 -0.4383 -0.0107 -0.6507
17581TIP3    H274235   2.248   3.161   3.544  1.0441 -0.3367  0.2577
17582TIP3   OH274236   4.887   4.757  13.395 -0.1267 -0.4843 -0.3361
17582TIP3    H174237   4.980   4.744  13.378 -0.1249 -1.0990  0.1140
17582TIP3    H274238   4.842   4.704  13.329 -0.1523 -0.3992 -0.3861
17583TIP3   OH274239   1.896   3.548   5.370 -0.1155  0.3157 -0.1879
17583TIP3    H174240   1.917   3.518   5.282  1.6619 -0.5928  0.5205
17583TIP3    H274241   1.835   3.482   5.404  1.1764 -0.7341  0.1512
17584TIP3   OH274242   0.093   3.219  10.864  0.2260 -0.4252 -1.0545
17584TIP3    H174243   0.185   3.201  10.884 -0.1178 -0.6856  0.3498
17584TIP3    H274244   0.095   3.261  10.778  1.9611  2.3057  0.2410
17585TIP3   OH274245   1.325   0.303   4.920  0.3047  0.8587 -0.0284
17585TIP3    H174246   1.333   0.278   4.828  0.3394  1.1914 -0.1174
17585TIP3    H274247   1.409   0.346   4.940  0.0491  1.3568 -0.0209
17586TIP3   OH274248   0.017   0.285  12.474  0.0161  0.2857 -0.6891
17586TIP3    H174249   0.086   0.303  12.537  0.0683 -0.6299 -0.4801
17586TIP3    H274250   0.047   0.207  12.427 -1.2568 -0.6035 -0.0396
17587TIP3   OH274251   4.163   1.822   5.359  0.3936  0.2204  0.2235
17587TIP3    H174252   4.168   1.912   5.329  0.3771  0.3286  0.5476
17587TIP3    H274253   4.162   1.770   5.278 -0.9171  0.5743 -0.0025
17588TIP3   OH274254   0.924   1.848   0.169  0.1546  0.1272  0.6570
17588TIP3    H174255   0.834   1.874   0.147 -0.3562 -0.2485  2.2363
17588TIP3    H274256   0.961   1.926   0.212  0.6806  0.3678 -0.2105
17589TIP3   OH274257   5.543   6.391   1.934 -0.0633 -0.2049 -0.6819
17589TIP3    H174258   5.583   6.394   2.021 -0.6948 -2.5898 -0.2674
17589TIP3    H274259   5.576   6.310   1.895  0.8999  1.2782 -3.0278
17590TIP3   OH274260   6.450   4.588   0.645  0.0877 -0.0918 -0.3091
17590TIP3    H174261   6.421   4.574   0.735 -0.7701  0.6606 -0.4622
17590TIP3    H274262   6.535   4.630   0.654  0.1583 -0.3243  0.1479
17591TIP3   OH274263   0.901   2.552  15.225  0.3454 -0.3377  0.5986
17591TIP3    H174264   0.945   2.467  15.221 -2.1178 -1.6291 -0.1726
17591TIP3    H274265   0.907   2.586  15.136 -0.9752 -0.9329  0.2738
17592TIP3   OH274266   1.288   0.891  11.552 -0.3188  0.1863 -0.6280
17592TIP3    H174267   1.208   0.935  11.520 -0.8225 -0.1197  0.1883
17592TIP3    H274268   1.336   0.869  11.473 -0.6276  1.1583 -1.1046
17593TIP3   OH274269   4.040   1.293   0.002 -0.5114 -0.0425 -0.2421
17593TIP3    H174270   4.098   1.319   0.073 -0.3234  1.8163 -1.0410
17593TIP3    H274271   4.074   1.338  -0.075 -0.1722 -2.7277 -1.7241
17594TIP3   OH274272   5.819   2.910   6.127 -0.0364  0.8988 -0.7483
17594TIP3    H174273   5.768   2.831   6.108  0.5438  0.4936 -0.6346
17594TIP3    H274274   5.869   2.926   6.047  1.2818  0.0510 -0.1144
17595TIP3   OH274275   2.778   2.369   3.484  0.3110 -0.6023  0.1338
17595TIP3    H174276   2.698   2.413   3.512 -0.8848 -1.3768 -1.9743
17595TIP3    H274277   2.794   2.303   3.552 -2.8489 -2.8337 -1.1296
17596TIP3   OH274278   6.666   2.216   3.151 -0.3808  0.0804  0.1443
17596TIP3    H174279   6.635   2.249   3.235  1.9221 -1.1676  1.5403
17596TIP3    H274280   6.757   2.245   3.147 -1.1497  2.3598 -3.1352
17597TIP3   OH274281   2.275   5.368   4.513  0.9306 -0.0541  0.3537
17597TIP3    H174282   2.181   5.363   4.526  0.4876  1.1561 -1.9817
17597TIP3    H274283   2.297   5.288   4.464  0.3167  1.7254 -2.9924
17598TIP3   OH274284   4.120   5.121   1.118  0.6780  0.1436  0.1875
17598TIP3    H174285   4.096   5.182   1.049  0.6902  1.6098  1.4348
17598TIP3    H274286   4.137   5.039   1.073 -1.3248  0.5105 -1.3079
17599TIP3   OH274287   6.390   2.506  16.181  0.2322  0.3345 -0.1652
17599TIP3    H174288   6.480   2.535  16.164 -0.0900  0.1690 -2.2210
17599TIP3    H274289   6.395   2.462  16.266  1.8371  1.4535  0.3560
17600TIP3   OH274290   1.869   2.245  12.783 -0.4770 -0.2837 -0.3013
17600TIP3    H174291   1.904   2.329  12.755 -0.8403 -0.2801 -0.7389
17600TIP3    H274292   1.920   2.223  12.862 -2.0968  1.5359  1.3126
17601TIP3   OH274293   3.538   1.454  15.375  0.0062  0.1779  0.7494
17601TIP3    H174294   3.496   1.388  15.430  1.0825  0.9118  2.4883
17601TIP3    H274295   3.589   1.404  15.312 -1.5894 -0.6835  0.1089
17602TIP3   OH274296   6.588   6.210  15.992  0.5837  0.3018 -0.8510
17602TIP3    H174297   6.677   6.226  16.024  0.0637  1.7195 -0.0402
17602TIP3    H274298   6.579   6.115  15.992  1.3435  0.1990  1.2522
17603TIP3   OH274299   2.715   2.861   4.392 -0.4904 -0.0937 -0.2605
17603TIP3    H174300   2.666   2.807   4.329  0.1882 -0.7402 -0.2556
17603TIP3    H274301   2.744   2.799   4.459  2.2818 -0.1963 -1.4496
17604TIP3   OH274302   3.109   5.097   4.481 -0.1967 -0.8973  0.3636
17604TIP3    H174303   3.040   5.033   4.463  0.3689 -1.5359  0.4541
17604TIP3    H274304   3.137   5.127   4.395  1.5933 -2.9791  0.1775
17605TIP3   OH274305   2.006   5.055  16.698 -0.0034 -0.0650  0.0715
17605TIP3    H174306   1.931   4.996  16.706 -0.9512  1.1131  0.0834
17605TIP3    H274307   1.973   5.140  16.729  2.6231 -0.5211  4.4685
17606TIP3   OH274308   4.915   3.318  13.521  0.2221  0.5134 -0.6264
17606TIP3    H174309   4.823   3.340  13.533  0.1614  0.8535 -1.6592
17606TIP3    H274310   4.960   3.403  13.519  0.6342  0.3312  0.4211
17607TIP3   OH274311   6.384   5.227  16.123 -0.0487  0.0529  0.0923
17607TIP3    H174312   6.385   5.192  16.034 -1.2817 -0.9944  0.4686
17607TIP3    H274313   6.475   5.221  16.152  0.3762  0.4995 -1.1289
17608TIP3   OH274314   2.219   0.025  12.064 -0.4976  0.5306 -0.0321
17608TIP3    H174315   2.243   0.005  12.155 -0.1219 -0.2208 -0.2927
17608TIP3    H274316   2.157  -0.044  12.041  0.9814 -0.4879 -1.0203
17609TIP3   OH274317   5.631   5.070  16.883  0.3768 -0.2917  0.7902
17609TIP3    H174318   5.565   5.010  16.849  0.2788  0.0100  0.4356
17609TIP3    H274319   5.691   5.084  16.809  0.2790  0.2081  0.7998
17610TIP3   OH274320   2.503   5.397   5.200  0.5183 -0.7141  0.2601
17610TIP3    H174321   2.535   5.466   5.142  0.2909 -0.8298 -0.0015
17610TIP3    H274322   2.409   5.392   5.182  0.4378 -0.7149  0.6731
17611TIP3   OH274323   6.370   1.006  12.916  0.2060 -0.1093  0.1242
17611TIP3    H174324   6.301   1.038  12.858  1.8398 -1.1784 -2.5331
17611TIP3    H274325   6.438   1.074  12.914  0.4412 -0.3299  0.4499
17612TIP3   OH274326   5.599   2.921  16.710 -0.1727  0.2277  0.0006
17612TIP3    H174327   5.685   2.933  16.752 -0.0089 -0.7439 -0.0530
17612TIP3    H274328   5.609   2.842  16.658 -1.5306 -0.6833  1.1124
17613TIP3   OH274329   3.053   3.609  15.336 -0.0083 -0.0266  0.2019
17613TIP3    H174330   3.101   3.526  15.338 -0.5112 -0.2939  1.9258
17613TIP3    H274331   3.010   3.614  15.422 -2.2099  0.7080 -0.9122
17614TIP3   OH274332   5.481   6.189   0.213  0.4287  0.0998 -0.2082
17614TIP3    H174333   5.493   6.230   0.127  2.5524  2.5267  1.1583
17614TIP3    H274334   5.395   6.220   0.242  1.0676  1.8786 -0.1427
17615TIP3   OH274335   3.931   5.650   3.721 -0.0121  0.0231 -0.2121
17615TIP3    H174336   3.952   5.600   3.643  0.7547 -1.5123  0.9559
17615TIP3    H274337   3.919   5.585   3.789  1.2450  1.4054  1.3980
17616TIP3   OH274338   3.526   4.498   5.925  0.2712  0.2982 -0.1653
17616TIP3    H174339   3.473   4.551   5.984  0.1237 -0.8116  0.7084
17616TIP3    H274340   3.582   4.446   5.983  1.5241  0.6380 -1.0469
17617TIP3   OH274341   5.020   3.148  12.261  0.1249  0.2893 -0.2048
17617TIP3    H174342   4.929   3.174  12.249  0.4488  2.4828  1.7203
17617TIP3    H274343   5.066   3.185  12.185 -0.2029  1.3722  0.1125
17618TIP3   OH274344   2.210   5.772  13.090  0.1921 -0.3513  0.5210
17618TIP3    H174345   2.223   5.805  13.179 -1.0342  0.8833  0.2773
17618TIP3    H274346   2.290   5.796  13.044 -0.1631  1.2231  0.6818
17619TIP3   OH274347   3.620   2.550  11.788  0.1900  0.3143  0.5823
17619TIP3    H174348   3.708   2.587  11.795 -0.2041  0.8992  2.5966
17619TIP3    H274349   3.632   2.456  11.792  0.7930  0.3562 -0.1107
17620TIP3   OH274350   4.539   4.088  14.155 -0.1935 -0.5032 -0.0483
17620TIP3    H174351   4.483   4.031  14.103  1.6625 -3.0907  0.6387
17620TIP3    H274352   4.585   4.028  14.214  1.4969  1.7905  1.0494
17621TIP3   OH274353   5.785   3.064   2.507  0.6241  0.3261  0.0788
17621TIP3    H174354   5.806   2.976   2.475  1.1907  0.6712 -0.5024
17621TIP3    H274355   5.690   3.063   2.518  0.8654 -1.1805  2.5297
17622TIP3   OH274356   5.025   5.465   4.143  0.0275 -0.1094 -0.2208
17622TIP3    H174357   4.970   5.511   4.207  0.4322  0.2462 -0.1254
17622TIP3    H274358   4.975   5.387   4.119  0.4014 -0.8796  1.4309
17623TIP3   OH274359   3.898   4.826   0.698  0.3383 -0.7674  0.3797
17623TIP3    H174360   3.981   4.781   0.713  1.4533  0.9859 -0.3079
17623TIP3    H274361   3.909   4.911   0.741 -0.6241 -0.0531 -0.7407
17624TIP3   OH274362   0.710   0.672  14.088  0.4066 -0.0453  0.5584
17624TIP3    H174363   0.739   0.697  14.176  0.4942 -0.3421  0.6151
17624TIP3    H274364   0.790   0.677  14.034  0.6540 -1.2253  0.7944
17625TIP3   OH274365   2.322   4.592  12.584 -0.4744 -0.2990  0.2949
17625TIP3    H174366   2.339   4.645  12.506 -1.4006 -0.4085  0.0060
17625TIP3    H274367   2.264   4.522  12.553 -0.7425 -0.4127  1.0518
17626TIP3   OH274368   2.026   2.496   2.521 -0.6191 -0.5167 -0.0608
17626TIP3    H174369   1.962   2.495   2.449 -1.8042 -1.8151  0.9768
17626TIP3    H274370   2.007   2.577   2.568  0.4134  0.5321 -1.4080
17627TIP3   OH274371   5.338   5.100  12.643  0.5016  0.2665 -0.5280
17627TIP3    H174372   5.412   5.089  12.702 -0.5321  0.8807  0.9115
17627TIP3    H274373   5.378   5.112  12.556  2.0072 -1.2350 -0.0615
17628TIP3   OH274374   1.819   2.755   4.403 -0.0438 -0.1248  0.1004
17628TIP3    H174375   1.813   2.813   4.327 -1.3769  1.0250  1.0547
17628TIP3    H274376   1.830   2.814   4.477  1.3908 -1.2514  0.7986
17629TIP3   OH274377   4.973   1.803   1.442  0.4925 -0.2728  0.4001
17629TIP3    H174378   5.004   1.893   1.429  1.5297 -0.6394  0.3619
17629TIP3    H274379   4.908   1.811   1.512 -1.1787  0.8722 -1.2055
17630TIP3   OH274380   5.807   5.758   5.431 -0.1749  0.0336  0.5054
17630TIP3    H174381   5.901   5.775   5.444 -0.4836  1.5770  0.7518
17630TIP3    H274382   5.764   5.840   5.455 -1.3747  0.3644 -2.4675
17631TIP3   OH274383   5.765   4.776   3.365 -0.7953 -0.9394 -0.3470
17631TIP3    H174384   5.745   4.763   3.272  1.1329 -2.7567 -0.5504
17631TIP3    H274385   5.703   4.719   3.411 -0.8306 -1.1110 -0.6059
17632TIP3   OH274386   1.636   6.114  12.739  0.1199  0.5024  0.2705
17632TIP3    H174387   1.695   6.114  12.814 -0.8252 -1.5154  1.0594
17632TIP3    H274388   1.579   6.189  12.753 -1.2740 -0.9314  2.6141
17633TIP3   OH274389   6.668   0.433  14.982  0.0471 -0.6655  0.4109
17633TIP3    H174390   6.578   0.427  15.012 -0.0095 -0.8436  0.2091
17633TIP3    H274391   6.721   0.411  15.058 -0.0420  0.5556  0.8473
17634TIP3   OH274392   6.102   4.226   4.472 -0.2571 -0.4150 -0.2896
17634TIP3    H174393   6.177   4.281   4.494 -0.5875 -0.8853  2.1858
17634TIP3    H274394   6.136   4.136   4.475 -0.8508 -0.6125  0.5521
17635TIP3   OH274395   4.255   4.825   0.382  0.2360 -0.1113  0.6906
17635TIP3    H174396   4.163   4.807   0.400  0.5751 -1.3028  1.2891
17635TIP3    H274397   4.284   4.877   0.458 -0.2764  1.4505 -0.1571
17636TIP3   OH274398   1.602   2.644   1.268 -0.5633 -0.5600  0.8622
17636TIP3    H174399   1.638   2.616   1.353  0.3021  0.8407  0.9656
17636TIP3    H274400   1.665   2.611   1.204  0.7286  1.5023  1.0152
17637TIP3   OH274401   6.583   0.919   4.716  0.2491 -0.0968  0.0223
17637TIP3    H174402   6.522   0.907   4.644  0.9457 -1.1769 -0.3929
17637TIP3    H274403   6.611   1.011   4.709 -1.1995  0.3707  0.1409
17638TIP3   OH274404   0.687   1.700   3.308  0.1946 -0.7830  0.0690
17638TIP3    H174405   0.618   1.721   3.371 -0.1933 -0.9799 -0.2884
17638TIP3    H274406   0.718   1.614   3.334 -0.5560 -1.2385 -0.5231
17639TIP3   OH274407   0.785   6.628   5.000  0.0034 -0.0109 -0.0526
17639TIP3    H174408   0.881   6.620   5.001  0.0975  0.8852 -1.0068
17639TIP3    H274409   0.762   6.646   5.091  0.9066  1.4592 -0.1031
17640TIP3   OH274410   5.471   2.786  15.927 -0.1630 -0.8535  0.7679
17640TIP3    H174411   5.539   2.746  15.980  0.5447  0.9606  1.2830
17640TIP3    H274412   5.488   2.754  15.838  0.5063 -1.5305  1.1387
17641TIP3   OH274413   6.327   4.785  12.125  0.0593 -0.0976 -0.0073
17641TIP3    H174414   6.397   4.787  12.191  0.0853  2.2900 -0.0747
17641TIP3    H274415   6.252   4.826  12.168 -0.5277 -0.3278 -0.8032
17642TIP3   OH274416   4.527   0.022  13.971 -0.3390 -0.4560 -0.0740
17642TIP3    H174417   4.462   0.090  13.954  0.6784  0.5683  0.0707
17642TIP3    H274418   4.479  -0.061  13.959 -1.8402  0.2713  0.6840
17643TIP3   OH274419   0.137   2.689  15.441  0.7226  0.1268  0.0598
17643TIP3    H174420   0.085   2.726  15.370  0.7582  0.5846  0.2731
17643TIP3    H274421   0.225   2.722  15.426  0.5187  1.0877  0.9188
17644TIP3   OH274422   1.404   2.409  12.297 -0.5546 -0.0640 -0.5913
17644TIP3    H174423   1.410   2.499  12.330 -2.5363  0.0035 -0.3721
17644TIP3    H274424   1.331   2.411  12.235  0.3576 -1.1938 -1.7178
17645TIP3   OH274425   3.717   4.813  14.727 -0.3346 -0.3296 -0.2398
17645TIP3    H174426   3.785   4.803  14.660  1.1712 -0.5461  1.3128
17645TIP3    H274427   3.760   4.859  14.799 -1.4838 -1.6452  1.3071
17646TIP3   OH274428   3.358   1.273  11.784  0.5386  1.0243  0.3431
17646TIP3    H174429   3.410   1.203  11.823 -0.5678  0.5124  0.9002
17646TIP3    H274430   3.295   1.228  11.728  0.1113  1.5946  0.3592
17647TIP3   OH274431   6.149   3.971  14.633  0.1593 -0.3146 -0.3679
17647TIP3    H174432   6.118   4.059  14.653  1.0101  0.0879 -0.7796
17647TIP3    H274433   6.100   3.914  14.692  0.7427  0.5887  1.0267
17648TIP3   OH274434   0.898   2.338   5.102  0.5334 -0.4568  0.2414
17648TIP3    H174435   0.974   2.391   5.125 -1.3914  1.8938  1.5311
17648TIP3    H274436   0.887   2.278   5.176 -0.8930  1.6257  1.7962
17649TIP3   OH274437   0.737   5.318   0.495 -0.0088  0.1316 -0.2190
17649TIP3    H174438   0.679   5.342   0.567  0.0512 -1.3024  0.3074
17649TIP3    H274439   0.706   5.233   0.465  0.3494  0.4263 -1.4899
17650TIP3   OH274440   6.092   1.881   0.739  0.1832  0.5486  0.3957
17650TIP3    H174441   6.032   1.816   0.700 -0.2799  0.9353  0.4562
17650TIP3    H274442   6.069   1.963   0.696  0.7013  0.6936  0.3964
17651TIP3   OH274443   3.553   0.411   6.704  0.2358 -0.2187 -0.2405
17651TIP3    H174444   3.508   0.482   6.659 -1.4912 -0.9588  0.3053
17651TIP3    H274445   3.499   0.334   6.689  1.3232 -1.1300  0.4034
17652TIP3   OH274446   3.184   6.343   3.372  0.1689  0.0119  0.1476
17652TIP3    H174447   3.261   6.397   3.387  0.8622 -0.8119 -0.3799
17652TIP3    H274448   3.184   6.280   3.443 -1.3087  1.4239  1.4402
17653TIP3   OH274449   3.511   4.550  17.215  0.4297 -0.6015 -0.1250
17653TIP3    H174450   3.546   4.612  17.152 -0.8615  1.8619  1.4924
17653TIP3    H274451   3.434   4.513  17.172  1.5533 -1.5964 -1.3330
17654TIP3   OH274452   5.913   1.585  11.245 -0.1789  0.5077  0.2563
17654TIP3    H174453   5.882   1.495  11.255 -0.1848  0.5318  0.4579
17654TIP3    H274454   5.839   1.632  11.209  0.4959 -0.0191 -1.8496
17655TIP3   OH274455   0.967   1.783   4.199  0.0435 -0.3431 -0.0856
17655TIP3    H174456   0.934   1.839   4.270 -0.0002 -1.2727  0.6355
17655TIP3    H274457   0.986   1.844   4.128  0.5752  0.6703  0.9039
17656TIP3   OH274458   1.619   1.077   2.484 -0.5142 -0.1931  0.2816
17656TIP3    H174459   1.593   0.995   2.525 -0.7245 -0.0005  0.5337
17656TIP3    H274460   1.655   1.130   2.555 -0.0282 -0.2065  0.0548
17657TIP3   OH274461   3.068   6.109  12.692  0.0787 -0.5778 -0.1659
17657TIP3    H174462   3.082   6.170  12.764  1.3879  0.0925 -0.9721
17657TIP3    H274463   3.057   6.024  12.734  1.8223 -0.3537  0.7652
17658TIP3   OH274464   5.961   0.559   3.759 -0.3154 -0.0766  0.1048
17658TIP3    H174465   6.026   0.520   3.700  0.2717 -0.0099  0.7009
17658TIP3    H274466   5.934   0.487   3.815 -1.1361 -0.2250 -0.4578
17659TIP3   OH274467   3.668   6.248   1.544  0.1063  0.6978  0.2633
17659TIP3    H174468   3.737   6.246   1.478  1.6338  0.2621  1.8448
17659TIP3    H274469   3.586   6.248   1.494  1.1375 -3.3066 -1.6265
17660TIP3   OH274470   4.229   1.341  16.511 -0.3789  0.0854 -0.4291
17660TIP3    H174471   4.182   1.378  16.586  0.6039  3.2230 -1.2939
17660TIP3    H274472   4.177   1.369  16.435 -0.3043 -1.4210 -1.0488
17661TIP3   OH274473   4.601   6.201   5.653 -0.4330 -0.0480  0.0498
17661TIP3    H174474   4.622   6.133   5.718  2.4065 -1.3062 -2.0629
17661TIP3    H274475   4.681   6.254   5.648 -1.1958  0.9952 -1.2912
17662TIP3   OH274476   5.701   0.029   3.238 -0.0073 -0.2255  0.4306
17662TIP3    H174477   5.636  -0.041   3.245  1.9180 -1.9419  1.3892
17662TIP3    H274478   5.725   0.048   3.329  1.4966 -0.2312  0.0416
17663TIP3   OH274479   3.999   2.812   5.895  0.2347  0.3256 -0.2751
17663TIP3    H174480   4.033   2.790   5.808  1.8152  0.4884  0.2793
17663TIP3    H274481   3.952   2.894   5.882 -1.0051 -0.5228 -1.2933
17664TIP3   OH274482   5.385   3.213  14.265 -0.3832 -0.0631  0.2098
17664TIP3    H174483   5.323   3.286  14.260 -1.3481 -0.9739 -1.7752
17664TIP3    H274484   5.447   3.230  14.193 -0.1392 -0.7708  0.2450
17665TIP3   OH274485   6.800   0.272   2.888  0.2624 -0.4610 -0.1857
17665TIP3    H174486   6.745   0.292   2.813 -0.7279 -0.7880  0.4486
17665TIP3    H274487   6.878   0.326   2.876  0.4218 -1.0479 -1.8129
17666TIP3   OH274488   3.785   3.506  15.278  0.3755  0.1157  0.2857
17666TIP3    H174489   3.731   3.585  15.279  0.8411  0.4404  1.4866
17666TIP3    H274490   3.747   3.450  15.346 -0.3631 -0.9781 -1.0234
17667TIP3   OH274491   6.290   4.665   2.579  0.2818  0.3129  0.8370
17667TIP3    H174492   6.272   4.714   2.659  0.3572  1.9543 -0.1206
17667TIP3    H274493   6.313   4.577   2.609 -2.5358  0.0781  2.4665
17668TIP3   OH274494   5.555   3.139  13.066 -0.5518  0.4892 -0.1341
17668TIP3    H174495   5.567   3.051  13.028 -3.2483  0.3770 -0.8200
17668TIP3    H274496   5.590   3.198  13.000 -0.2648 -0.0012 -0.4289
17669TIP3   OH274497   4.847   2.211   4.438 -0.2229  0.2217  0.3609
17669TIP3    H174498   4.823   2.124   4.406 -0.1181 -0.3647  1.8685
17669TIP3    H274499   4.816   2.270   4.369 -0.8837 -0.9518 -0.3749
17670TIP3   OH274500   1.341   0.676   3.781 -0.5600 -0.2471 -0.0874
17670TIP3    H174501   1.309   0.726   3.857 -1.5750 -1.3595  0.2369
17670TIP3    H274502   1.426   0.644   3.808 -0.5335  0.0941  0.2499
17671TIP3   OH274503   3.018   3.220   4.996 -0.6108  0.1399 -0.5980
17671TIP3    H174504   3.003   3.201   4.903  0.4467  1.3823 -1.0314
17671TIP3    H274505   3.048   3.311   4.997  0.6826 -0.2988  0.8285
17672TIP3   OH274506   1.244   4.426  15.807 -0.5100  0.5672 -0.0586
17672TIP3    H174507   1.172   4.363  15.799  0.4241 -0.4450 -0.6125
17672TIP3    H274508   1.310   4.395  15.744 -0.3340  2.5052 -0.8609
17673TIP3   OH274509   5.572   3.877   1.198 -0.3290 -0.1895 -0.2099
17673TIP3    H174510   5.629   3.821   1.145 -0.7153 -0.0650 -0.7530
17673TIP3    H274511   5.494   3.823   1.215  0.3815 -0.7537  1.4180
17674TIP3   OH274512   1.028   0.768   0.692  0.0109 -0.2193  0.5058
17674TIP3    H174513   1.029   0.785   0.786 -3.2826  0.5189  0.4360
17674TIP3    H274514   1.072   0.844   0.654 -0.5819  0.5396  1.3093
17675TIP3   OH274515   1.826   3.393   0.068  0.3897  0.7001  0.0885
17675TIP3    H174516   1.783   3.396   0.154 -1.0015  0.4033 -0.5785
17675TIP3    H274517   1.756   3.414   0.006  1.0844 -0.3549 -1.0788
17676TIP3   OH274518   5.712   4.800   4.721 -0.0050 -0.2232  0.5810
17676TIP3    H174519   5.687   4.739   4.790 -2.4819 -2.1472 -1.9054
17676TIP3    H274520   5.658   4.878   4.737  0.0576 -0.3281  1.3127
17677TIP3   OH274521   5.571   5.334  12.717  0.3374 -0.4167  0.3928
17677TIP3    H174522   5.482   5.352  12.688  0.4607  0.4005  0.5075
17677TIP3    H274523   5.563   5.317  12.811  0.3100 -0.3123  0.4089
17678TIP3   OH274524   4.384   6.518  15.811  0.4456  0.7617  0.2911
17678TIP3    H174525   4.407   6.433  15.849 -1.6015  1.0048  2.1448
17678TIP3    H274526   4.420   6.582  15.871 -2.6265  1.1510  1.7928
17679TIP3   OH274527   0.912   6.261  16.110 -0.0729 -0.5284  0.4659
17679TIP3    H174528   0.828   6.223  16.081  0.0926  0.0036 -0.7668
17679TIP3    H274529   0.887   6.329  16.172 -0.6078 -0.0281 -0.2713
17680TIP3   OH274530   5.938   2.213   5.587 -0.5502 -0.6741  0.3321
17680TIP3    H174531   5.940   2.191   5.681  1.7149  1.7181  0.9161
17680TIP3    H274532   5.858   2.265   5.577  0.5695  1.3584  1.5531
17681TIP3   OH274533   1.035   1.590  15.298 -0.1365  0.6622 -0.5173
17681TIP3    H174534   1.078   1.572  15.214 -2.6657  0.7003 -1.8778
17681TIP3    H274535   1.068   1.522  15.357  0.7261 -0.1346 -1.8917
17682TIP3   OH274536   4.234   5.810   1.040  0.0383  0.2994  0.1152
17682TIP3    H174537   4.246   5.874   1.110 -0.2250  0.4994 -0.0240
17682TIP3    H274538   4.206   5.861   0.965  1.6934  0.2795 -0.5470
17683TIP3   OH274539   1.566   0.844   5.998  0.0612  0.2262 -0.0318
17683TIP3    H174540   1.603   0.930   6.014  0.7715 -0.3716  1.6200
17683TIP3    H274541   1.589   0.792   6.075  0.6578 -1.7851 -1.4989
17684TIP3   OH274542   2.325   4.739  16.891 -0.4823  0.0810  0.6362
17684TIP3    H174543   2.301   4.830  16.904 -0.0573  0.8456 -3.3614
17684TIP3    H274544   2.413   4.732  16.928  0.6441  2.0644 -1.5252
17685TIP3   OH274545   1.881   0.858   4.451 -0.2600  0.1896 -0.0012
17685TIP3    H174546   1.837   0.817   4.376  0.2881 -0.0758 -0.1812
17685TIP3    H274547   1.932   0.928   4.412  0.9537 -0.6920 -0.0228
17686TIP3   OH274548   5.478   3.894   2.067 -0.5503  0.8267 -0.7151
17686TIP3    H174549   5.521   3.909   2.151  2.3889  1.4511 -2.2454
17686TIP3    H274550   5.461   3.800   2.065  0.1631  0.6734  0.2205
17687TIP3   OH274551   1.354   0.030  17.008  0.0891  0.0887  0.6615
17687TIP3    H174552   1.352   0.099  16.942 -0.6005  0.2466  0.8480
17687TIP3    H274553   1.321  -0.048  16.963  0.2908  0.0259  0.6200
17688TIP3   OH274554   1.877   2.173   2.966 -0.7796  0.1750 -0.0892
17688TIP3    H174555   1.938   2.244   2.986 -1.8293  1.5758 -1.7377
17688TIP3    H274556   1.870   2.124   3.048 -0.4515  2.3150  1.2570
17689TIP3   OH274557   2.899   0.563  17.220  0.9107  0.3753 -0.1620
17689TIP3    H174558   2.918   0.650  17.185 -0.2330  0.3769 -0.8087
17689TIP3    H274559   2.969   0.547  17.284  3.1199  0.3147 -2.5216
17690TIP3   OH274560   2.191   2.366   0.355  0.7038  0.3561 -0.1865
17690TIP3    H174561   2.149   2.284   0.331  1.2648  0.3482 -1.1594
17690TIP3    H274562   2.164   2.428   0.287 -1.7941  1.6586  1.9154
17691TIP3   OH274563   6.320   5.256   4.742  0.2235  0.5335 -0.0868
17691TIP3    H174564   6.382   5.198   4.698 -0.2049  0.2441 -0.3159
17691TIP3    H274565   6.303   5.325   4.678 -0.9044 -0.2398 -0.6423
17692TIP3   OH274566   3.786   1.588   1.389  0.2778 -0.1961 -0.2508
17692TIP3    H174567   3.779   1.589   1.294 -1.7012  3.5119 -0.1632
17692TIP3    H274568   3.873   1.624   1.407  0.4753 -0.4747 -0.6497
17693TIP3   OH274569   3.828   5.306  15.720 -0.9371  0.2086  0.2201
17693TIP3    H174570   3.892   5.268  15.781 -0.1322 -0.1401 -0.8186
17693TIP3    H274571   3.759   5.240  15.714 -0.2662 -0.4498 -0.4258
17694TIP3   OH274572   5.221   3.447  11.724 -0.2730  0.4339 -0.6501
17694TIP3    H174573   5.309   3.455  11.760 -0.7359 -0.4160  0.7022
17694TIP3    H274574   5.188   3.537  11.720  0.2149  0.6391 -0.0501
17695TIP3   OH274575   3.853   2.214  13.845 -0.0611 -0.8933  0.0195
17695TIP3    H174576   3.795   2.138  13.844 -0.5471 -0.5189 -0.6940
17695TIP3    H274577   3.893   2.213  13.932 -0.9871 -1.2714  0.4460
17696TIP3   OH274578   4.799   4.177   3.343 -0.0005  0.3949  1.0020
17696TIP3    H174579   4.885   4.167   3.302  0.6230  1.4205  2.0575
17696TIP3    H274580   4.737   4.150   3.274  1.1255  0.1417  0.0678
17697TIP3   OH274581   3.717   3.024  13.775 -0.6885 -1.0924 -0.1402
17697TIP3    H174582   3.772   3.051  13.701 -0.6624  0.6361  0.4853
17697TIP3    H274583   3.727   2.929  13.779  1.9093 -0.8630 -0.3284
17698TIP3   OH274584   6.474   3.902   3.148 -0.0228 -0.2947 -0.3542
17698TIP3    H174585   6.410   3.873   3.084  2.2181 -0.2355 -2.7006
17698TIP3    H274586   6.497   3.991   3.120  0.9915 -0.2750  0.4971
17699TIP3   OH274587   1.627   6.742   3.673 -0.1596 -0.3649 -0.2870
17699TIP3    H174588   1.547   6.765   3.627  0.6851  2.0672 -0.6153
17699TIP3    H274589   1.677   6.689   3.611 -0.1061  0.8306 -1.2734
17700TIP3   OH274590   1.530   6.595  12.597 -0.0207 -0.2607 -0.0958
17700TIP3    H174591   1.469   6.545  12.650 -0.0590 -1.3536 -1.1572
17700TIP3    H274592   1.482   6.616  12.517  1.2248 -1.8227 -1.2909
17701TIP3   OH274593   4.610   3.803  12.762 -0.0820  0.0878 -0.6616
17701TIP3    H174594   4.605   3.860  12.686 -1.6543 -0.1609 -0.7738
17701TIP3    H274595   4.524   3.810  12.803  0.0901 -1.2888 -0.0165
17702TIP3   OH274596   3.625   6.728   5.645 -0.3306 -0.3964  0.3594
17702TIP3    H174597   3.691   6.797   5.652  0.9778 -1.5786  0.0781
17702TIP3    H274598   3.629   6.681   5.728  0.4396 -1.5481 -0.3097
17703TIP3   OH274599   5.926   0.673   1.749  0.5043 -0.7456  1.0000
17703TIP3    H174600   5.839   0.699   1.719  1.4182  1.5830  0.2668
17703TIP3    H274601   5.944   0.591   1.701 -1.3217 -1.3602  1.3009
17704TIP3   OH274602   1.423   4.364   2.892  0.0163  0.1969  0.1160
17704TIP3    H174603   1.406   4.310   2.970  1.0744  0.5835  0.6170
17704TIP3    H274604   1.395   4.309   2.819 -2.6966  0.5192  0.8518
17705TIP3   OH274605   1.864   3.235   2.811 -0.3805  0.3105  0.5376
17705TIP3    H174606   1.956   3.216   2.792 -0.8332  0.5120 -1.9938
17705TIP3    H274607   1.858   3.229   2.907  2.2812  0.4215  0.7635
17706TIP3   OH274608   0.902   2.527   0.498 -0.0426 -0.0891 -0.0638
17706TIP3    H174609   0.843   2.471   0.548  0.7634 -0.6293  0.3045
17706TIP3    H274610   0.940   2.586   0.563  0.4960 -0.3480 -0.1334
17707TIP3   OH274611   6.198   6.039   5.674  0.0097 -0.4136  0.9276
17707TIP3    H174612   6.266   6.090   5.718 -0.5536 -0.7026  2.1590
17707TIP3    H274613   6.118   6.059   5.722 -1.2030  1.5532 -1.7770
17708TIP3   OH274614   6.653   6.485   1.045  0.6330  0.0345  0.5327
17708TIP3    H174615   6.625   6.426   1.115  1.0334 -0.7514  0.0254
17708TIP3    H274616   6.573   6.531   1.019 -0.0069 -1.4703 -0.2180
17709TIP3   OH274617   3.449   4.713  16.246 -0.3437 -0.3262  0.1957
17709TIP3    H174618   3.540   4.685  16.255  0.2960  1.7290  0.4018
17709TIP3    H274619   3.401   4.658  16.309  1.0658 -0.0513  1.5431
17710TIP3   OH274620   6.592   5.203   5.368  0.2822 -0.3012  0.1033
17710TIP3    H174621   6.644   5.168   5.296 -0.1336 -0.8098  0.0531
17710TIP3    H274622   6.534   5.132   5.393  1.2313 -0.5550  1.7177
17711TIP3   OH274623   3.451   4.548  12.150 -0.4068  0.3403 -0.2480
17711TIP3    H174624   3.403   4.482  12.100 -2.4247  1.2536  0.4124
17711TIP3    H274625   3.465   4.508  12.236  2.0425 -0.7832 -1.1184
17712TIP3   OH274626   0.844   2.468   4.540  0.2437  0.2038 -0.0065
17712TIP3    H174627   0.883   2.388   4.574 -0.0835 -0.3912 -0.9979
17712TIP3    H274628   0.918   2.516   4.500  0.4789  0.5115  0.7921
17713TIP3   OH274629   3.784   0.967   3.035 -0.1825  0.0559  0.9671
17713TIP3    H174630   3.798   1.060   3.054 -1.5024  0.4396  0.0767
17713TIP3    H274631   3.802   0.959   2.941  0.3057 -0.6752  1.1153
17714TIP3   OH274632   4.011   6.626   6.301  0.0333 -0.0655  0.5238
17714TIP3    H174633   3.974   6.714   6.312  1.7695  0.6928  0.4109
17714TIP3    H274634   4.077   6.619   6.369  0.0234 -1.2149  0.4126
17715TIP3   OH274635   3.054   1.836   1.516 -0.2697  0.6169 -0.8226
17715TIP3    H174636   3.014   1.907   1.467 -0.1264  0.4143 -1.2414
17715TIP3    H274637   3.014   1.756   1.481  0.7287  0.3904 -1.4776
17716TIP3   OH274638   5.332   4.078   3.416 -0.5951 -0.0125  0.2308
17716TIP3    H174639   5.394   4.149   3.431 -0.3073 -0.3437  0.6342
17716TIP3    H274640   5.261   4.094   3.479 -1.3989  0.9144 -0.8998
17717TIP3   OH274641   3.556   4.735  13.370  0.1220  0.1666 -0.1465
17717TIP3    H174642   3.642   4.766  13.399 -0.3075  2.2693 -0.9994
17717TIP3    H274643   3.554   4.643  13.395  2.4811  0.1733  0.2066
17718TIP3   OH274644   6.004   3.102  16.571  0.1797 -0.0678  0.6830
17718TIP3    H174645   6.075   3.039  16.559  0.6583  0.3018  1.5662
17718TIP3    H274646   5.938   3.076  16.507  0.3236 -1.5497  1.1205
17719TIP3   OH274647   5.912   2.614  13.113  0.1352 -0.3726 -0.1185
17719TIP3    H174648   5.976   2.683  13.131  0.1321 -0.9118  2.0042
17719TIP3    H274649   5.839   2.634  13.171 -1.1220 -0.4678 -1.6540
17720TIP3   OH274650   3.743   6.808  14.792 -0.3017 -0.0994  0.0624
17720TIP3    H174651   3.828   6.849  14.807 -0.3020 -0.1265  0.1372
17720TIP3    H274652   3.724   6.760  14.873 -0.3463 -0.1664  0.0127
17721TIP3   OH274653   4.030   3.137  10.759 -0.7635  0.1277  0.2211
17721TIP3    H174654   3.934   3.142  10.758 -0.6831  2.1066  1.0204
17721TIP3    H274655   4.059   3.213  10.708  0.3972  0.8813  1.9578
17722TIP3   OH274656   3.078   5.244   1.696  0.1372  0.0101  0.0054
17722TIP3    H174657   3.007   5.288   1.650  1.0316  3.2451  1.6345
17722TIP3    H274658   3.042   5.222   1.781  1.1911  2.1171  1.0271
17723TIP3   OH274659   3.243   2.994   5.647  0.1729 -0.1609  0.1972
17723TIP3    H174660   3.203   2.985   5.734 -0.6421 -1.4738 -0.2979
17723TIP3    H274661   3.309   2.925   5.643  0.1684 -0.1425 -0.2446
17724TIP3   OH274662   1.676   2.486  11.537  0.3779 -0.2208  0.2671
17724TIP3    H174663   1.595   2.436  11.524  0.8640 -1.1357  0.6825
17724TIP3    H274664   1.708   2.504  11.449  0.1128 -0.5186  0.1087
17725TIP3   OH274665   3.713   5.925   2.003 -0.3296  0.2402  0.3661
17725TIP3    H174666   3.652   5.989   1.967  0.1026  1.2026  1.3407
17725TIP3    H274667   3.676   5.901   2.088  0.7214  0.9791  1.0585
17726TIP3   OH274668   5.060   3.641   3.015 -0.1592 -0.6950 -0.1182
17726TIP3    H174669   5.034   3.550   3.033 -1.9289 -0.0516  0.6252
17726TIP3    H274670   5.151   3.646   3.045 -0.4989 -1.8388  1.1542
17727TIP3   OH274671   4.013   0.326  14.263 -0.4267 -0.0765 -0.3335
17727TIP3    H174672   4.032   0.397  14.324  2.1508  0.1402 -1.3436
17727TIP3    H274673   4.007   0.367  14.177  1.2694 -1.0779 -0.9506
17728TIP3   OH274674   3.574   4.126  13.279  0.1991 -0.5671  0.0716
17728TIP3    H174675   3.549   4.118  13.187  0.9103 -0.6259 -0.1258
17728TIP3    H274676   3.503   4.175  13.319  0.1460 -0.0525 -0.6287
17729TIP3   OH274677   0.560   6.234   1.491 -0.2425 -0.3064 -0.3960
17729TIP3    H174678   0.641   6.211   1.445 -0.0031 -3.1833  1.3903
17729TIP3    H274679   0.562   6.330   1.496  2.9448 -0.3274 -0.5234
17730TIP3   OH274680   6.094   5.931  11.017  0.1524 -0.0852  0.2501
17730TIP3    H174681   6.113   5.877  10.941  1.4447 -0.3943  0.7729
17730TIP3    H274682   6.062   6.014  10.981  3.3021  0.7600 -0.7160
17731TIP3   OH274683   0.848   0.620   5.764 -0.2506  0.3203 -0.1345
17731TIP3    H174684   0.866   0.526   5.767  0.8496  0.5196 -0.2216
17731TIP3    H274685   0.763   0.627   5.722 -1.0749 -0.7308  1.3247
17732TIP3   OH274686   4.055   5.583  11.249  0.5147 -0.3896  0.2414
17732TIP3    H174687   4.037   5.670  11.212  0.4521  0.5993  2.4414
17732TIP3    H274688   3.975   5.533  11.232  0.5936 -0.0401 -1.1569
17733TIP3   OH274689   3.043   3.954   0.737  0.5191  0.2967 -0.2532
17733TIP3    H174690   3.022   4.010   0.811  2.1542 -1.0165  1.2485
17733TIP3    H274691   3.128   3.986   0.706  1.8471 -1.8323  1.1252
17734TIP3   OH274692   2.453   0.525   4.643 -0.5703  0.2826  0.0493
17734TIP3    H174693   2.445   0.620   4.640  0.0286  0.3439  0.3785
17734TIP3    H274694   2.400   0.494   4.569 -0.3999  0.8933 -0.3275
17735TIP3   OH274695   5.432   4.089   5.493 -0.1332 -0.3053  0.6665
17735TIP3    H174696   5.363   4.041   5.446 -0.6297  0.2110  0.8714
17735TIP3    H274697   5.391   4.171   5.518  0.6984  0.1926  0.4010
17736TIP3   OH274698   6.139   4.622  15.416  0.0718  0.2660 -0.1534
17736TIP3    H174699   6.108   4.685  15.480  1.8741 -1.2282  2.3064
17736TIP3    H274700   6.195   4.673  15.357 -2.3779  1.8415 -1.1979
17737TIP3   OH274701   3.815   6.454   4.670  0.4327 -0.0823  0.5993
17737TIP3    H174702   3.860   6.404   4.738 -0.7246 -1.5164  0.3226
17737TIP3    H274703   3.723   6.454   4.697  0.2282  0.8385 -0.0587
17738TIP3   OH274704   5.473   5.878   0.930  0.3371 -0.0808 -0.2146
17738TIP3    H174705   5.513   5.965   0.925 -0.1831  0.1477 -0.4174
17738TIP3    H274706   5.379   5.895   0.936  0.2313 -0.6304 -0.2896
17739TIP3   OH274707   5.452   0.807   4.993  0.2279 -0.4754 -1.0300
17739TIP3    H174708   5.424   0.741   4.929 -1.4325  0.3340 -1.1593
17739TIP3    H274709   5.400   0.884   4.972  2.3652  0.9897 -1.0540
17740TIP3   OH274710   2.683   6.744   1.506 -0.3474  0.2851  0.4059
17740TIP3    H174711   2.687   6.653   1.475  0.2566  0.5888 -0.4195
17740TIP3    H274712   2.771   6.762   1.537 -0.4124  0.6644  0.3646
17741TIP3   OH274713   3.650   4.077   1.234 -0.3345 -0.5290  0.1817
17741TIP3    H174714   3.714   4.055   1.302  0.9484  0.9657 -0.5084
17741TIP3    H274715   3.645   4.172   1.236 -0.7211 -0.5030 -1.4216
17742TIP3   OH274716   0.062   2.405  16.820 -0.1650 -0.4631 -0.5225
17742TIP3    H174717   0.097   2.331  16.869  0.0406  0.5920  0.9652
17742TIP3    H274718  -0.031   2.386  16.811  0.5447 -2.8909 -3.7874
17743TIP3   OH274719   1.737   3.587  14.830 -0.9007 -0.2566  0.5431
17743TIP3    H174720   1.717   3.495  14.847 -0.4225  0.0403  2.9087
17743TIP3    H274721   1.654   3.632  14.840 -0.6977 -0.1387  1.8710
17744TIP3   OH274722   2.505   5.473   4.928 -0.0496  0.1366  0.3854
17744TIP3    H174723   2.459   5.408   4.876  0.0703 -2.1270  2.9982
17744TIP3    H274724   2.576   5.502   4.872  0.2112 -2.4043 -0.6789
17745TIP3   OH274725   6.807   3.782   3.524  0.3043  0.6097 -0.7459
17745TIP3    H174726   6.811   3.811   3.615 -0.0959  1.1284 -0.8878
17745TIP3    H274727   6.735   3.832   3.486 -1.5035 -1.8305 -0.5962
17746TIP3   OH274728   2.350   4.094   1.599 -0.0037  0.1580 -0.3889
17746TIP3    H174729   2.360   4.012   1.552 -3.2583 -1.0581  0.8353
17746TIP3    H274730   2.420   4.094   1.664  0.8659 -0.9901 -1.3272
17747TIP3   OH274731   3.153   0.266   5.547 -0.1862 -0.3955  0.1341
17747TIP3    H174732   3.104   0.284   5.467 -0.1710 -0.1132  0.1879
17747TIP3    H274733   3.178   0.352   5.580  2.7512 -0.5950 -1.3574
17748TIP3   OH274734   4.580   3.951  15.539  0.3600  0.8012  0.0915
17748TIP3    H174735   4.538   3.877  15.495  1.7261 -0.3333  0.6514
17748TIP3    H274736   4.508   4.006  15.570 -0.8353 -2.4514  3.3585
17749TIP3   OH274737   5.699   5.995   5.753 -0.1468  0.1664  0.4364
17749TIP3    H174738   5.628   5.968   5.693  0.3028 -1.1107  0.4583
17749TIP3    H274739   5.654   6.021   5.833 -0.8087  2.5406 -0.6578
17750TIP3   OH274740   0.288   1.309   1.528  0.0762  0.4568 -0.1425
17750TIP3    H174741   0.346   1.262   1.468 -0.5566  2.5177 -2.4260
17750TIP3    H274742   0.317   1.400   1.523 -1.3613  1.0011  1.0974
17751TIP3   OH274743   2.381   6.710  13.762 -0.1685  0.6898 -0.1552
17751TIP3    H174744   2.445   6.639  13.752 -0.6200  0.1961  0.3931
17751TIP3    H274745   2.434   6.789  13.766  0.4696  0.2218  1.0186
17752TIP3   OH274746   6.194   5.222   0.583 -0.1152 -0.2459 -0.6962
17752TIP3    H174747   6.118   5.164   0.580 -0.2937 -0.1059  0.6485
17752TIP3    H274748   6.165   5.303   0.541 -0.5941 -0.3115 -0.4869
17753TIP3   OH274749   6.333   1.886  13.596  0.4633  0.3972  0.1631
17753TIP3    H174750   6.307   1.900  13.687 -0.6226 -1.1023  0.1170
17753TIP3    H274751   6.416   1.838  13.601 -0.1093 -0.5940  0.3965
17754TIP3   OH274752   1.279   4.946   0.919 -0.0022 -0.5280  0.7284
17754TIP3    H174753   1.354   4.977   0.869 -0.4720  1.0094  0.9598
17754TIP3    H274754   1.215   4.919   0.854 -0.5562  1.3325  0.4590
17755TIP3   OH274755   1.707   1.438  16.411 -0.4484 -0.0624  0.4575
17755TIP3    H174756   1.750   1.521  16.390 -0.5577  0.2210  1.3663
17755TIP3    H274757   1.614   1.457  16.402 -0.4505 -0.2726 -0.0028
17756TIP3   OH274758   2.367   3.260  15.453  0.3040  0.2533 -0.1614
17756TIP3    H174759   2.405   3.326  15.395 -0.5755  1.6485  0.7960
17756TIP3    H274760   2.432   3.250  15.523 -0.7546  2.2087  1.1670
17757TIP3   OH274761   2.891   5.087  16.835 -0.0381 -0.1084 -0.3764
17757TIP3    H174762   2.803   5.050  16.847  0.2142 -0.3591  0.8188
17757TIP3    H274763   2.950   5.021  16.871  0.5288  0.7311  0.2804
17758TIP3   OH274764   2.737   4.171   6.530  0.1400  0.1581  0.9899
17758TIP3    H174765   2.755   4.086   6.570  0.0265 -0.9083 -1.0983
17758TIP3    H274766   2.642   4.171   6.515  0.2624  0.2604  0.1738
17759TIP3   OH274767   6.275   2.217  15.111 -0.2265  0.2849  0.8580
17759TIP3    H174768   6.313   2.130  15.097 -0.5638  0.0344  1.5228
17759TIP3    H274769   6.345   2.277  15.084  0.1949 -0.1841  0.8930
17760TIP3   OH274770   4.873   3.511  11.818 -0.0998 -0.5058  0.0716
17760TIP3    H174771   4.816   3.585  11.835 -0.4966 -1.0358  1.0448
17760TIP3    H274772   4.926   3.538  11.742 -1.0745  0.2915 -0.3276
17761TIP3   OH274773   1.153   3.105   0.230  0.0686 -0.3499  0.8672
17761TIP3    H174774   1.124   3.139   0.145  1.1285 -0.2255  0.5434
17761TIP3    H274775   1.100   3.026   0.244  0.4772 -0.8406 -0.3031
17762TIP3   OH274776   6.106   2.530   3.144 -0.7092 -0.1312  0.0471
17762TIP3    H174777   6.131   2.505   3.233 -1.8111 -0.1780  0.3573
17762TIP3    H274778   6.074   2.449   3.104 -0.9137  0.0430 -0.1470
17763TIP3   OH274779   3.587   5.397   3.557  0.4109  0.3012  0.2113
17763TIP3    H174780   3.576   5.449   3.636 -1.1722 -0.5870  0.5973
17763TIP3    H274781   3.632   5.318   3.586 -1.3529 -0.6273  0.5006
17764TIP3   OH274782   6.493   1.987   1.597  0.2834 -0.3604  0.3243
17764TIP3    H174783   6.466   2.079   1.594  0.2705 -0.3415  1.1089
17764TIP3    H274784   6.577   1.985   1.551 -0.0293 -0.0713 -0.2754
17765TIP3   OH274785   5.320   4.579  15.282 -0.1534 -0.2970  0.4252
17765TIP3    H174786   5.280   4.576  15.369 -0.5092  0.5801  0.3013
17765TIP3    H274787   5.414   4.585  15.299 -0.2159 -0.2337  0.7529
17766TIP3   OH274788   2.056   1.412   0.612  0.0121 -0.0908 -0.2998
17766TIP3    H174789   1.976   1.366   0.586 -0.8448  1.1606  0.0764
17766TIP3    H274790   2.031   1.463   0.689  0.8229  1.3511 -0.9695
17767TIP3   OH274791   1.479   4.700   2.104 -0.5943  0.6020  0.2296
17767TIP3    H174792   1.467   4.792   2.080  1.1208  0.8052  0.0410
17767TIP3    H274793   1.547   4.702   2.172  0.6547 -0.6351 -0.9426
17768TIP3   OH274794   4.137   2.688   2.835 -0.1209 -0.1549  0.3156
17768TIP3    H174795   4.092   2.630   2.774 -1.2362  0.2595  0.7270
17768TIP3    H274796   4.133   2.643   2.919  0.6468 -0.3256  0.2660
17769TIP3   OH274797   4.461   6.174   2.890  0.4404 -0.0481 -0.2852
17769TIP3    H174798   4.470   6.084   2.859  1.0833 -0.2755  0.5380
17769TIP3    H274799   4.516   6.225   2.831  0.4473 -0.2627 -0.4648
17770TIP3   OH274800   4.248   2.805  11.141  0.2371 -0.3757 -0.5310
17770TIP3    H174801   4.214   2.874  11.084  1.1659  0.0033 -0.6362
17770TIP3    H274802   4.299   2.749  11.083  0.4492 -0.4923 -0.2319
17771TIP3   OH274803   2.598   6.702   2.595 -0.5569 -0.2474  0.9167
17771TIP3    H174804   2.600   6.765   2.667 -0.2071  0.6799  0.1063
17771TIP3    H274805   2.684   6.710   2.553 -1.1608  0.0250 -0.2859
17772TIP3   OH274806   4.262   4.554  15.725 -0.5328 -0.5352  0.4606
17772TIP3    H174807   4.254   4.590  15.637 -1.8657 -2.3296 -0.1721
17772TIP3    H274808   4.356   4.558  15.744 -0.3424  0.6793 -0.6819
17773TIP3   OH274809   4.590   4.810  11.396  0.0797  0.3816 -0.0085
17773TIP3    H174810   4.681   4.787  11.377  0.7421  2.5985  0.3535
17773TIP3    H274811   4.591   4.841  11.487 -0.5537  2.7470 -0.7648
17774TIP3   OH274812   1.947   5.296   3.692  0.2251  0.0048 -0.2127
17774TIP3    H174813   1.922   5.208   3.722 -0.8110  0.0179 -1.0120
17774TIP3    H274814   2.000   5.332   3.763  0.3590 -1.1345  0.2731
17775TIP3   OH274815   4.532   4.017  13.009  0.0288  0.3159 -0.0377
17775TIP3    H174816   4.479   3.953  12.962  0.7653 -0.5493  0.3160
17775TIP3    H274817   4.488   4.101  12.992 -1.5410 -0.4168  0.3822
17776TIP3   OH274818   4.033   5.261   4.464  1.1059 -0.1290 -0.1352
17776TIP3    H174819   3.956   5.238   4.515  0.0285 -1.0931 -2.1132
17776TIP3    H274820   4.098   5.289   4.528 -0.1211 -1.5083  1.7382
17777TIP3   OH274821   2.926   3.472  13.563 -0.2159  0.3182 -0.7060
17777TIP3    H174822   2.929   3.555  13.611  2.1409  1.2534 -2.3429
17777TIP3    H274823   2.966   3.409  13.623 -0.9000  0.6166  0.0774
17778TIP3   OH274824   2.406   3.457   4.641  0.3480 -0.1135  0.0831
17778TIP3    H174825   2.377   3.504   4.563  4.2214 -2.7895 -3.2210
17778TIP3    H274826   2.463   3.519   4.687 -2.1315  1.5476  1.0065
17779TIP3   OH274827   0.910   5.660   5.968  0.5784  0.4075  0.5253
17779TIP3    H174828   0.998   5.687   5.995  0.8910 -0.7577  0.6870
17779TIP3    H274829   0.852   5.712   6.023  1.1338  2.4783 -0.8123
17780TIP3   OH274830   3.217   1.654   5.054 -0.3719 -0.6933  0.1416
17780TIP3    H174831   3.218   1.700   4.970 -0.3345 -0.1925  0.4153
17780TIP3    H274832   3.273   1.707   5.111 -0.2905 -1.1030  0.4465
17781TIP3   OH274833   5.063   0.760   1.525  0.0147  0.4061 -0.0164
17781TIP3    H174834   4.998   0.765   1.595  1.6916  2.1228  1.4835
17781TIP3    H274835   5.141   0.725   1.568  0.4680 -0.4876 -1.5251
17782TIP3   OH274836   0.634   2.249  16.072  0.0549 -0.2909 -0.2164
17782TIP3    H174837   0.564   2.184  16.071 -0.1947 -0.0738 -4.1530
17782TIP3    H274838   0.714   2.197  16.061  0.0265 -0.1239 -1.2648
17783TIP3   OH274839   5.525   1.989  11.115  0.5071  0.0834  0.3467
17783TIP3    H174840   5.561   1.985  11.203 -3.2815 -0.7409  1.9667
17783TIP3    H274841   5.469   1.912  11.108  1.3307 -0.3146 -3.1137
17784TIP3   OH274842   4.129   1.545   6.224 -0.4821  0.0852  0.7395
17784TIP3    H174843   4.203   1.484   6.231 -0.2692  0.3419  0.7037
17784TIP3    H274844   4.052   1.488   6.229 -0.2866 -0.1697  0.9213
17785TIP3   OH274845   6.161   6.483   0.982 -0.1980 -0.1098  0.3085
17785TIP3    H174846   6.086   6.438   1.021  0.3980  0.8364  2.6536
17785TIP3    H274847   6.219   6.412   0.954 -0.6499 -0.8392  1.1618
17786TIP3   OH274848   4.255   3.333  14.132 -0.1970  0.0477  0.1045
17786TIP3    H174849   4.189   3.343  14.064 -1.6926 -0.6516  1.4311
17786TIP3    H274850   4.236   3.404  14.194 -0.2719 -0.7134  0.9548
17787TIP3   OH274851   5.300   5.332  16.447 -0.5630  0.0971  0.3373
17787TIP3    H174852   5.218   5.361  16.486 -0.8315 -0.6308  0.3167
17787TIP3    H274853   5.337   5.271  16.511  0.2899  0.9216  0.6552
17788TIP3   OH274854   1.302   6.037   5.533  0.2021 -0.3608 -0.3098
17788TIP3    H174855   1.279   6.114   5.586 -2.2191 -0.9210 -0.4562
17788TIP3    H274856   1.260   5.964   5.579  2.5776 -1.6522 -0.1022
17789TIP3   OH274857   3.008   4.284   1.395 -0.3877 -0.4109  0.8006
17789TIP3    H174858   3.094   4.242   1.403  0.2367  1.0098  1.7395
17789TIP3    H274859   3.012   4.359   1.454 -2.3326 -0.3994  0.9662
17790TIP3   OH274860   5.268   2.466  11.526 -0.6356  0.0698  0.2678
17790TIP3    H174861   5.337   2.418  11.572  0.7967  3.3435  1.7592
17790TIP3    H274862   5.191   2.459  11.582  0.1638  1.2089  1.5473
17791TIP3   OH274863   3.835   1.576  13.109 -0.2514  0.0714  0.5165
17791TIP3    H174864   3.835   1.615  13.196 -0.3532 -1.3292  1.1614
17791TIP3    H274865   3.928   1.572  13.085 -0.1974  0.1641  0.7040
17792TIP3   OH274866   2.606   5.187   0.151  0.0054  0.2877 -0.2238
17792TIP3    H174867   2.549   5.196   0.227  0.5603  1.8702  0.0373
17792TIP3    H274868   2.551   5.149   0.083  0.1234 -3.3789  1.6396
17793TIP3   OH274869   4.295   0.189  14.673 -0.1699  0.2871  0.0672
17793TIP3    H174870   4.325   0.225  14.756 -0.3221 -2.9148  1.5968
17793TIP3    H274871   4.202   0.171  14.687 -0.1681 -0.3847 -0.7560
17794TIP3   OH274872   2.896   6.626  14.333  0.2329  0.4677  0.2066
17794TIP3    H174873   2.807   6.590  14.331  0.3597 -0.1002  2.9916
17794TIP3    H274874   2.950   6.562  14.288 -0.4976  0.0287 -0.0443
17795TIP3   OH274875   4.309   0.559   0.929 -0.5605 -0.0145 -0.3804
17795TIP3    H174876   4.382   0.611   0.964 -1.8866  0.9841  0.9485
17795TIP3    H274877   4.289   0.600   0.845 -0.3671  0.4672 -0.1978
17796TIP3   OH274878   6.584   4.274   4.621 -0.0526  0.1299  0.3069
17796TIP3    H174879   6.497   4.285   4.583 -1.1030 -1.7450  2.1238
17796TIP3    H274880   6.573   4.208   4.689  2.3489  1.4595  2.0707
17797TIP3   OH274881   1.376   4.620  16.875 -0.6364 -0.1035  0.1557
17797TIP3    H174882   1.373   4.714  16.855  0.8012  0.7837  3.7850
17797TIP3    H274883   1.469   4.598  16.873 -0.9518 -1.4057 -0.4427
17798TIP3   OH274884   6.724   4.935  14.982 -0.1323  0.0509 -0.1415
17798TIP3    H174885   6.795   4.962  14.925  0.6862  1.7341  1.6077
17798TIP3    H274886   6.650   4.990  14.957  0.5099  1.4786  1.0495
17799TIP3   OH274887   6.577   3.548   5.052  0.2326 -0.3333 -0.3186
17799TIP3    H174888   6.657   3.552   5.104  0.4750  0.6282 -0.7477
17799TIP3    H274889   6.507   3.534   5.115  0.6052  0.0852  0.1914
17800TIP3   OH274890   0.478   4.945  12.950 -0.1242  0.2812  0.4321
17800TIP3    H174891   0.504   5.014  12.890 -0.5894  0.7433  0.7588
17800TIP3    H274892   0.487   4.864  12.899 -2.3888  0.8367 -0.8990
17801TIP3   OH274893   4.032   5.801  15.118 -0.0706 -0.4157 -0.1124
17801TIP3    H174894   4.087   5.754  15.181 -0.3238 -1.1518 -0.4437
17801TIP3    H274895   3.950   5.818  15.166  0.0991 -0.1283  0.0749
17802TIP3   OH274896   2.517   1.665  10.946 -0.3532  0.3230  0.3167
17802TIP3    H174897   2.524   1.610  11.024 -0.8523  0.1087  0.2155
17802TIP3    H274898   2.460   1.616  10.887  1.5041 -0.3736 -0.9316
17803TIP3   OH274899   1.118   3.095  14.501 -0.2570  0.2844  0.3373
17803TIP3    H174900   1.102   3.108  14.595  0.7929  1.4914  0.3656
17803TIP3    H274901   1.045   3.140  14.458 -0.8645 -0.4674  0.5721
17804TIP3   OH274902   5.172   1.550  17.034  0.5490  0.7150 -0.0910
17804TIP3    H174903   5.267   1.540  17.033  0.5727  0.7216 -2.7348
17804TIP3    H274904   5.155   1.618  16.968 -1.2121  1.4931  1.1294
17805TIP3   OH274905   1.300   2.017  14.250  0.1422  0.4770 -0.3974
17805TIP3    H174906   1.220   2.011  14.303  0.2874  0.3792 -0.1874
17805TIP3    H274907   1.279   1.967  14.171 -0.3816  1.3636 -0.8213
17806TIP3   OH274908   2.925   5.655   1.153 -0.3626 -0.4337 -0.0059
17806TIP3    H174909   2.853   5.623   1.099  1.2746 -0.8567 -1.9868
17806TIP3    H274910   2.929   5.595   1.227 -2.3534 -0.1004  0.4020
17807TIP3   OH274911   4.249   0.280   0.927 -0.1633  0.4519  0.0235
17807TIP3    H174912   4.300   0.282   1.008 -0.6192  0.9907  0.3078
17807TIP3    H274913   4.253   0.369   0.893 -0.5050  0.3852 -0.2051
17808TIP3   OH274914   2.221   6.167  14.459 -0.2849 -0.1806  0.4032
17808TIP3    H174915   2.157   6.211  14.516 -2.9689  1.1561 -3.4119
17808TIP3    H274916   2.179   6.084  14.437  1.1816 -1.1253  1.1365
17809TIP3   OH274917   6.231   4.594  16.291 -0.1459 -0.6328 -0.1278
17809TIP3    H174918   6.223   4.554  16.204 -1.5592 -0.1167 -0.2528
17809TIP3    H274919   6.221   4.687  16.276  2.6662 -0.2212  0.2306
17810TIP3   OH274920   4.869   2.696  15.427  0.4778 -0.6719  0.1802
17810TIP3    H174921   4.885   2.739  15.512  1.2675  0.0439 -0.3204
17810TIP3    H274922   4.822   2.616  15.449  0.1046 -0.1687  1.2475
17811TIP3   OH274923   4.567   3.799  11.304  0.2568  0.2079 -0.0546
17811TIP3    H174924   4.655   3.763  11.310 -1.0568 -3.2097 -0.0642
17811TIP3    H274925   4.540   3.780  11.214 -1.8115 -2.1992  1.0175
17812TIP3   OH274926   5.629   1.148  13.648 -0.9012 -0.2697  0.3075
17812TIP3    H174927   5.640   1.218  13.712 -1.9098  1.0490 -0.9503
17812TIP3    H274928   5.716   1.138  13.608 -0.5284 -0.3953  1.1358
17813TIP3   OH274929   4.262   3.182  17.040  0.2248  0.6182  0.4514
17813TIP3    H174930   4.248   3.141  17.125  0.9425 -0.5577  0.0129
17813TIP3    H274931   4.353   3.210  17.042  0.7803 -1.0218 -0.5850
17814TIP3   OH274932   6.769   4.050   0.281 -0.0915 -0.0178 -0.0157
17814TIP3    H174933   6.695   4.007   0.324  0.2529 -0.6682 -0.0601
17814TIP3    H274934   6.811   3.980   0.231 -0.2683  0.6591 -1.1121
17815TIP3   OH274935   1.221   3.588   0.037 -0.7521  0.3219  0.0197
17815TIP3    H174936   1.178   3.511  -0.001  2.0404 -1.3912  0.1760
17815TIP3    H274937   1.152   3.632   0.086 -1.9570 -3.2475  1.6719
17816TIP3   OH274938   0.672   4.658   5.127  0.1104  0.1551 -0.7387
17816TIP3    H174939   0.685   4.726   5.061  0.3548  0.3809 -0.4564
17816TIP3    H274940   0.680   4.704   5.211  0.3938 -0.2431 -0.5476
17817TIP3   OH274941   1.474   6.275  11.552 -0.8398  0.0507 -0.4007
17817TIP3    H174942   1.536   6.202  11.549 -0.6868  0.2145 -1.2591
17817TIP3    H274943   1.388   6.234  11.553 -0.8315 -0.1280 -3.2279
17818TIP3   OH274944   4.965   5.706   4.024 -0.2884 -0.1154  0.5406
17818TIP3    H174945   4.932   5.747   4.104 -1.1500 -0.8427  0.5716
17818TIP3    H274946   4.988   5.617   4.051 -2.1105 -0.8903 -0.3498
17819TIP3   OH274947   3.979   4.924   0.090  0.0006 -0.6029 -0.7937
17819TIP3    H174948   4.025   5.006   0.071  0.0444 -0.2912  0.5991
17819TIP3    H274949   4.043   4.856   0.070  1.6258 -0.1300  2.4703
17820TIP3   OH274950   1.815   1.144  12.256 -0.3971 -0.3854 -0.2766
17820TIP3    H174951   1.787   1.103  12.175  1.5336  1.3752 -1.8811
17820TIP3    H274952   1.740   1.195  12.285 -1.2576 -1.4086 -0.6621
17821TIP3   OH274953   1.459   0.562   4.189  0.3064 -0.2585  0.4011
17821TIP3    H174954   1.547   0.527   4.199  0.3211  0.2191  2.1057
17821TIP3    H274955   1.425   0.520   4.110  2.1166 -0.3084 -0.3606
17822TIP3   OH274956   4.734   2.622  17.223  0.0280  0.3183  0.5672
17822TIP3    H174957   4.695   2.704  17.253  0.8339  1.4552 -1.3876
17822TIP3    H274958   4.825   2.626  17.250  0.5209  0.9149 -1.1077
17823TIP3   OH274959   3.403   3.483   1.412  0.0483  0.1581 -0.1695
17823TIP3    H174960   3.352   3.462   1.490 -2.2443  0.5919 -1.4970
17823TIP3    H274961   3.454   3.560   1.436 -1.9937  1.3774  0.3891
17824TIP3   OH274962   6.803   1.842   0.492  0.0263  0.1134  0.2381
17824TIP3    H174963   6.753   1.877   0.566 -1.0785 -1.0839  0.0835
17824TIP3    H274964   6.806   1.747   0.507  1.1434  0.0330 -0.4370
17825TIP3   OH274965   3.703   5.824  16.654  0.2123 -0.3423 -0.1236
17825TIP3    H174966   3.717   5.910  16.614  3.3772 -1.1836 -0.9747
17825TIP3    H274967   3.665   5.844  16.740  0.8231  1.9189 -0.3401
17826TIP3   OH274968   2.125   4.561  10.785 -0.2811 -0.2353  0.6964
17826TIP3    H174969   2.077   4.599  10.858  0.9150 -0.1741  1.4553
17826TIP3    H274970   2.096   4.611  10.708 -2.2645 -0.9212  0.9516
17827TIP3   OH274971   4.260   5.310  16.541  0.4604 -0.1446 -0.2912
17827TIP3    H174972   4.332   5.266  16.495  0.3852 -0.3989 -0.1683
17827TIP3    H274973   4.185   5.252  16.527  0.1270  0.4610 -0.9845
17828TIP3   OH274974   0.103   1.308  11.302  0.0246  0.0527  0.3784
17828TIP3    H174975   0.190   1.304  11.264 -0.8360 -1.3952 -1.5411
17828TIP3    H274976   0.082   1.217  11.325 -1.1084  0.3369  0.5006
17829TIP3   OH274977   4.223   2.111  12.517 -0.3322 -0.7942  0.2352
17829TIP3    H174978   4.268   2.122  12.600 -0.8338 -0.4780  0.4670
17829TIP3    H274979   4.249   2.024  12.486  1.0750 -0.2854 -0.0336
17830TIP3   OH274980   3.413   0.776   3.148 -0.0162  0.3347  0.1620
17830TIP3    H174981   3.437   0.812   3.062  0.3639 -2.0934 -0.7917
17830TIP3    H274982   3.479   0.810   3.207  1.0594  0.2283 -0.9497
17831TIP3   OH274983   2.799   4.998  11.564  0.0622  0.1792 -0.7888
17831TIP3    H174984   2.722   4.941  11.571  0.1420  0.2536  1.1137
17831TIP3    H274985   2.859   4.965  11.631 -0.4480  3.3134  1.3250
17832TIP3   OH274986   6.390   0.351  13.264 -0.3475  0.7028  0.4694
17832TIP3    H174987   6.297   0.363  13.249 -0.6003 -1.4881  0.1745
17832TIP3    H274988   6.401   0.257  13.280  1.8794  0.8220 -0.0806
17833TIP3   OH274989   3.028   3.961   3.839 -0.1988  0.3997 -0.0183
17833TIP3    H174990   2.978   3.997   3.766  2.0208 -0.4012 -1.9970
17833TIP3    H274991   3.044   4.036   3.896  0.1850  1.5837 -1.6387
17834TIP3   OH274992   2.400   1.070   2.732 -0.1368  0.2054  0.3811
17834TIP3    H174993   2.401   1.107   2.820 -0.7657  0.7679  0.1624
17834TIP3    H274994   2.358   1.138   2.678 -0.2220 -0.3408 -0.2526
17835TIP3   OH274995   2.571   0.531  16.063  0.4637 -0.6342 -0.4950
17835TIP3    H174996   2.635   0.533  15.992  0.7669  0.8240 -0.1891
17835TIP3    H274997   2.539   0.621  16.070 -1.7607 -1.3742 -0.7521
17836TIP3   OH274998   3.608   0.816  13.168  0.3755  0.1512  0.7178
17836TIP3    H174999   3.632   0.858  13.251  1.1030  0.4596  0.3525
17836TIP3    H275000   3.625   0.883  13.102 -3.0794  1.0091  0.5803
17837TIP3   OH275001   2.375   4.651  14.365  0.6831  0.1142 -0.9066
17837TIP3    H175002   2.295   4.656  14.313  0.9167 -0.5428 -1.3340
17837TIP3    H275003   2.438   4.707  14.318  0.3028  1.1038 -0.2511
17838TIP3   OH275004   2.375   4.241  10.608 -0.2051  0.9011  0.3169
17838TIP3    H175005   2.422   4.158  10.603 -1.4983  0.1536  0.2575
17838TIP3    H275006   2.352   4.261  10.517  0.6541  1.6477  0.2638
17839TIP3   OH275007   5.023   0.498  17.156 -0.1788 -0.6039 -0.1044
17839TIP3    H175008   5.092   0.445  17.196 -1.0985 -0.7730  1.2986
17839TIP3    H275009   4.998   0.449  17.077  0.3916 -1.2079  0.0829
17840TIP3   OH275010   0.535   2.197  16.923  1.0283  0.5088  0.0835
17840TIP3    H175011   0.629   2.207  16.904  0.8821  0.4248 -0.7309
17840TIP3    H275012   0.492   2.221  16.840  0.3842 -0.6156  0.0860
17841TIP3   OH275013   3.209   5.627  11.225  0.5997 -0.0183 -0.4776
17841TIP3    H175014   3.278   5.677  11.181 -0.9362  1.2274 -1.5073
17841TIP3    H275015   3.145   5.693  11.251 -0.2899 -1.1861  0.3274
17842TIP3   OH275016   6.149   1.543  12.908 -0.2491 -0.6349 -0.1309
17842TIP3    H175017   6.236   1.530  12.870 -1.4751 -1.6363 -2.6722
17842TIP3    H275018   6.112   1.455  12.915 -1.6239 -0.1020 -0.4952
17843TIP3   OH275019   6.308   6.794  12.308 -0.5560 -0.0356  0.1327
17843TIP3    H175020   6.384   6.852  12.307  0.0006 -0.6995  1.6806
17843TIP3    H275021   6.330   6.724  12.246 -0.1846  0.1264  0.0800
17844TIP3   OH275022   1.361   1.676   2.373 -0.0919 -0.2003  0.1240
17844TIP3    H175023   1.278   1.666   2.327 -1.7033  2.9010  2.2454
17844TIP3    H275024   1.362   1.606   2.438 -1.4212  0.2556  0.6337
17845TIP3   OH275025   6.252   4.250   5.031  0.4847  0.2663  0.0537
17845TIP3    H175026   6.157   4.244   5.040  0.3289  0.8862 -1.0893
17845TIP3    H275027   6.267   4.334   4.989  1.2128 -1.7955 -4.0182
17846TIP3   OH275028   2.627   0.571  16.724  0.4780 -0.1670 -0.4381
17846TIP3    H175029   2.581   0.523  16.793  0.8741  2.1428  1.5137
17846TIP3    H275030   2.684   0.506  16.683 -2.1904 -2.3559 -0.8483
17847TIP3   OH275031   4.084   3.692   0.153  0.2548 -0.7628  0.2753
17847TIP3    H175032   4.179   3.684   0.143  0.3904 -0.6414  1.5003
17847TIP3    H275033   4.069   3.697   0.247 -0.8692  0.5754  0.0476
17848TIP3   OH275034   0.098   1.501  14.944 -0.0334 -0.6357  0.1682
17848TIP3    H175035   0.148   1.445  15.003  0.9570 -0.6463 -0.6510
17848TIP3    H275036   0.162   1.528  14.878 -1.0412 -0.3586 -0.7051
17849TIP3   OH275037   0.284   4.113   3.950 -0.5175  0.2831 -0.0033
17849TIP3    H175038   0.241   4.166   4.017 -1.3706  0.7003 -0.8703
17849TIP3    H275039   0.371   4.153   3.940 -0.4473  0.3144  0.7345
17850TIP3   OH275040   4.884   1.310  14.059 -0.2301 -0.2070 -0.2644
17850TIP3    H175041   4.810   1.345  14.010 -0.1513  0.4879  0.1031
17850TIP3    H275042   4.900   1.224  14.021 -0.5513  0.0790 -1.0537
17851TIP3   OH275043   1.713   5.368   3.301 -0.9074 -0.3512 -0.1177
17851TIP3    H175044   1.662   5.446   3.323  0.4825  1.1911 -2.2440
17851TIP3    H275045   1.801   5.387   3.333 -0.6776 -1.2847 -0.1733
17852TIP3   OH275046   6.219   2.756   0.553  0.4309  0.2381 -0.4026
17852TIP3    H175047   6.300   2.786   0.595  0.2847  0.5453 -0.3464
17852TIP3    H275048   6.159   2.830   0.559  0.2266  0.0941 -0.6671
17853TIP3   OH275049   6.018   2.470   4.372  0.3630  0.0256 -0.1084
17853TIP3    H175050   6.112   2.479   4.361 -0.0443  0.0830 -4.2021
17853TIP3    H275051   5.982   2.554   4.342 -0.9931  0.2409  2.0044
17854TIP3   OH275052   3.109   6.809  15.235 -0.2685  0.4111 -0.3469
17854TIP3    H175053   3.062   6.822  15.153  0.1361  2.1478 -0.3270
17854TIP3    H275054   3.201   6.826  15.214 -0.0258 -0.1383  0.2449
17855TIP3   OH275055   4.005   3.593   3.705  0.2092 -0.1202  0.0947
17855TIP3    H175056   3.955   3.521   3.668 -0.6875  0.1086  0.8465
17855TIP3    H275057   4.055   3.628   3.632 -1.3301  0.1582 -0.8438
17856TIP3   OH275058   1.749   6.161   2.558 -0.7628 -0.4144  0.1092
17856TIP3    H175059   1.672   6.119   2.520 -1.5883  1.4654 -0.2979
17856TIP3    H275060   1.797   6.196   2.483 -1.9074  2.4831  0.7021
17857TIP3   OH275061   1.885   0.312   4.931  0.7368 -0.4787  0.1531
17857TIP3    H175062   1.875   0.321   5.026 -0.4573  1.3383 -0.1221
17857TIP3    H275063   1.865   0.399   4.897  1.3220 -1.0830 -1.7587
17858TIP3   OH275064   0.710   0.582   2.430  0.3063 -0.2196 -0.4315
17858TIP3    H175065   0.696   0.675   2.447 -1.0899 -0.7702  1.7898
17858TIP3    H275066   0.760   0.552   2.506 -0.7403 -1.5895 -0.2621
17859TIP3   OH275067   0.008   5.969  12.193 -0.1226 -0.7292  0.0850
17859TIP3    H175068  -0.077   6.011  12.178  0.0783 -0.2500  0.2951
17859TIP3    H275069   0.036   5.941  12.106 -0.2861 -0.4881 -0.0456
17860TIP3   OH275070   0.430   6.233  15.136  0.0902  0.0524  0.0517
17860TIP3    H175071   0.449   6.304  15.197  2.1406 -0.2647 -0.1607
17860TIP3    H275072   0.425   6.275  15.050  0.5878  0.0428  0.0168
17861TIP3   OH275073   4.922   1.843  11.289  0.3495 -0.4244  0.1480
17861TIP3    H175074   4.920   1.932  11.324  0.6301 -0.1195 -0.5938
17861TIP3    H275075   4.912   1.855  11.194 -0.3837 -1.2325  0.1203
17862TIP3   OH275076   6.530   4.438   1.670 -0.7317  0.1636 -0.0692
17862TIP3    H175077   6.436   4.431   1.686 -1.0678  2.4287 -0.9063
17862TIP3    H275078   6.538   4.467   1.579  0.7525  0.2807  0.0781
17863TIP3   OH275079   1.651   0.024   4.165  0.1843  0.0747  0.1997
17863TIP3    H175080   1.586  -0.045   4.169 -1.4262  1.4616 -1.3004
17863TIP3    H275081   1.681   0.023   4.074 -3.5812  4.5880 -1.2867
17864TIP3   OH275082   0.397   6.688   5.618 -0.3370  0.3224 -0.6526
17864TIP3    H175083   0.386   6.685   5.713 -0.2442  0.1448 -0.6467
17864TIP3    H275084   0.321   6.738   5.586 -0.4930  0.1806 -0.5054
17865TIP3   OH275085   0.892   3.636   1.467 -0.0575  0.1053  0.0535
17865TIP3    H175086   0.830   3.601   1.531  1.2973 -0.0919  1.2742
17865TIP3    H275087   0.932   3.711   1.511 -1.0395  1.6377 -1.5636
17866TIP3   OH275088   6.642   0.188   4.387 -0.5869  0.0286 -0.0966
17866TIP3    H175089   6.730   0.208   4.418 -0.6398 -1.2576  0.9083
17866TIP3    H275090   6.586   0.254   4.428 -0.2027  0.4155 -0.1858
17867TIP3   OH275091   3.624   0.078   6.508 -0.2939  0.1769  0.1232
17867TIP3    H175092   3.601   0.009   6.446 -0.7790  1.4265 -1.1211
17867TIP3    H275093   3.540   0.107   6.544 -0.2940  1.5740 -0.9645
17868TIP3   OH275094   6.221   6.387   2.228 -0.2092  0.3681 -0.7306
17868TIP3    H175095   6.225   6.468   2.280  1.4171 -1.0758  1.4693
17868TIP3    H275096   6.156   6.406   2.160  0.0723  3.4943 -0.2257
17869TIP3   OH275097   2.731   6.005  16.853 -0.1929 -0.1863  0.4094
17869TIP3    H175098   2.707   6.089  16.813  0.3705 -0.8042 -1.2968
17869TIP3    H275099   2.669   5.993  16.924  0.4219  2.2083  1.4016
17870TIP3   OH275100   0.119   0.381   3.533  0.1261  0.4803 -0.9492
17870TIP3    H175101   0.169   0.306   3.564 -0.2378  0.2926 -0.8126
17870TIP3    H275102   0.125   0.376   3.437 -2.5608 -1.5795 -1.0828
17871TIP3   OH275103   2.124   3.359   1.805  0.1682  0.3217  0.2884
17871TIP3    H175104   2.210   3.328   1.779 -0.2462 -0.2588 -0.4093
17871TIP3    H275105   2.092   3.295   1.868 -0.1942 -0.0405 -0.2592
17872TIP3   OH275106   4.567   4.605   0.725  0.3422  0.1617  0.0654
17872TIP3    H175107   4.533   4.596   0.636  1.4879 -1.2198 -0.2423
17872TIP3    H275108   4.661   4.618   0.715  0.6102 -0.8549  1.0945
17873TIP3   OH275109   4.810   4.267  13.302 -0.1530 -0.4707 -0.3349
17873TIP3    H175110   4.888   4.225  13.338 -1.1780 -0.7174  1.6651
17873TIP3    H275111   4.747   4.195  13.293 -1.0184  0.1578  0.5856
17874TIP3   OH275112   6.726   2.658  11.536 -0.5973 -0.5883 -0.1072
17874TIP3    H175113   6.722   2.699  11.450  2.9937 -0.4572 -0.2853
17874TIP3    H275114   6.718   2.731  11.598  0.0833 -0.3056 -0.3558
17875TIP3   OH275115   1.830   0.601   5.897  0.4179  0.6025 -0.4429
17875TIP3    H175116   1.736   0.617   5.905  0.7517  2.3949  0.2708
17875TIP3    H275117   1.849   0.614   5.804 -0.3808 -1.9313 -0.9960
17876TIP3   OH275118   5.836   1.667  15.593 -0.6196  0.5878  0.1453
17876TIP3    H175119   5.753   1.619  15.592 -0.7736  0.8615 -0.6667
17876TIP3    H275120   5.899   1.609  15.550 -0.8355  1.1465 -0.9521
17877TIP3   OH275121   2.878   0.818   2.185 -0.0460  0.0898 -0.8567
17877TIP3    H175122   2.880   0.774   2.099  1.1681  1.2599 -1.4435
17877TIP3    H275123   2.922   0.757   2.244  0.2015 -0.1995 -1.3352
17878TIP3   OH275124   1.491   5.461   4.938 -0.4703 -0.4931 -0.3485
17878TIP3    H175125   1.564   5.455   4.877  0.5330 -0.5876  0.8401
17878TIP3    H275126   1.428   5.396   4.906  0.6814 -1.5865 -0.4551
17879TIP3   OH275127   2.726   1.582  16.247 -0.2718  0.2925  0.3977
17879TIP3    H175128   2.674   1.588  16.327 -0.1936 -0.0878  0.4821
17879TIP3    H275129   2.685   1.510  16.198 -1.0248  1.2774 -0.4182
17880TIP3   OH275130   6.521   0.435  11.583 -0.0053  0.6324 -0.5082
17880TIP3    H175131   6.457   0.506  11.586 -0.3917  0.3556 -1.5690
17880TIP3    H275132   6.585   0.463  11.517  2.0028  1.7229  1.8218
17881TIP3   OH275133   5.747   1.342  13.011 -0.2718  0.5754 -0.6845
17881TIP3    H175134   5.663   1.299  12.992 -0.7087  1.6690 -1.3246
17881TIP3    H275135   5.813   1.283  12.976 -0.5721 -1.6519  2.2559
17882TIP3   OH275136   5.869   3.572  13.730  0.4016 -0.2241 -0.7475
17882TIP3    H175137   5.848   3.652  13.681 -1.4865 -1.3678 -1.8813
17882TIP3    H275138   5.790   3.518  13.723  0.5919 -1.0006  2.4678
17883TIP3   OH275139   4.949   2.947  12.878 -0.5023 -0.4643 -0.1727
17883TIP3    H175140   4.919   3.034  12.850  1.9112  0.6980  0.6755
17883TIP3    H275141   5.043   2.947  12.860 -0.0001 -1.9194  2.2332
17884TIP3   OH275142   4.981   3.998   3.492  0.4518  0.5432 -0.6276
17884TIP3    H175143   5.009   4.083   3.527  0.1058  0.3027  0.2465
17884TIP3    H275144   4.909   3.971   3.549 -0.3459  0.2852 -1.7282
17885TIP3   OH275145   5.630   2.883  14.892 -0.3150  0.1463  0.1289
17885TIP3    H175146   5.637   2.819  14.963  1.4491 -0.6198 -0.7089
17885TIP3    H275147   5.701   2.944  14.907 -0.4584  0.4707 -0.4927
17886TIP3   OH275148   5.126   6.598  11.713  0.4461 -0.7525  0.5953
17886TIP3    H175149   5.030   6.600  11.716  0.4331 -1.1942  0.5056
17886TIP3    H275150   5.147   6.578  11.622  0.6435  0.4017  0.3816
17887TIP3   OH275151   4.165   0.114   1.802 -0.1647  0.2342  0.1140
17887TIP3    H175152   4.152   0.076   1.715  1.4192 -0.0366 -0.0215
17887TIP3    H275153   4.260   0.114   1.814 -0.3286  1.0643  1.4962
17888TIP3   OH275154   5.766   2.859   1.720 -0.4643 -0.3839 -0.2278
17888TIP3    H175155   5.814   2.850   1.637 -2.1157 -1.4388 -1.0890
17888TIP3    H275156   5.778   2.950   1.745  2.0410 -0.6258 -0.3902
17889TIP3   OH275157   5.159   5.937  13.047 -0.1309  0.1448  0.8332
17889TIP3    H175158   5.252   5.930  13.064  0.2193  0.0718 -0.9468
17889TIP3    H275159   5.150   6.015  12.992 -0.8752 -0.7852 -0.4164
17890TIP3   OH275160   3.998   0.751   2.409  0.5465 -0.2107  0.0998
17890TIP3    H175161   3.905   0.738   2.425  0.8832  0.4003  2.7897
17890TIP3    H275162   4.002   0.825   2.348 -0.7280 -0.3183 -0.1219
17891TIP3   OH275163   1.529   0.645   2.038 -0.1609 -0.1498 -0.8422
17891TIP3    H175164   1.539   0.687   1.953  0.7954 -0.8689 -1.1074
17891TIP3    H275165   1.491   0.712   2.094  2.7518  1.6153 -0.8401
17892TIP3   OH275166   2.706   5.289  11.967 -0.6724  0.1955 -0.2262
17892TIP3    H175167   2.752   5.311  11.886 -0.0638  0.7730  0.2660
17892TIP3    H275168   2.613   5.288  11.943 -0.6453  2.3387 -0.5086
17893TIP3   OH275169   2.621   6.078  11.450 -0.3285  0.9228 -0.2961
17893TIP3    H175170   2.613   6.153  11.509  2.5293 -0.5429  2.0562
17893TIP3    H275171   2.662   6.114  11.371  0.5158  1.9273  0.5940
17894TIP3   OH275172   4.601   0.197   2.976 -0.1152 -0.0008  0.1448
17894TIP3    H175173   4.592   0.157   3.062 -1.1615 -0.6106 -0.2481
17894TIP3    H275174   4.517   0.182   2.933 -0.1102  1.5517 -0.4561
17895TIP3   OH275175   0.083   4.234  15.125 -0.5789  0.2393  0.0633
17895TIP3    H175176   0.054   4.249  15.035 -1.2485 -2.4345 -0.1871
17895TIP3    H275177   0.002   4.234  15.176 -0.3033  0.5748  0.4957
17896TIP3   OH275178   5.816   1.237  14.541 -0.0277 -0.1960 -0.2698
17896TIP3    H175179   5.749   1.218  14.476 -0.0191 -0.4941 -0.1899
17896TIP3    H275180   5.768   1.255  14.621 -0.0236 -0.1381 -0.2799
17897TIP3   OH275181   6.417   5.528   5.129 -0.5339 -0.4022  0.1865
17897TIP3    H175182   6.371   5.581   5.063  1.3725  2.1912  0.8283
17897TIP3    H275183   6.448   5.451   5.081  0.3540  1.1782 -1.8812
17898TIP3   OH275184   3.117   1.753  15.199 -0.4665  0.0792 -0.3952
17898TIP3    H175185   3.028   1.774  15.169 -0.6437  0.0705  0.1199
17898TIP3    H275186   3.104   1.706  15.281  0.0058 -0.1832 -0.4674
17899TIP3   OH275187   2.859   0.821   3.343 -0.1441 -0.1020 -0.5739
17899TIP3    H175188   2.855   0.755   3.274 -0.4232  0.9311 -1.5604
17899TIP3    H275189   2.771   0.859   3.346 -0.6403 -1.3401  1.5663
17900TIP3   OH275190   1.925   5.170   6.367  0.4787  0.1759  0.4803
17900TIP3    H175191   1.894   5.121   6.292  0.4420  0.6661  0.1724
17900TIP3    H275192   1.949   5.103   6.432 -1.2781 -0.2066  0.7564
17901TIP3   OH275193   0.654   3.715  13.858 -0.2590 -0.1521 -0.6171
17901TIP3    H175194   0.657   3.810  13.848 -1.6885 -0.0898 -0.4843
17901TIP3    H275195   0.561   3.693  13.855  0.0233 -1.4818  0.0031
17902TIP3   OH275196   2.749   3.296   5.120  0.1460  0.5396 -0.0092
17902TIP3    H175197   2.840   3.323   5.134  0.2664 -0.0541  0.3858
17902TIP3    H275198   2.735   3.226   5.184 -0.6143  0.6838 -0.0200
17903TIP3   OH275199   5.197   2.669   2.575 -0.3590  0.2326  0.3658
17903TIP3    H175200   5.162   2.753   2.602 -1.8274 -0.3132  0.2254
17903TIP3    H275201   5.163   2.607   2.639 -2.0258 -0.7337 -1.3890
17904TIP3   OH275202   6.483   0.737  16.193 -0.4224  0.5498 -0.1514
17904TIP3    H175203   6.520   0.815  16.235 -0.2366 -0.2884  1.2654
17904TIP3    H275204   6.539   0.722  16.117  1.8808 -0.3815  1.6547
17905TIP3   OH275205   5.092   4.734  12.686  0.0796  0.2780  0.0989
17905TIP3    H175206   5.072   4.816  12.731 -0.0323  0.1742  0.2345
17905TIP3    H275207   5.149   4.686  12.747 -0.9448 -0.3319  0.5768
17906TIP3   OH275208   6.037   6.365  15.113  0.5692 -0.8871  0.4926
17906TIP3    H175209   5.968   6.389  15.052  0.3525  1.4103  1.5692
17906TIP3    H275210   6.103   6.433  15.103  2.3440 -2.6330  0.0364
17907TIP3   OH275211   3.437   0.897  17.193 -0.0355  0.1567 -0.3488
17907TIP3    H175212   3.516   0.842  17.187 -1.1440 -1.5268  0.0418
17907TIP3    H275213   3.436   0.926  17.284  0.1562  0.2163 -0.3649
17908TIP3   OH275214   0.844   0.293  13.414  0.0998 -0.6034  0.4084
17908TIP3    H175215   0.833   0.386  13.399  1.0645 -0.7750 -1.6629
17908TIP3    H275216   0.765   0.253  13.378  1.1931 -0.8092 -1.8561
17909TIP3   OH275217   6.320   0.598   4.462  0.1724 -0.1965  0.1234
17909TIP3    H175218   6.291   0.622   4.373 -1.5903  1.1285  1.0189
17909TIP3    H275219   6.250   0.542   4.495  0.2348  0.3213  1.1283
17910TIP3   OH275220   3.325   0.280  17.268  0.0774 -0.2867  0.2451
17910TIP3    H175221   3.379   0.215  17.313 -2.1806 -1.9256  0.6588
17910TIP3    H275222   3.303   0.345  17.335 -1.0102 -1.2656  0.8468
17911TIP3   OH275223   3.621   1.710  16.959  0.0379 -0.8514 -0.0471
17911TIP3    H175224   3.564   1.639  16.927 -0.9155  0.9935 -2.6520
17911TIP3    H275225   3.587   1.788  16.915  0.9165  1.2714  2.9653
17912TIP3   OH275226   5.272   2.638   3.973  0.7169 -0.1070  0.6939
17912TIP3    H175227   5.309   2.721   4.003 -0.0168  0.2527  0.6109
17912TIP3    H275228   5.191   2.662   3.929  1.3405 -0.7176 -0.8307
17913TIP3   OH275229   5.575   4.558  15.313  0.3108  0.1499  0.8288
17913TIP3    H175230   5.614   4.470  15.311  1.6931  0.7677 -0.1455
17913TIP3    H275231   5.650   4.617  15.307 -0.6644  1.4007  0.8444
17914TIP3   OH275232   1.698   4.456   0.395  0.2806  0.0069  0.0781
17914TIP3    H175233   1.610   4.439   0.430  0.0546  1.1088  0.0679
17914TIP3    H275234   1.696   4.418   0.307 -0.3700  0.5359 -0.1339
17915TIP3   OH275235   0.049   5.235   5.245  0.0011  0.2379  0.3995
17915TIP3    H175236   0.040   5.243   5.150 -1.4406  2.3456  0.6846
17915TIP3    H275237   0.048   5.141   5.261  1.8125 -0.2067 -1.7938
17916TIP3   OH275238   1.297   2.533   4.645  0.3499  0.0735 -0.1343
17916TIP3    H175239   1.364   2.479   4.604  1.5931 -0.1753  2.1629
17916TIP3    H275240   1.330   2.623   4.636  0.6131  0.0206  0.3457
17917TIP3   OH275241   0.765   2.119   5.563  0.4094 -0.3597 -0.3454
17917TIP3    H175242   0.785   2.207   5.532 -2.1404  0.1409 -0.7187
17917TIP3    H275243   0.734   2.131   5.653 -3.9569 -0.2783 -1.7318
17918TIP3   OH275244   2.955   6.773  12.119  0.1056 -0.3953 -0.7678
17918TIP3    H175245   2.909   6.822  12.052 -1.0760 -0.0275  0.2943
17918TIP3    H275246   2.913   6.799  12.201  0.3215 -2.2148 -0.0682
17919TIP3   OH275247   5.822   5.485   5.379  0.1147  0.9044 -0.0263
17919TIP3    H175248   5.793   5.575   5.394  1.2114  0.9643  1.8553
17919TIP3    H275249   5.917   5.491   5.372  0.3955 -0.3419  2.2127
17920TIP3   OH275250   3.647   2.551  14.206  0.1213 -0.8414 -0.4310
17920TIP3    H175251   3.625   2.458  14.194  1.1486 -1.0074 -1.1553
17920TIP3    H275252   3.565   2.597  14.189 -0.6528 -1.6720  0.9294
17921TIP3   OH275253   0.694   0.140  16.339  0.6110  0.3209  0.2074
17921TIP3    H175254   0.648   0.109  16.261  0.3729  1.1098  0.0374
17921TIP3    H275255   0.638   0.112  16.412 -0.9424  2.5935 -0.0618
17922TIP3   OH275256   6.778   6.573  12.700 -0.2923 -0.1852 -0.6288
17922TIP3    H175257   6.704   6.584  12.641 -0.7002 -0.7797 -0.2348
17922TIP3    H275258   6.764   6.487  12.740 -1.0180  0.9783  1.7098
17923TIP3   OH275259   3.501   6.315  13.397  0.1984  0.2230  0.4455
17923TIP3    H175260   3.528   6.235  13.352 -0.5203 -0.7644  1.7233
17923TIP3    H275261   3.569   6.378  13.377  0.1144 -0.3057 -1.6642
17924TIP3   OH275262   6.239   2.248   5.742  0.0181  0.0019 -0.1729
17924TIP3    H175263   6.291   2.171   5.763  0.4681  0.1326 -0.7818
17924TIP3    H275264   6.212   2.235   5.651  0.6562  0.8785 -0.4918
17925TIP3   OH275265   2.841   4.998  13.019  0.1942  0.1066  0.2134
17925TIP3    H175266   2.815   4.947  12.942 -1.7001 -1.9542  2.1694
17925TIP3    H275267   2.773   5.066  13.026 -1.1886 -1.3672  1.5904
17926TIP3   OH275268   6.306   3.660   4.935 -0.0673 -0.1701  0.3942
17926TIP3    H175269   6.380   3.694   4.883 -1.6200 -0.6462 -2.2048
17926TIP3    H275270   6.281   3.734   4.991  2.6251 -0.1366  1.6181
17927TIP3   OH275271   0.906   2.892  14.660 -0.0410 -0.4143 -0.5829
17927TIP3    H175272   0.952   2.943  14.593 -0.3027 -1.1346 -1.3151
17927TIP3    H275273   0.941   2.925  14.743  2.7680 -1.8527 -1.1525
17928TIP3   OH275274   4.382   5.174  12.084  0.0398  0.6550 -0.4398
17928TIP3    H175275   4.345   5.105  12.139 -0.0172  1.5233  0.6326
17928TIP3    H275276   4.361   5.148  11.995  0.2887 -0.8693 -0.0651
17929TIP3   OH275277   1.687   2.402  12.265 -0.3923 -0.6436  0.7370
17929TIP3    H175278   1.734   2.485  12.254 -1.6903 -0.2104 -2.0202
17929TIP3    H275279   1.603   2.428  12.303 -1.2151 -0.5305 -1.1049
17930TIP3   OH275280   6.126   2.324   0.607  0.6188 -0.1385 -0.5202
17930TIP3    H175281   6.141   2.311   0.701 -0.9397 -1.4738 -0.4369
17930TIP3    H275282   6.213   2.341   0.571  1.1171  1.4272  1.3061
17931TIP3   OH275283   5.705   0.976   6.447  0.2759  0.0937 -0.0656
17931TIP3    H175284   5.798   0.953   6.443  0.3521 -0.1821  2.2008
17931TIP3    H275285   5.661   0.908   6.397  1.2081 -0.4049 -0.2146
17932TIP3   OH275286   2.332   6.768   5.418  0.1521 -0.7309  0.2435
17932TIP3    H175287   2.267   6.698   5.424 -0.0448 -0.4155  2.0864
17932TIP3    H275288   2.408   6.727   5.375 -0.6984 -1.5062 -0.5360
17933TIP3   OH275289   2.915   3.087  12.605  0.6370  0.2856  0.2622
17933TIP3    H175290   3.006   3.057  12.604  0.3982 -0.4409 -1.3309
17933TIP3    H275291   2.874   3.038  12.676  1.2965  0.0320  0.4682
17934TIP3   OH275292   2.069   4.908  16.972 -0.3081 -0.3131 -0.5600
17934TIP3    H175293   2.164   4.915  16.979 -0.3245 -0.9156  0.1864
17934TIP3    H275294   2.044   4.984  16.919  0.4667  0.4694  0.1811
17935TIP3   OH275295   5.759   2.228  11.629  0.3675  0.3662 -0.1059
17935TIP3    H175296   5.752   2.222  11.534 -3.5072  0.8364  0.0555
17935TIP3    H275297   5.822   2.160  11.653  0.6628 -0.4191 -2.8932
17936TIP3   OH275298   1.667   4.125  13.124 -0.5392 -0.3901  0.3311
17936TIP3    H175299   1.590   4.165  13.084 -0.5325 -0.1606  0.5447
17936TIP3    H275300   1.710   4.080  13.052  0.6094  1.7677 -0.3727
17937TIP3   OH275301   2.657   4.882  16.142 -0.4355 -0.4354 -0.1621
17937TIP3    H175302   2.656   4.915  16.232  0.2590 -1.4657  0.2260
17937TIP3    H275303   2.597   4.941  16.095 -1.9391 -0.7804  1.2771
17938TIP3   OH275304   4.423   2.703  15.019 -0.9384  1.0381 -0.0575
17938TIP3    H175305   4.400   2.778  15.075  0.6980  1.7735 -0.3615
17938TIP3    H275306   4.456   2.742  14.939 -1.0076 -0.0241 -0.6092
17939TIP3   OH275307   5.900   0.079  14.108 -0.1663  0.0154  0.0095
17939TIP3    H175308   5.814   0.045  14.081  0.0885  0.4162 -1.3550
17939TIP3    H275309   5.940   0.007  14.157 -1.5520  0.0667  1.2603
17940TIP3   OH275310   1.419   0.365   1.197  0.1128  0.1479 -0.0758
17940TIP3    H175311   1.451   0.282   1.162 -1.6545 -0.4504 -0.3099
17940TIP3    H275312   1.498   0.415   1.215  1.2018 -1.6264  0.1701
17941TIP3   OH275313   4.563   5.480  12.364 -0.2753 -0.1132 -0.1877
17941TIP3    H175314   4.501   5.547  12.392  1.4176  1.7925 -0.8624
17941TIP3    H275315   4.612   5.458  12.444  1.1559  1.6476 -0.5460
17942TIP3   OH275316   5.648   1.504   2.556  1.1385  0.7418 -0.3867
17942TIP3    H175317   5.568   1.522   2.507  1.0946 -0.0270 -0.6125
17942TIP3    H275318   5.672   1.415   2.530  1.5220  0.6044  0.4280
17943TIP3   OH275319   0.490   5.636   1.741 -0.2236  0.0794  0.5963
17943TIP3    H175320   0.486   5.702   1.672  0.9307  1.1375  1.5103
17943TIP3    H275321   0.582   5.634   1.767  0.0387 -2.8696 -0.3263
17944TIP3   OH275322   2.506   0.596   1.814 -0.7852 -0.3256 -0.2180
17944TIP3    H175323   2.414   0.602   1.837 -0.5889  1.2915  0.2496
17944TIP3    H275324   2.531   0.686   1.794  0.1241 -1.0494 -2.6043
17945TIP3   OH275325   1.981   4.137   3.163  0.4996  0.8727 -0.4500
17945TIP3    H175326   1.920   4.072   3.129 -0.1716  1.0716  0.3818
17945TIP3    H275327   2.047   4.145   3.094  1.1846 -1.4836 -0.1179
17946TIP3   OH275328   2.601   1.780   4.309 -0.0231 -0.0499 -0.5519
17946TIP3    H175329   2.546   1.805   4.235  1.5205  1.2578 -1.2836
17946TIP3    H275330   2.653   1.858   4.328  1.6385 -1.2698  0.0692
17947TIP3   OH275331   0.926   2.065   3.343  0.0376 -0.2341  0.8347
17947TIP3    H175332   0.916   2.011   3.422  1.1912  0.4060  1.4287
17947TIP3    H275333   0.997   2.125   3.364  0.4839 -0.1812 -0.7704
17948TIP3   OH275334   6.021   2.360   6.344 -0.9960  0.3018  0.2542
17948TIP3    H175335   5.988   2.328   6.428 -0.2612  2.4580  1.3772
17948TIP3    H275336   5.969   2.438   6.326  0.0902  0.8820 -0.4092
17949TIP3   OH275337   5.741   2.595  13.762 -0.2784 -0.5894 -0.2259
17949TIP3    H175338   5.667   2.555  13.716 -0.2193 -0.9803  0.0205
17949TIP3    H275339   5.804   2.617  13.692 -0.7592  0.0301 -0.4687
17950TIP3   OH275340   6.547   4.715  11.025  0.0765  0.0904 -0.5505
17950TIP3    H175341   6.586   4.802  11.032  0.2259 -0.1834  2.6390
17950TIP3    H275342   6.455   4.732  11.002  0.0473  1.1009  0.2820
17951TIP3   OH275343   6.587   0.934   3.271  0.3466 -0.2742  0.3915
17951TIP3    H175344   6.564   1.010   3.218 -2.2695 -1.0708  0.2915
17951TIP3    H275345   6.610   0.867   3.207 -3.1949 -1.3568  0.1534
17952TIP3   OH275346   0.610   1.081  16.008 -0.3785  0.2649 -0.4581
17952TIP3    H175347   0.694   1.081  15.962  0.0854  1.4150  0.3449
17952TIP3    H275348   0.595   1.174  16.029 -2.3982  0.2329 -1.5807
17953TIP3   OH275349   0.311   6.124   2.473 -0.5572 -0.0670 -0.1428
17953TIP3    H175350   0.405   6.112   2.458 -0.2820  2.6979 -1.0467
17953TIP3    H275351   0.269   6.070   2.407  0.4429 -0.1828 -0.6951
17954TIP3   OH275352   1.062   0.024   2.643  0.5997  0.9682  0.2324
17954TIP3    H175353   1.132  -0.011   2.589  1.5595  0.1006  1.9774
17954TIP3    H275354   1.021  -0.053   2.682  0.6023  1.5919  1.5200
17955TIP3   OH275355   3.116   5.466   4.343 -0.1558  0.0444 -0.2434
17955TIP3    H175356   3.205   5.437   4.328  0.2217  1.7385 -1.3343
17955TIP3    H275357   3.090   5.510   4.262 -1.0383  1.8849  1.0059
17956TIP3   OH275358   3.817   2.604   2.386  0.4528 -0.5388 -0.4745
17956TIP3    H175359   3.782   2.555   2.312 -2.9906 -1.3488  1.5577
17956TIP3    H275360   3.841   2.537   2.450 -1.6297  0.2448  1.1982
17957TIP3   OH275361   3.762   3.285  16.604 -0.1238  0.6512  0.7145
17957TIP3    H175362   3.788   3.377  16.606 -0.3237  0.7167  0.3310
17957TIP3    H275363   3.798   3.251  16.523 -2.4555  1.1252 -0.5674
17958TIP3   OH275364   6.735   6.416  17.095 -0.7211  0.3519  0.0935
17958TIP3    H175365   6.661   6.380  17.145 -1.9032  2.6504  0.0782
17958TIP3    H275366   6.744   6.505  17.127  0.5560  0.8503 -1.6056
17959TIP3   OH275367   1.428   0.452  12.585 -0.5776  0.1177  0.2403
17959TIP3    H175368   1.466   0.499  12.659  0.2831 -1.4342  0.8193
17959TIP3    H275369   1.405   0.366  12.621 -0.6495 -0.4608 -1.1618
17960TIP3   OH275370   5.464   3.903  11.402  0.3709 -0.1299  0.4586
17960TIP3    H175371   5.555   3.916  11.427  0.0674  1.4073  0.7857
17960TIP3    H275372   5.458   3.940  11.314  0.0663 -0.2645  0.4239
17961TIP3   OH275373   0.054   6.799  12.867  0.3302 -0.1538  0.4857
17961TIP3    H175374   0.028   6.721  12.916  1.4635 -0.8775 -0.0399
17961TIP3    H275375   0.000   6.797  12.788  0.2678 -0.3429  0.5335
17962TIP3   OH275376   0.223   1.787   5.997  0.1099 -0.4495  0.0394
17962TIP3    H175377   0.138   1.752   6.023  0.4577 -0.6438  0.9301
17962TIP3    H275378   0.284   1.752   6.062  0.4358  2.0357  1.1275
17963TIP3   OH275379   0.695   2.863  12.913 -0.2266  0.2586 -0.5293
17963TIP3    H175380   0.631   2.835  12.848 -0.7040  0.9341 -0.3579
17963TIP3    H275381   0.767   2.899  12.862 -0.8352  1.2805 -0.6779
17964TIP3   OH275382   2.908   0.490   4.463  0.6482  0.2710 -0.0176
17964TIP3    H175383   2.892   0.490   4.368 -0.0540  1.4964  0.0795
17964TIP3    H275384   2.952   0.574   4.479  1.1270 -0.1153  0.6795
17965TIP3   OH275385   3.411   3.441   5.918 -0.7015  0.4351 -0.0360
17965TIP3    H175386   3.385   3.521   5.872  0.0614  1.3351  1.0669
17965TIP3    H275387   3.331   3.410   5.960 -1.2614 -0.0409 -1.4168
17966TIP3   OH275388   1.875   5.777  17.282 -0.3434 -0.4445  0.5030
17966TIP3    H175389   1.956   5.788  17.233  0.7273  0.4859  2.4348
17966TIP3    H275390   1.813   5.836  17.239  0.3966 -0.0971 -0.0976
17967TIP3   OH275391   4.949   3.051   6.309  0.1544 -0.2443  0.2627
17967TIP3    H175392   4.990   3.137   6.318  0.5735 -0.4040 -0.1582
17967TIP3    H275393   4.964   3.009   6.394  1.7362 -0.6889 -0.2229
17968TIP3   OH275394   6.400   5.746  14.507  0.1660 -0.1238 -0.4061
17968TIP3    H175395   6.327   5.692  14.538  1.7394 -1.0295  1.8821
17968TIP3    H275396   6.362   5.834  14.496 -1.2701 -0.5786  0.7663
17969TIP3   OH275397   5.903   6.672   4.085  0.0409  0.3472 -0.2015
17969TIP3    H175398   5.903   6.631   4.172  0.1554 -0.4616 -0.5839
17969TIP3    H275399   5.995   6.694   4.070  0.3398 -1.4513 -1.0324
17970TIP3   OH275400   2.936   6.717   3.933 -0.4950 -0.1616 -0.1535
17970TIP3    H175401   2.961   6.807   3.912  0.0047 -0.1942  0.2963
17970TIP3    H275402   2.861   6.699   3.877 -0.2831  0.3659 -0.6018
17971TIP3   OH275403   6.357   0.783  16.517 -0.2904  0.3763  0.0459
17971TIP3    H175404   6.398   0.860  16.477 -0.2606  1.9064  2.8986
17971TIP3    H275405   6.428   0.720  16.525 -0.0778  0.4177 -1.3591
17972TIP3   OH275406   6.494   5.725   5.471 -0.8085  0.5391 -0.0476
17972TIP3    H175407   6.465   5.743   5.560 -1.6050 -0.4866 -0.0946
17972TIP3    H275408   6.560   5.656   5.480 -0.9768  0.3486 -0.2588
17973TIP3   OH275409   6.445   4.368  13.730 -0.6136  0.3493 -0.7325
17973TIP3    H175410   6.445   4.338  13.821 -0.0149  1.3665 -0.3886
17973TIP3    H275411   6.372   4.429  13.724 -0.5343  0.4302 -0.8867
17974TIP3   OH275412   6.629   0.445   0.266  0.2306  0.2825  0.5431
17974TIP3    H175413   6.575   0.398   0.330 -2.2011  1.8000 -0.3324
17974TIP3    H275414   6.693   0.492   0.318 -0.1478 -0.4526  1.6963
17975TIP3   OH275415   1.027   1.970   1.556  0.1069 -0.0170  0.1669
17975TIP3    H175416   1.070   2.016   1.628 -0.2239  2.0507 -0.9110
17975TIP3    H275417   1.096   1.957   1.492  0.3548 -1.6826  0.7500
17976TIP3   OH275418   1.692   6.617  13.619  0.0697  0.7254 -0.1814
17976TIP3    H175419   1.678   6.656  13.705  0.7268  1.5859 -0.4609
17976TIP3    H275420   1.768   6.559  13.631  0.3787  1.1134 -0.2680
17977TIP3   OH275421   6.767   2.290   5.957 -0.2102 -0.0234  0.0044
17977TIP3    H175422   6.678   2.287   5.922 -0.1824 -0.8370 -0.0064
17977TIP3    H275423   6.816   2.343   5.894 -0.7876  0.8183  0.2501
17978TIP3   OH275424   4.591   0.919   6.198 -0.6844 -0.0783  0.3039
17978TIP3    H175425   4.511   0.968   6.217 -0.5724  0.3858 -0.3980
17978TIP3    H275426   4.564   0.827   6.196 -0.9565 -0.0285  1.2998
17979TIP3   OH275427   5.984   1.610   0.111 -0.5706 -0.2294 -0.2405
17979TIP3    H175428   5.983   1.516   0.096  0.1797 -0.2716 -0.0134
17979TIP3    H275429   6.066   1.641   0.072  0.1837  0.0160  1.5002
17980TIP3   OH275430   3.198   4.732   3.192 -0.3440  0.1237  0.3803
17980TIP3    H175431   3.154   4.784   3.125  1.7444  1.0335 -0.3597
17980TIP3    H275432   3.224   4.796   3.259  0.5401 -0.2457  0.3988
17981TIP3   OH275433   3.718   1.970   3.049  0.3206 -0.0210  0.1314
17981TIP3    H175434   3.641   2.021   3.074 -0.9972 -2.6077  1.5973
17981TIP3    H275435   3.682   1.897   2.999  1.8700 -0.9422  0.3491
17982TIP3   OH275436   1.829   2.345   1.971  0.1076  0.7848  0.4294
17982TIP3    H175437   1.876   2.323   2.051  1.3395  2.1640  0.1142
17982TIP3    H275438   1.891   2.397   1.920 -0.4654 -0.5638 -1.6815
17983TIP3   OH275439   3.166   3.790   2.424  0.0801  0.5022 -0.0410
17983TIP3    H175440   3.207   3.710   2.391  0.2722  0.3471  0.5695
17983TIP3    H275441   3.239   3.841   2.460 -0.0565  0.9058 -0.3380
17984TIP3   OH275442   2.844   0.152   1.273  0.6711  0.0238 -0.6020
17984TIP3    H175443   2.865   0.139   1.181  0.4984 -1.1782 -0.4899
17984TIP3    H275444   2.897   0.086   1.319  0.8992  0.7366  0.1696
17985TIP3   OH275445   0.568   2.783   3.194 -0.1705 -0.4077  0.2183
17985TIP3    H175446   0.617   2.863   3.206 -1.1842  0.1376  0.7472
17985TIP3    H275447   0.594   2.726   3.267  0.1017 -0.3406  0.1723
17986TIP3   OH275448   3.863   6.153   2.628  1.1236 -0.3342 -0.3043
17986TIP3    H175449   3.902   6.215   2.566  1.8900  0.2372  0.7367
17986TIP3    H275450   3.792   6.202   2.670 -0.4668 -1.2214 -1.8480
17987TIP3   OH275451   4.728   2.124   1.590  0.4465 -0.4923 -0.2184
17987TIP3    H175452   4.796   2.067   1.627 -1.1342 -1.4721  1.2699
17987TIP3    H275453   4.771   2.209   1.579  1.4197 -0.5888  2.4827
17988TIP3   OH275454   2.927   0.013  13.760 -0.0001 -0.7029 -0.1834
17988TIP3    H175455   2.951   0.048  13.674  0.6234  1.6547  0.9283
17988TIP3    H275456   2.996   0.042  13.819 -1.4018 -0.6497  1.4882
17989TIP3   OH275457   6.238   6.715   3.324 -0.1610 -0.7727  0.0811
17989TIP3    H175458   6.258   6.794   3.275  1.5725 -1.7308 -0.7918
17989TIP3    H275459   6.143   6.707   3.318 -0.3468  1.1980  0.1340
17990TIP3   OH275460   1.931   5.102  17.252 -0.6672  0.3734  0.2984
17990TIP3    H175461   1.917   5.039  17.181  0.3692 -0.9618  1.2480
17990TIP3    H275462   1.934   5.048  17.332 -0.6020  1.7141  1.2202
17991TIP3   OH275463   1.858   2.918  12.307  0.4826  0.0630  0.0259
17991TIP3    H175464   1.929   2.888  12.251 -0.7761  1.5750 -2.4737
17991TIP3    H275465   1.862   3.013  12.303  0.3979  0.2283  2.6056
17992TIP3   OH275466   1.449   2.113   6.261  0.0637  0.0136 -0.2947
17992TIP3    H175467   1.360   2.078   6.265 -0.0623  0.3559 -0.1248
17992TIP3    H275468   1.503   2.043   6.298  0.0829 -0.9238 -2.0549
17993TIP3   OH275469   5.491   5.441   3.862  0.1101 -0.0224 -0.1227
17993TIP3    H175470   5.406   5.441   3.906  0.5345  1.6350  0.7264
17993TIP3    H275471   5.507   5.533   3.840  0.9759 -0.5137 -1.6652
17994TIP3   OH275472   4.305   0.038  13.398 -0.4498  0.2802 -0.1963
17994TIP3    H175473   4.387   0.071  13.362 -0.0903 -1.2990 -0.8583
17994TIP3    H275474   4.305   0.069  13.489  0.9615  0.1416 -0.1348
17995TIP3   OH275475   2.752   2.013   2.687 -0.0053 -0.0081  0.0031
17995TIP3    H175476   2.721   1.990   2.775 -0.5707  1.2486  0.1594
17995TIP3    H275477   2.831   1.961   2.674 -1.5111 -2.4020  0.0913
17996TIP3   OH275478   2.277   3.381  13.982  0.1507  0.0735 -0.2248
17996TIP3    H175479   2.352   3.384  14.041  0.6207  0.2403 -0.8309
17996TIP3    H275480   2.242   3.471  13.983 -0.0468 -0.0072  0.0687
17997TIP3   OH275481   4.095   0.202   4.991 -0.1380 -0.1091  0.0585
17997TIP3    H175482   4.161   0.151   5.037  0.6830  0.6405 -0.2826
17997TIP3    H275483   4.031   0.137   4.960 -0.0778 -0.7336  1.2185
17998TIP3   OH275484   2.819   1.387  13.150 -0.6889 -1.0567 -0.0786
17998TIP3    H175485   2.743   1.410  13.203 -0.0128 -1.1946  0.9598
17998TIP3    H275486   2.815   1.292  13.142 -0.1885 -1.1458  0.6584
17999TIP3   OH275487   1.967   3.034   3.757  0.7558 -0.7120 -0.6374
17999TIP3    H175488   1.891   3.091   3.772  0.7896 -0.1744 -2.4902
17999TIP3    H275489   2.042   3.088   3.783  0.6393 -0.6751 -0.3650
18000TIP3   OH275490   5.287   1.646  16.253 -0.0842  0.3927 -0.0386
18000TIP3    H175491   5.373   1.616  16.224 -0.2335 -1.7438  1.6368
18000TIP3    H275492   5.303   1.734  16.287  1.6578 -0.4142  1.2789
18001TIP3   OH275493   0.780   2.021  11.686 -0.1277 -0.0821  0.3793
18001TIP3    H175494   0.730   2.103  11.692  0.0513  0.0281  0.3761
18001TIP3    H275495   0.870   2.049  11.670 -0.1859 -0.3097 -0.3347
18002TIP3   OH275496   5.865   3.970   0.086  0.1481 -0.3293  0.3142
18002TIP3    H175497   5.950   3.970   0.131  0.0440  1.3784  0.5437
18002TIP3    H275498   5.801   3.968   0.156 -0.0269 -2.4675  0.1265
18003TIP3   OH275499   4.484   2.715   3.688  0.1670  0.3910  0.4488
18003TIP3    H175500   4.415   2.730   3.623  0.6670  0.9430  0.0371
18003TIP3    H275501   4.442   2.732   3.772 -0.5026 -0.3815  0.2779
18004TIP3   OH275502   4.805   1.537  12.914 -1.1044  0.2555 -0.5851
18004TIP3    H175503   4.873   1.599  12.941 -1.2824  0.7534 -1.2568
18004TIP3    H275504   4.809   1.467  12.979  0.6460 -0.1595 -1.1269
18005TIP3   OH275505   4.982   5.433  17.029  0.2968  0.3757  0.7523
18005TIP3    H175506   4.952   5.345  17.049  1.7035  0.2145  2.2782
18005TIP3    H275507   5.040   5.456  17.102  1.7687  1.6631 -0.7644
18006TIP3   OH275508   6.320   3.375  17.197  0.2530 -0.1883 -0.2640
18006TIP3    H175509   6.243   3.322  17.218  1.1709 -1.4742 -0.0925
18006TIP3    H275510   6.289   3.437  17.131 -0.7217 -1.2568 -0.8229
18007TIP3   OH275511   0.180   6.082  15.803  0.0333 -0.3779 -0.2836
18007TIP3    H175512   0.244   6.111  15.868  0.7377  2.5952 -2.1863
18007TIP3    H275513   0.222   6.010  15.757  1.1553  0.1333 -0.0736
18008TIP3   OH275514   0.352   4.785  16.433  0.0519 -0.0874  0.5295
18008TIP3    H175515   0.430   4.804  16.484 -0.9404 -0.6154  2.2828
18008TIP3    H275516   0.366   4.829  16.349  1.8622  0.4808  1.1248
18009TIP3   OH275517   0.659   0.140   3.675 -0.5248 -0.0928  0.4899
18009TIP3    H175518   0.659   0.044   3.684 -2.5920 -0.3947 -2.0398
18009TIP3    H275519   0.597   0.170   3.742 -1.0080 -0.6502  0.3024
18010TIP3   OH275520   2.335   5.352  12.379  0.0919 -0.3852  0.0632
18010TIP3    H175521   2.322   5.433  12.427  0.5182  0.8705 -1.8797
18010TIP3    H275522   2.328   5.283  12.445 -4.4869  0.8890  1.0862
18011TIP3   OH275523   0.268   2.800   5.246  0.4111  0.2789 -0.1736
18011TIP3    H175524   0.253   2.885   5.204  0.9287  0.5772  0.2376
18011TIP3    H275525   0.357   2.776   5.219  0.0064 -0.4743 -0.8731
18012TIP3   OH275526   2.131   4.380  12.558  0.6354  0.1455  0.1012
18012TIP3    H175527   2.160   4.315  12.495 -2.1271 -2.5061  1.4479
18012TIP3    H275528   2.037   4.390  12.541  0.2855  0.9947  2.3362
18013TIP3   OH275529   3.451   4.029   4.211 -0.5332 -0.1640 -0.3866
18013TIP3    H175530   3.397   3.956   4.180 -0.8595 -0.4752  0.8860
18013TIP3    H275531   3.465   4.010   4.304  1.0489  0.3610 -0.5104
18014TIP3   OH275532   6.679   0.954   2.613 -0.0478  0.5376 -0.6248
18014TIP3    H175533   6.601   0.939   2.560 -0.6708  0.1602  0.3729
18014TIP3    H275534   6.745   0.897   2.574 -1.0047 -1.1018  0.0648
18015TIP3   OH275535   4.912   2.403  15.095  0.2738  0.1574  0.7349
18015TIP3    H175536   4.921   2.472  15.030 -1.3432 -0.4755 -0.1986
18015TIP3    H275537   4.984   2.343  15.076 -1.1030 -0.8469 -1.5467
18016TIP3   OH275538   1.385   3.607  15.702  0.1840  0.0178 -0.2199
18016TIP3    H175539   1.442   3.622  15.777  1.0056  0.8272 -1.0027
18016TIP3    H275540   1.297   3.625  15.735  0.5129  0.1220  0.6106
18017TIP3   OH275541   3.521   0.083  12.578  0.3256 -0.0551  0.0839
18017TIP3    H175542   3.526   0.175  12.603 -0.5793  0.6624 -2.2625
18017TIP3    H275543   3.612   0.053  12.578  0.4477  0.1456  3.1855
18018TIP3   OH275544   3.966   4.285  15.630  0.2702  0.0043  0.4267
18018TIP3    H175545   4.022   4.299  15.554  0.4432 -0.1543  0.5264
18018TIP3    H275546   3.877   4.288  15.595  0.3467  0.0497  0.2370
18019TIP3   OH275547   3.159   0.349  13.815 -0.4573 -0.0619 -0.1659
18019TIP3    H175548   3.082   0.319  13.767 -1.2804  1.7681 -0.0132
18019TIP3    H275549   3.206   0.405  13.753 -0.8064  1.1990  0.6975
18020TIP3   OH275550   3.754   2.824  10.217 -0.4362 -0.3962  0.0354
18020TIP3    H175551   3.736   2.910  10.255 -0.2685 -0.9731  1.4292
18020TIP3    H275552   3.670   2.778  10.221 -0.7098 -0.0621 -1.3844
18021TIP3   OH275553   1.284   3.086   5.724  0.1278 -0.1049  0.2638
18021TIP3    H175554   1.276   2.992   5.743  1.7658 -0.1552  0.7967
18021TIP3    H275555   1.196   3.113   5.698 -0.4895 -1.6667  0.6830
18022TIP3   OH275556   5.775   2.869  15.977  0.3290 -1.2033 -0.1229
18022TIP3    H175557   5.735   2.796  15.930  1.0182 -1.5587 -0.1614
18022TIP3    H275558   5.865   2.841  15.992  1.0995  0.3685 -1.6752
18023TIP3   OH275559   5.294   5.995   5.024  0.2739  0.1762  0.1814
18023TIP3    H175560   5.329   5.984   5.112 -0.8502 -0.5585  0.5523
18023TIP3    H275561   5.211   6.042   5.037 -0.2525 -0.5737 -0.4065
18024TIP3   OH275562   4.187   3.725   1.817  0.1359  0.2606 -1.0306
18024TIP3    H175563   4.093   3.736   1.799 -0.2244 -0.6580  0.2546
18024TIP3    H275564   4.196   3.633   1.841  1.2362  0.5655 -0.2592
18025TIP3   OH275565   1.639   6.237  12.186 -0.1047  0.1374  0.3036
18025TIP3    H175566   1.717   6.282  12.218 -0.7085  1.0111  0.5785
18025TIP3    H275567   1.646   6.241  12.091 -0.3398  1.1458  0.3283
18026TIP3   OH275568   3.842   0.734  10.287 -0.1399 -0.1817 -0.5535
18026TIP3    H175569   3.865   0.826  10.299  0.9988 -0.5666  0.2352
18026TIP3    H275570   3.892   0.688  10.354 -1.3461 -1.2892 -0.3955
18027TIP3   OH275571   4.033   2.281   5.159  0.2977 -0.2146 -0.2302
18027TIP3    H175572   4.065   2.202   5.202 -0.7972 -1.0592 -0.9281
18027TIP3    H275573   4.107   2.311   5.106  1.5375  0.6500  1.9574
18028TIP3   OH275574   4.129   6.002   5.736 -0.3579 -0.0472  0.4716
18028TIP3    H175575   4.132   5.971   5.827 -0.0553  0.0076  0.4821
18028TIP3    H275576   4.221   6.012   5.712 -0.3915 -2.5310 -0.7175
18029TIP3   OH275577   4.239   0.340  10.759 -0.2654  0.1303  0.0509
18029TIP3    H175578   4.318   0.329  10.706 -1.2678 -1.0712 -1.2113
18029TIP3    H275579   4.167   0.327  10.698 -1.4477  1.0664  1.2330
18030TIP3   OH275580   2.296   0.072   3.944  0.4783  0.2139 -0.7129
18030TIP3    H175581   2.338  -0.014   3.954  0.9227  0.3974 -0.9342
18030TIP3    H275582   2.322   0.100   3.856  1.3613  1.1187 -0.1735
18031TIP3   OH275583   6.220   6.062   3.143  0.1675  0.7399  0.2997
18031TIP3    H175584   6.315   6.062   3.147  0.1396  0.5703  1.1310
18031TIP3    H275585   6.192   6.051   3.235 -0.6441  0.7267  0.0577
18032TIP3   OH275586   4.868   1.712   4.336 -0.2117 -0.7198  0.1374
18032TIP3    H175587   4.903   1.795   4.370 -1.0177  0.2072 -1.2499
18032TIP3    H275588   4.801   1.687   4.399 -1.6655  0.9577 -0.6995
18033TIP3   OH275589   6.251   5.686  15.671 -0.4833 -0.2095 -0.2012
18033TIP3    H175590   6.241   5.670  15.577  0.2278 -2.5395  0.0856
18033TIP3    H275591   6.279   5.602  15.707 -1.0462  0.5605  2.1564
18034TIP3   OH275592   1.200   5.519  14.757  0.0675  0.8698 -0.5477
18034TIP3    H175593   1.140   5.546  14.827 -1.4382 -0.6927 -1.2057
18034TIP3    H275594   1.271   5.583  14.761  0.3271  0.4668  2.8147
18035TIP3   OH275595   5.970   4.399  10.841  0.1103  0.0263 -0.9032
18035TIP3    H175596   6.060   4.392  10.808  0.4872  0.8691 -0.0620
18035TIP3    H275597   5.958   4.493  10.856 -0.2791 -0.2892  0.7662
18036TIP3   OH275598   3.968   4.800  13.612 -0.1232 -0.1192  0.9091
18036TIP3    H175599   4.040   4.741  13.636 -0.2459  0.0605  1.7100
18036TIP3    H275600   3.975   4.873  13.673  0.1642  0.8287 -0.2300
18037TIP3   OH275601   4.522   0.802   5.597 -0.0194 -0.2653  0.3106
18037TIP3    H175602   4.572   0.772   5.673 -1.1768  0.5964  1.4376
18037TIP3    H275603   4.511   0.896   5.611 -0.0624 -0.0607 -1.0383
18038TIP3   OH275604   1.550   3.942  12.361  0.7052  0.0833  0.3307
18038TIP3    H175605   1.457   3.929  12.345  0.8801 -0.1450 -0.5610
18038TIP3    H275606   1.581   3.989  12.284  1.6496 -1.3281 -0.1843
18039TIP3   OH275607   2.897   2.323   2.828 -0.1078  0.2326 -0.6446
18039TIP3    H175608   2.920   2.274   2.907  1.8703  1.2904 -0.5536
18039TIP3    H275609   2.804   2.344   2.840 -0.6167 -2.1690 -0.0011
18040TIP3   OH275610   3.487   6.157  10.833  0.0658  0.0075 -0.3348
18040TIP3    H175611   3.578   6.186  10.834 -0.5254  1.9364 -1.2084
18040TIP3    H275612   3.439   6.225  10.880 -0.7345 -1.8174  1.6001
18041TIP3   OH275613   6.195   4.154   3.861  0.2761  0.4658  0.0065
18041TIP3    H175614   6.162   4.117   3.942  0.5709  0.3551  0.0760
18041TIP3    H275615   6.194   4.249   3.876  0.5941  0.4327  0.2409
18042TIP3   OH275616   1.106   4.315   4.282  0.1188 -0.4280  0.3758
18042TIP3    H175617   1.028   4.259   4.286 -0.2453  0.1519  1.9193
18042TIP3    H275618   1.179   4.254   4.276 -0.4721 -0.9687 -1.7755
18043TIP3   OH275619   5.327   5.699  17.008 -0.0951  0.2071  0.5126
18043TIP3    H175620   5.370   5.664  17.086  0.7081  0.3747  0.1561
18043TIP3    H275621   5.392   5.757  16.969  0.1415 -1.1496 -1.1829
18044TIP3   OH275622   3.126   2.987  14.432 -0.0818 -1.2574 -0.1949
18044TIP3    H175623   3.212   3.028  14.419  0.0524 -1.2380  0.7758
18044TIP3    H275624   3.063   3.059  14.419  0.1695 -0.6046  1.9969
18045TIP3   OH275625   6.467   4.787   3.535 -0.6153 -0.2502 -0.3392
18045TIP3    H175626   6.482   4.859   3.596  0.4563 -1.1679  0.4919
18045TIP3    H275627   6.531   4.721   3.560 -0.6830 -0.9411 -1.9845
18046TIP3   OH275628   0.836   0.689  14.356 -0.2595 -0.6852 -0.2580
18046TIP3    H175629   0.896   0.620  14.385 -0.8230 -0.5573  1.2670
18046TIP3    H275630   0.810   0.733  14.437  1.2844  2.3326 -1.3118
18047TIP3   OH275631   1.239   2.366   0.927  0.0550  0.2443 -0.1031
18047TIP3    H175632   1.333   2.378   0.916  0.0644 -0.1588 -0.5241
18047TIP3    H275633   1.216   2.419   1.003  0.9404 -1.1091  1.1290
18048TIP3   OH275634   4.173   0.430   4.839  0.0716 -0.4056  0.1388
18048TIP3    H175635   4.262   0.438   4.872  0.0549 -1.1502  0.3762
18048TIP3    H275636   4.131   0.368   4.899 -0.5277 -0.2558 -0.1241
18049TIP3   OH275637   4.960   5.221   1.712  0.4560 -0.1866 -0.5096
18049TIP3    H175638   4.930   5.235   1.802  1.3092  0.2265 -0.2857
18049TIP3    H275639   4.880   5.229   1.660 -0.1146 -0.8218  0.2406
18050TIP3   OH275640   3.710   0.162  16.742 -0.6840 -0.1159 -0.3395
18050TIP3    H175641   3.614   0.156  16.748 -0.6053 -0.7142  0.4026
18050TIP3    H275642   3.739   0.071  16.734 -0.1620  0.0444 -0.2766
18051TIP3   OH275643   3.978   0.149  14.851 -0.1190  0.2201 -0.7968
18051TIP3    H175644   3.967   0.174  14.943 -0.3258 -0.4208 -0.6500
18051TIP3    H275645   3.984   0.233  14.805  1.1766  0.5677 -0.0583
18052TIP3   OH275646   5.514   0.581  15.987 -0.2227 -0.6913  0.5029
18052TIP3    H175647   5.566   0.501  15.982 -0.6914 -0.9798  0.1057
18052TIP3    H275648   5.425   0.552  15.964 -0.0827  0.2434 -1.2321
18053TIP3   OH275649   5.880   4.907  15.408 -0.2254 -0.0637  0.1589
18053TIP3    H175650   5.859   4.822  15.370 -1.0073 -0.4675  1.4608
18053TIP3    H275651   5.950   4.942  15.352 -0.7500 -1.0122 -1.1041
18054TIP3   OH275652   3.469   4.128   2.118 -0.0339 -0.6886 -0.1654
18054TIP3    H175653   3.498   4.218   2.127  1.0332 -0.9761 -0.6591
18054TIP3    H275654   3.388   4.134   2.068 -0.1049  0.0134  0.0290
18055TIP3   OH275655   6.052   4.850   4.442 -0.0938 -0.3540 -0.0378
18055TIP3    H175656   6.027   4.941   4.425  1.1062 -0.3994 -2.2646
18055TIP3    H275657   6.115   4.855   4.513  1.3617  0.7579 -1.3806
18056TIP3   OH275658   5.833   4.478   0.804  0.5967 -0.0033 -0.4973
18056TIP3    H175659   5.927   4.473   0.819  0.7845 -0.5582 -1.7939
18056TIP3    H275660   5.808   4.390   0.775 -0.4227 -0.0192  0.3787
18057TIP3   OH275661   2.545   2.468  11.200  0.2520 -0.3549 -0.4943
18057TIP3    H175662   2.466   2.523  11.191  1.2285  0.8366 -1.9993
18057TIP3    H275663   2.564   2.470  11.294 -0.9373  0.1734 -0.2495
18058TIP3   OH275664   5.069   4.985   2.390 -0.4498  0.8761  0.0790
18058TIP3    H175665   5.153   5.012   2.352 -1.3727  1.3846 -1.6218
18058TIP3    H275666   5.093   4.942   2.473  1.5173  0.5452 -0.6414
18059TIP3   OH275667   2.974   3.955   3.164  0.3677  0.2709  0.2747
18059TIP3    H175668   2.989   3.966   3.070 -0.8235  2.4996  0.3188
18059TIP3    H275669   2.977   3.860   3.178 -0.4193 -0.1424 -2.1661
18060TIP3   OH275670   3.162   0.167   4.876 -0.5138 -0.0318 -0.4456
18060TIP3    H175671   3.177   0.248   4.829 -2.1580  0.0522 -0.8221
18060TIP3    H275672   3.135   0.194   4.964 -0.3236 -0.1728 -0.3425
18061TIP3   OH275673   3.027   2.422  14.394 -0.1712 -0.5785 -0.1602
18061TIP3    H175674   2.945   2.419  14.444  1.2242 -0.4172  2.2227
18061TIP3    H275675   3.042   2.515  14.378  0.0827 -0.5400  0.3081
18062TIP3   OH275676   0.169   6.212  14.154  0.3363  0.9892  0.0874
18062TIP3    H175677   0.160   6.163  14.236 -0.2746 -0.7400 -1.0127
18062TIP3    H275678   0.259   6.195  14.126 -0.1190 -0.1324 -0.6959
18063TIP3   OH275679   6.207   4.827  10.484 -1.1657 -0.0437  0.1746
18063TIP3    H175680   6.200   4.747  10.432 -1.9663  0.3610 -0.3387
18063TIP3    H275681   6.128   4.828  10.537 -2.6228  1.8848 -1.9260
18064TIP3   OH275682   1.458   3.179  14.551  0.2661 -0.0781  0.3895
18064TIP3    H175683   1.364   3.163  14.551  0.3140 -0.4103 -1.0038
18064TIP3    H275684   1.496   3.095  14.576  0.2458 -0.3985 -0.6172
18065TIP3   OH275685   6.227   2.183   1.862 -0.1567  0.1973  0.0082
18065TIP3    H175686   6.213   2.241   1.787  0.2081 -1.1957 -1.1644
18065TIP3    H275687   6.322   2.175   1.869 -0.1693  1.1838  1.2974
18066TIP3   OH275688   1.399   3.719  13.037 -0.1834 -0.1628  0.6085
18066TIP3    H175689   1.412   3.751  13.126 -1.1991  0.8839  0.3909
18066TIP3    H275690   1.482   3.737  12.992 -0.2963  0.9868  0.8514
18067TIP3   OH275691   4.072   5.587   5.885  0.1575  1.0305 -0.0612
18067TIP3    H175692   4.060   5.502   5.928 -1.4336  0.8443 -0.8117
18067TIP3    H275693   4.165   5.606   5.894  0.3895 -0.4278  0.7967
18068TIP3   OH275694   0.988   1.338   2.422  1.1410  0.1505 -0.8240
18068TIP3    H175695   0.938   1.305   2.347  2.2412  0.2670 -1.6122
18068TIP3    H275696   1.011   1.427   2.398  3.2891 -0.5058 -1.2373
18069TIP3   OH275697   0.591   1.653  12.530 -0.4339  0.6043  0.3344
18069TIP3    H175698   0.502   1.659  12.565 -0.4800  0.8249  0.1756
18069TIP3    H275699   0.647   1.654  12.607 -0.6237 -0.6549  0.5042
18070TIP3   OH275700   2.818   1.563   4.863 -0.0640  0.4025 -0.4020
18070TIP3    H175701   2.758   1.541   4.792 -2.3062  0.6396  1.3889
18070TIP3    H275702   2.876   1.629   4.825 -1.2654  0.5600 -2.0051
18071TIP3   OH275703   6.130   3.061   3.845  0.6790  0.4223  0.1693
18071TIP3    H175704   6.109   3.091   3.934  0.2530  0.3982  0.0812
18071TIP3    H275705   6.174   2.977   3.857 -1.7013 -0.8610  0.2605
18072TIP3   OH275706   4.171   3.070  13.120  0.1208  0.0337 -0.5383
18072TIP3    H175707   4.101   3.064  13.054 -1.4935  1.3391  1.0342
18072TIP3    H275708   4.179   3.163  13.138  2.1212 -0.1322 -0.5024
18073TIP3   OH275709   3.105   4.700   5.247 -0.3965 -0.2249  0.0205
18073TIP3    H175710   3.066   4.785   5.264 -1.1138 -0.5932  0.2453
18073TIP3    H275711   3.193   4.719   5.216 -0.4298  0.5821  0.4247
18074TIP3   OH275712   4.916   2.454   3.798 -0.3714 -0.1116 -0.4912
18074TIP3    H175713   4.873   2.368   3.803  1.7243 -1.1597  0.2558
18074TIP3    H275714   4.985   2.442   3.733  1.4473  0.3041  1.3183
18075TIP3   OH275715   5.241   1.120  11.319 -0.2689  0.4683  0.4017
18075TIP3    H175716   5.253   1.083  11.406 -0.4475 -0.8280 -0.1182
18075TIP3    H275717   5.146   1.130  11.310 -0.4159 -1.5354 -0.5045
18076TIP3   OH275718   5.632   1.439  16.776  0.2585  0.0768 -0.1693
18076TIP3    H175719   5.545   1.430  16.738 -0.1189  1.6241  0.2868
18076TIP3    H275720   5.677   1.357  16.754 -1.1653 -0.5560 -0.7646
18077TIP3   OH275721   6.722   6.790   2.882  0.4322 -0.0693  0.7500
18077TIP3    H175722   6.642   6.804   2.932  0.2736  1.2620  0.1310
18077TIP3    H275723   6.763   6.876   2.876 -0.6314  0.3067 -3.1964
18078TIP3   OH275724   6.509   1.092  11.865 -0.2786  0.5171 -0.5848
18078TIP3    H175725   6.525   1.131  11.779  0.3311  1.6791  0.0580
18078TIP3    H275726   6.566   1.140  11.925  0.7242 -1.5631  0.1689
18079TIP3   OH275727   6.082   4.059   3.607  0.0133  0.1145  0.4800
18079TIP3    H175728   6.029   4.084   3.682 -0.0004  1.0875  0.1606
18079TIP3    H275729   6.146   4.130   3.599  0.0520 -0.0130 -0.3834
18080TIP3   OH275730   5.787   6.297   6.556 -0.2553 -0.5793  0.2099
18080TIP3    H175731   5.814   6.389   6.561 -0.7961 -0.4300  0.4084
18080TIP3    H275732   5.847   6.251   6.615  1.1118 -0.6073 -1.1961
18081TIP3   OH275733   6.487   1.927  12.265  0.1232  0.1380 -0.5281
18081TIP3    H175734   6.510   1.954  12.176 -0.6026 -1.3588 -1.2016
18081TIP3    H275735   6.450   1.839  12.254 -1.4747  0.5724  1.0565
18082TIP3   OH275736   4.093   5.497   3.294 -0.0737  0.0495 -0.6654
18082TIP3    H175737   4.035   5.540   3.358 -1.4283 -1.1434 -1.0835
18082TIP3    H275738   4.052   5.514   3.209  0.0780 -0.9863 -0.9436
18083TIP3   OH275739   5.534   0.183   1.607 -0.2415  0.0878 -0.5226
18083TIP3    H175740   5.584   0.236   1.669 -1.3070  0.6511 -0.1280
18083TIP3    H275741   5.534   0.233   1.526  0.1449 -0.0941 -0.6393
18084TIP3   OH275742   1.780   6.522  12.686 -0.2682  0.0392 -0.3670
18084TIP3    H175743   1.763   6.489  12.774  1.0636  3.3848  1.2256
18084TIP3    H275744   1.696   6.555  12.655  0.0955  2.7702  1.4221
18085TIP3   OH275745   1.412   5.067   1.707 -0.3392 -0.0124  0.4739
18085TIP3    H175746   1.467   5.127   1.758 -0.0711  0.9223 -0.8702
18085TIP3    H275747   1.328   5.067   1.753 -1.1663  3.3736 -0.8361
18086TIP3   OH275748   1.593   5.190   1.857 -0.0183 -0.2718  0.3849
18086TIP3    H175749   1.592   5.239   1.940 -0.4426 -1.3078  1.0007
18086TIP3    H275750   1.686   5.174   1.840  0.0497 -0.4233  0.8884
18087TIP3   OH275751   3.031   1.189   2.569  0.2866  0.1670 -0.2394
18087TIP3    H175752   3.118   1.227   2.581  0.9564 -1.2581 -0.4358
18087TIP3    H275753   2.976   1.234   2.634  1.3823  0.4194  0.5301
18088TIP3   OH275754   2.368   4.449  12.814 -0.0076 -0.8403  0.8186
18088TIP3    H175755   2.366   4.519  12.879 -0.7349  0.4177 -0.5505
18088TIP3    H275756   2.366   4.494  12.729  0.1203 -2.4849 -0.0744
18089TIP3   OH275757   5.246   1.459  13.298  0.0557 -0.0902  0.0158
18089TIP3    H175758   5.301   1.450  13.220  0.9404 -0.4880  0.6844
18089TIP3    H275759   5.276   1.390  13.357  0.0610  0.8450  1.1179
18090TIP3   OH275760   2.233   6.555   1.567  0.4331 -0.0378  0.6053
18090TIP3    H175761   2.288   6.478   1.551 -0.0771 -0.4699  0.9188
18090TIP3    H275762   2.274   6.598   1.642  0.2065 -0.4990  1.0014
18091TIP3   OH275763   3.920   5.218  16.009  0.2524  0.6459 -0.1880
18091TIP3    H175764   4.014   5.210  15.996  0.4338  0.6819  1.1268
18091TIP3    H275765   3.900   5.162  16.083 -1.0202 -0.6112 -1.4387
18092TIP3   OH275766   6.259   0.298  16.724 -0.7061  0.1185 -0.2188
18092TIP3    H175767   6.342   0.278  16.767 -1.2421  0.3350  0.9311
18092TIP3    H275768   6.280   0.299  16.630  0.7024  0.7657  0.0985
18093TIP3   OH275769   2.653   4.554   3.624  0.0348 -0.0958  0.2896
18093TIP3    H175770   2.657   4.601   3.541  0.2751 -0.9539 -0.1997
18093TIP3    H275771   2.726   4.492   3.620 -0.6395 -0.9377  0.6393
18094TIP3   OH275772   2.180   6.316   5.864  0.5742 -0.5406 -0.7822
18094TIP3    H175773   2.161   6.386   5.801  1.4426  1.8640  1.5294
18094TIP3    H275774   2.275   6.322   5.879  0.0486  0.5912  2.5592
18095TIP3   OH275775   5.628   3.772   3.273  0.0514 -0.1673 -0.5151
18095TIP3    H175776   5.667   3.762   3.186 -0.4273  1.9281 -1.0081
18095TIP3    H275777   5.572   3.849   3.265 -0.7727 -0.5466  1.3845
18096TIP3   OH275778   5.567   2.343  14.095 -0.7568  0.2996  0.2206
18096TIP3    H175779   5.502   2.414  14.093 -0.3497  0.6807  0.4244
18096TIP3    H275780   5.541   2.290  14.171 -1.1307  0.1661  0.0005
18097TIP3   OH275781   5.836   2.293   4.142 -0.1270  0.2001  0.0719
18097TIP3    H175782   5.759   2.350   4.151 -0.8651 -0.4082 -2.2588
18097TIP3    H275783   5.904   2.351   4.109  0.2524  0.5739  1.4497
18098TIP3   OH275784   4.620   4.570  13.409 -0.5151 -0.1628 -0.3231
18098TIP3    H175785   4.564   4.493  13.405 -0.5574 -0.0869 -1.5042
18098TIP3    H275786   4.700   4.540  13.453 -1.8201 -0.0368  2.2058
18099TIP3   OH275787   3.584   1.462  12.628 -0.2466 -0.1469  0.2624
18099TIP3    H175788   3.650   1.395  12.609  0.7191  1.0592 -0.7224
18099TIP3    H275789   3.541   1.478  12.544 -2.1035 -1.2116  0.9738
18100TIP3   OH275790   2.816   3.055  17.214 -0.3253  0.3747 -0.0066
18100TIP3    H175791   2.723   3.032  17.224  0.6095 -3.0013  1.6644
18100TIP3    H275792   2.855   2.978  17.174  2.2039  0.7742  1.5727
18101TIP3   OH275793   1.233   3.814   5.041  0.7549 -0.1088  0.1934
18101TIP3    H175794   1.240   3.882   4.974  1.2416  1.5153  1.8430
18101TIP3    H275795   1.155   3.764   5.015  1.7324 -0.3993 -2.3290
18102TIP3   OH275796   5.583   1.005   5.581  0.3205  0.8121 -0.2732
18102TIP3    H175797   5.547   0.916   5.582  0.1989  0.8643  0.0153
18102TIP3    H275798   5.521   1.056   5.530 -0.5215  1.1135  1.0318
18103TIP3   OH275799   2.386   4.738  15.351  0.0409 -0.6437 -0.2240
18103TIP3    H175800   2.358   4.659  15.305 -1.6508 -1.2609  1.7920
18103TIP3    H275801   2.451   4.708  15.414  1.1855 -0.0488 -1.1107
18104TIP3   OH275802   5.251   4.552  11.720 -0.0756  0.4567  0.0875
18104TIP3    H175803   5.251   4.636  11.765  1.1152 -0.0159  1.0091
18104TIP3    H275804   5.163   4.544  11.683 -0.8413  1.1897  1.7143
18105TIP3   OH275805   6.550   1.805   5.682  0.3547 -0.0326 -0.1591
18105TIP3    H175806   6.530   1.846   5.598  1.7343  0.0829 -0.4419
18105TIP3    H275807   6.544   1.877   5.745  1.6390  0.3874 -0.4972
18106TIP3   OH275808   6.502   1.375   4.834  0.4311  0.5689 -0.5522
18106TIP3    H175809   6.554   1.453   4.852  1.2229 -0.5026  2.0426
18106TIP3    H275810   6.566   1.303   4.835 -0.7328 -0.4697  0.1785
18107TIP3   OH275811   3.439   0.207   4.393 -0.3620 -0.3890  0.1940
18107TIP3    H175812   3.358   0.250   4.422  0.4998  0.3144  1.6081
18107TIP3    H275813   3.435   0.212   4.297 -1.2849  0.9697  0.2819
18108TIP3   OH275814   4.582   0.657  16.149  0.1476  0.4178  0.1808
18108TIP3    H175815   4.617   0.607  16.223 -0.6723 -2.9939 -1.6267
18108TIP3    H275816   4.645   0.643  16.079  0.0337  2.2308 -0.3167
18109TIP3   OH275817   3.648   3.372   3.698  0.3262  0.5789 -0.1933
18109TIP3    H175818   3.563   3.350   3.661  1.0568 -1.6884 -0.6469
18109TIP3    H275819   3.629   3.433   3.769 -1.5810  0.7718 -0.8337
18110TIP3   OH275820   3.189   1.301   1.314  0.2425 -0.0798  0.2495
18110TIP3    H175821   3.103   1.261   1.306  0.4240 -0.9434  2.1990
18110TIP3    H275822   3.245   1.249   1.256 -0.4418  0.2048 -0.6767
18111TIP3   OH275823   1.748   3.643   3.762 -0.1871  0.4199  0.4539
18111TIP3    H175824   1.666   3.633   3.713  0.3566 -0.3624 -0.3022
18111TIP3    H275825   1.808   3.580   3.722  0.3976  0.0713  1.8513
18112TIP3   OH275826   4.836   6.606  17.128 -0.2682  0.7737  0.6318
18112TIP3    H175827   4.771   6.538  17.110  0.6412  0.2007 -0.5107
18112TIP3    H275828   4.867   6.587  17.216 -0.9371  0.4614  0.7999
18113TIP3   OH275829   5.480   4.772   5.707 -0.4277  0.1781 -0.1974
18113TIP3    H175830   5.470   4.867   5.712  0.0535  0.2598 -0.7012
18113TIP3    H275831   5.547   4.758   5.639 -0.4014 -0.5135 -0.0384
18114TIP3   OH275832   3.651   5.233  15.952  0.0709  0.2071 -0.1980
18114TIP3    H175833   3.603   5.170  16.006 -1.1656  0.6184 -0.7900
18114TIP3    H275834   3.740   5.231  15.986 -0.8146  0.9265  2.3417
18115TIP3   OH275835   6.779   2.504  12.665 -0.4389  0.4645 -0.2523
18115TIP3    H175836   6.698   2.544  12.631 -0.9761 -0.0990  0.3380
18115TIP3    H275837   6.760   2.491  12.758  0.6338  1.0615  0.0511
18116TIP3   OH275838   1.738   4.037  11.680 -0.0839  0.2309  0.2386
18116TIP3    H175839   1.725   3.953  11.636  1.4253  0.4631 -0.7189
18116TIP3    H275840   1.693   4.028  11.764 -0.8233 -1.1502 -0.2881
18117TIP3   OH275841   1.817   5.077   4.807  0.4277  0.0571 -0.4851
18117TIP3    H175842   1.827   4.993   4.852 -1.9388  0.4404  0.8304
18117TIP3    H275843   1.830   5.142   4.876 -1.4081  0.6814 -0.6986
18118TIP3   OH275844   3.351   4.520   3.317  0.1172  0.7544  0.1337
18118TIP3    H175845   3.306   4.593   3.274  0.4002  0.2454 -1.0448
18118TIP3    H275846   3.378   4.463   3.246  0.0096 -0.4527  1.0408
18119TIP3   OH275847   5.362   2.392  10.678 -0.0829  0.0812  0.3106
18119TIP3    H175848   5.344   2.327  10.610 -0.0723  0.3918  0.0072
18119TIP3    H275849   5.316   2.471  10.648 -1.1375 -0.1456  1.3037
18120TIP3   OH275850   4.640   2.041   4.268  0.2171 -0.0491 -0.5732
18120TIP3    H175851   4.685   2.010   4.190  0.0547  0.3076 -0.8090
18120TIP3    H275852   4.658   2.135   4.271 -0.4063  0.0758 -0.6010
18121TIP3   OH275853   0.876   1.093   5.830 -0.3065 -0.0313  0.2834
18121TIP3    H175854   0.881   1.187   5.813 -0.5977  0.0876  0.8364
18121TIP3    H275855   0.912   1.053   5.751  0.9980  0.5722  0.5641
18122TIP3   OH275856   1.267   5.998   3.764  0.0659 -0.2212  0.0706
18122TIP3    H175857   1.321   6.067   3.804 -0.5356 -0.0051  0.5205
18122TIP3    H275858   1.232   6.038   3.685 -0.1703 -0.0542  0.2588
18123TIP3   OH275859   2.362   3.714   2.834  0.1444 -0.3293 -0.7047
18123TIP3    H175860   2.449   3.677   2.845  0.2182 -0.2962 -1.1554
18123TIP3    H275861   2.364   3.755   2.747  0.1182  0.8872 -0.1380
18124TIP3   OH275862   5.165   5.597   0.352  0.0518  0.3008 -0.2066
18124TIP3    H175863   5.131   5.648   0.279  0.2424 -2.7342 -2.5031
18124TIP3    H275864   5.244   5.554   0.317  0.4097 -0.8664  1.9045
18125TIP3   OH275865   2.800   2.406  13.381 -0.1440 -0.8931  0.6536
18125TIP3    H175866   2.877   2.387  13.434  0.0833 -1.2330  0.2054
18125TIP3    H275867   2.806   2.500  13.363 -0.6121 -0.6305  1.8407
18126TIP3   OH275868   0.171   5.568  16.863  0.2583 -0.0361  0.1056
18126TIP3    H175869   0.100   5.579  16.799  1.5880  2.0242 -1.0591
18126TIP3    H275870   0.158   5.480  16.898 -2.0585 -0.2076 -1.0892
18127TIP3   OH275871   0.837   5.185  16.077  0.0495 -0.1585  0.0107
18127TIP3    H175872   0.763   5.125  16.066 -1.5484  1.5595  0.9923
18127TIP3    H275873   0.873   5.162  16.163  1.1555 -1.4841 -0.7811
18128TIP3   OH275874   4.400   6.109  16.895 -0.3144 -0.4563 -0.8247
18128TIP3    H175875   4.346   6.116  16.974 -0.2427  0.3808 -0.8485
18128TIP3    H275876   4.394   6.195  16.855  0.8447 -0.4455 -0.9674
18129TIP3   OH275877   2.892   4.174   4.393 -0.2170 -0.4158 -0.5467
18129TIP3    H175878   2.969   4.165   4.448  0.3827  1.1164 -1.0850
18129TIP3    H275879   2.820   4.192   4.454  0.2490  0.2094 -0.1714
18130TIP3   OH275880   4.534   1.530  12.795  0.1982 -0.3391 -0.8030
18130TIP3    H175881   4.545   1.467  12.724 -0.2653 -3.2017  1.5791
18130TIP3    H275882   4.621   1.534  12.837 -0.2830 -0.9874  0.2864
18131TIP3   OH275883   2.880   2.332   1.368  0.3624  0.0908 -0.3960
18131TIP3    H175884   2.946   2.263   1.362 -0.9030 -1.3286  1.3380
18131TIP3    H275885   2.803   2.294   1.324  0.1242  1.0252 -0.8067
18132TIP3   OH275886   3.863   2.750   0.518  0.2655  0.5956  0.0463
18132TIP3    H175887   3.844   2.657   0.506 -0.1176  0.5020  1.3320
18132TIP3    H275888   3.941   2.752   0.573  1.4104  1.0234 -1.5838
18133TIP3   OH275889   4.005   4.280  12.708 -0.1162  0.4998 -0.4763
18133TIP3    H175890   3.952   4.285  12.628 -0.2501  0.4543 -0.3897
18133TIP3    H275891   3.973   4.353  12.762 -0.3300  0.2554 -0.2760
18134TIP3   OH275892   1.443   5.272  13.144  0.3714 -1.0854 -0.7962
18134TIP3    H175893   1.484   5.199  13.191 -0.9203 -0.7230  0.9519
18134TIP3    H275894   1.516   5.318  13.104  1.5240 -1.5199  0.7343
18135TIP3   OH275895   1.720   1.895   0.284  0.0764 -0.2862  0.5367
18135TIP3    H175896   1.790   1.944   0.328 -0.4106  2.5793 -1.7711
18135TIP3    H275897   1.659   1.873   0.355  0.8154  1.6012  1.8114
18136TIP3   OH275898   5.810   6.728   4.763  0.1634 -0.1513 -0.2925
18136TIP3    H175899   5.809   6.685   4.848  1.8543 -0.2851 -0.3247
18136TIP3    H275900   5.895   6.773   4.760 -0.2260  0.5253 -1.5726
18137TIP3   OH275901   5.327   0.959   0.536  0.1225 -0.0307 -0.3135
18137TIP3    H175902   5.294   0.991   0.452 -1.6275  1.0697  0.7574
18137TIP3    H275903   5.396   0.897   0.513 -0.1135  0.5021 -2.5509
18138TIP3   OH275904   5.068   3.047   1.962  0.3858 -0.0904  0.2026
18138TIP3    H175905   5.001   3.116   1.959 -0.0414 -0.3603  2.3059
18138TIP3    H275906   5.024   2.972   2.003  1.0075 -1.4398 -1.5463
18139TIP3   OH275907   5.013   6.258   4.402  0.0843 -0.1320 -0.0338
18139TIP3    H175908   4.921   6.283   4.413  0.2601  0.1616  0.8916
18139TIP3    H275909   5.034   6.279   4.311 -0.7687 -0.2002 -0.2443
18140TIP3   OH275910   6.338   5.955  14.948  0.3318  0.1903  0.1526
18140TIP3    H175911   6.360   5.938  15.040  0.5345  1.1064  0.2771
18140TIP3    H275912   6.316   6.048  14.946  0.5642  0.2251 -0.7759
18141TIP3   OH275913   1.587   3.474   4.742  0.5310 -0.2137  0.2021
18141TIP3    H175914   1.549   3.388   4.756  3.8832 -2.4236 -3.3865
18141TIP3    H275915   1.665   3.475   4.798  3.3976 -1.6766 -3.6009
18142TIP3   OH275916   2.608   5.339   4.555  0.3195  0.5007  0.2338
18142TIP3    H175917   2.639   5.265   4.606  0.1523  0.7289  0.6651
18142TIP3    H275918   2.547   5.301   4.492  1.6705 -0.0013 -0.8221
18143TIP3   OH275919   3.510   1.995   2.519 -0.3233 -0.0794  0.2835
18143TIP3    H175920   3.436   2.036   2.563  0.2573  1.6677 -0.3484
18143TIP3    H275921   3.588   2.030   2.564  0.1722 -0.7935 -0.0002
18144TIP3   OH275922   6.317   2.821   1.476 -0.1770 -0.1876 -0.1133
18144TIP3    H175923   6.311   2.731   1.443  0.3704 -0.4199  0.3936
18144TIP3    H275924   6.293   2.876   1.402  1.0150 -0.7027 -0.9061
18145TIP3   OH275925   0.033   2.555  11.154  0.5998  0.1267 -0.1124
18145TIP3    H175926  -0.046   2.522  11.111 -0.9010 -0.3983  2.9095
18145TIP3    H275927   0.098   2.487  11.140 -1.1208 -2.0414  2.0581
18146TIP3   OH275928   0.136   4.618  11.463  0.0055  0.1277  0.3837
18146TIP3    H175929   0.147   4.538  11.515 -0.8808 -0.4509 -0.2904
18146TIP3    H275930   0.208   4.674  11.489  0.8643 -1.0514  0.5843
18147TIP3   OH275931   4.032   4.146  10.715  0.0080  0.7059 -0.2049
18147TIP3    H175932   3.967   4.076  10.723  0.1991  0.4887 -0.5436
18147TIP3    H275933   4.055   4.146  10.623  1.5552 -0.1717  0.1699
18148TIP3   OH275934   0.528   2.483   6.183 -0.6293 -0.0066  0.8122
18148TIP3    H175935   0.502   2.539   6.110  0.8522  2.0552  1.8185
18148TIP3    H275936   0.523   2.539   6.260  0.5493 -1.3490  1.9006
18149TIP3   OH275937   3.565   0.184  15.538  0.2448 -0.3361  0.0471
18149TIP3    H175938   3.600   0.096  15.529 -1.2701 -0.7005 -2.8833
18149TIP3    H275939   3.636   0.241  15.509  0.9550 -0.6138  1.2143
18150TIP3   OH275940   5.382   1.127   2.908 -0.3592 -0.5512  0.5259
18150TIP3    H175941   5.459   1.176   2.879 -1.4522  1.1463  0.4320
18150TIP3    H275942   5.410   1.083   2.988  0.4092  0.9213  1.0839
18151TIP3   OH275943   0.918   1.304  14.622  0.3391 -0.4371 -0.0705
18151TIP3    H175944   0.926   1.400  14.618 -0.6244 -0.3973 -1.5543
18151TIP3    H275945   0.834   1.286  14.579 -0.0310 -1.8784  1.2240
18152TIP3   OH275946   5.040   6.168  14.865  0.3769  0.1301 -0.0655
18152TIP3    H175947   5.063   6.080  14.834  0.1129  0.4332 -1.1606
18152TIP3    H275948   4.990   6.153  14.945 -0.2373 -0.7665 -0.5968
18153TIP3   OH275949   0.292   6.437   3.523 -0.5132  0.0265  0.1644
18153TIP3    H175950   0.379   6.455   3.489 -0.5168 -0.3593 -0.0641
18153TIP3    H275951   0.291   6.342   3.537 -0.8936  0.0277  0.1624
18154TIP3   OH275952   1.527   4.626  11.327 -0.1520  0.1198 -0.1528
18154TIP3    H175953   1.560   4.570  11.258  1.6749  1.4044 -0.3498
18154TIP3    H275954   1.435   4.601  11.337  0.3888 -2.2120 -0.8874
18155TIP3   OH275955   5.994   0.560  15.481  0.4212  0.3299  0.0109
18155TIP3    H175956   6.044   0.493  15.527 -1.6028 -0.2353  1.4651
18155TIP3    H275957   5.933   0.511  15.426 -0.7509  0.9451  0.7322
18156TIP3   OH275958   5.936   4.184   5.583  0.2203 -0.3073 -0.4052
18156TIP3    H175959   6.008   4.248   5.580  1.0623 -1.2397 -0.1691
18156TIP3    H275960   5.919   4.162   5.492  1.6046 -1.6053 -0.3649
18157TIP3   OH275961   1.245   1.072  16.709  0.2472  0.1150 -0.2355
18157TIP3    H175962   1.296   1.026  16.775  0.6273 -1.3981 -1.5398
18157TIP3    H275963   1.175   1.115  16.758 -0.2842 -2.1024  1.0267
18158TIP3   OH275964   5.002   0.003  10.986 -0.1452  0.0732 -0.0680
18158TIP3    H175965   5.054  -0.013  10.908  0.3413  1.8568 -0.1307
18158TIP3    H275966   4.943  -0.072  10.992  1.2252 -1.0903 -0.9734
18159TIP3   OH275967   0.790   2.838   3.681  0.1746  0.4008 -0.2406
18159TIP3    H175968   0.813   2.752   3.646 -1.3093  0.1432 -0.6089
18159TIP3    H275969   0.864   2.895   3.655  1.1833 -0.7597  0.0600
18160TIP3   OH275970   1.427   1.650  16.028  0.2176 -0.5962 -0.1755
18160TIP3    H175971   1.407   1.650  16.121  0.1466  2.7459 -0.1364
18160TIP3    H275972   1.511   1.696  16.021  0.6908 -1.6432 -1.6676
18161TIP3   OH275973   2.433   4.825   3.000  0.1072 -0.2546  0.4017
18161TIP3    H175974   2.453   4.794   3.089 -1.0518  1.3468  1.2470
18161TIP3    H275975   2.486   4.770   2.943 -1.6325 -3.6382  1.8794
18162TIP3   OH275976   3.312   0.931   3.586 -0.1087  0.1060 -0.5005
18162TIP3    H175977   3.239   0.889   3.632 -0.4852  1.4494  0.1765
18162TIP3    H275978   3.385   0.928   3.648 -0.3422  1.0675 -0.1699
18163TIP3   OH275979   2.949   2.108  11.334  0.0300 -0.2929  0.3609
18163TIP3    H175980   2.984   2.022  11.356  1.8499 -0.1966 -1.9185
18163TIP3    H275981   3.017   2.169  11.364 -1.2353  0.3723  1.9402
18164TIP3   OH275982   1.129   5.114   6.988 -0.0873  0.1150  0.0906
18164TIP3    H175983   1.073   5.044   6.953 -0.7514  0.8384 -0.3114
18164TIP3    H275984   1.070   5.189   6.997  1.1547  1.3958 -1.9239
18165TIP3   OH275985   3.035   4.324  15.149 -0.2543  0.2694  1.0041
18165TIP3    H175986   2.963   4.279  15.105  1.2890 -0.9892 -0.2855
18165TIP3    H275987   3.042   4.279  15.234  0.9275 -1.5967 -0.0639
18166TIP3   OH275988   0.327   5.778  15.300 -0.4007  0.4433 -0.1982
18166TIP3    H175989   0.251   5.823  15.338  1.8224  2.9722  1.3767
18166TIP3    H275990   0.369   5.734  15.374  2.0298  2.5739 -0.2618
18167TIP3   OH275991   5.212   6.434   5.525 -0.3461  0.1685 -0.6979
18167TIP3    H175992   5.206   6.461   5.616  1.4173 -0.2794 -0.4180
18167TIP3    H275993   5.137   6.378   5.510 -1.3759  1.3226  0.0983
18168TIP3   OH275994   2.701   2.282  15.983  0.3611 -0.9476  0.5809
18168TIP3    H175995   2.618   2.326  16.002  0.6355 -0.0922 -0.1931
18168TIP3    H275996   2.711   2.289  15.888  1.1214 -1.4101  0.6245
18169TIP3   OH275997   0.024   3.055  11.503  0.1378 -0.0150 -0.1583
18169TIP3    H175998   0.076   3.127  11.539 -0.2248 -0.3481  1.0712
18169TIP3    H275999   0.029   2.987  11.570  0.4888 -1.1466 -1.3108
18170TIP3   OH276000   4.463   2.640   1.872 -0.2928 -0.1265 -0.2570
18170TIP3    H176001   4.470   2.725   1.831  1.2678  0.0585  0.3538
18170TIP3    H276002   4.531   2.587   1.831 -1.3176 -1.1175 -0.7108
18171TIP3   OH276003   6.607   0.101   3.236  0.2867 -0.0054 -0.4779
18171TIP3    H176004   6.629   0.141   3.320 -0.5033  0.4728 -0.4952
18171TIP3    H276005   6.536   0.040   3.256  0.0458  0.1620 -0.8057
18172TIP3   OH276006   3.244   1.795   0.200  0.8489 -0.0181  0.2942
18172TIP3    H176007   3.262   1.889   0.190 -1.5076  0.5237  0.7046
18172TIP3    H276008   3.315   1.752   0.154  0.8493  2.0296 -1.7111
18173TIP3   OH276009   1.337   5.509  16.538  0.2691 -0.0460  0.2221
18173TIP3    H176010   1.330   5.472  16.626  0.6500  0.3296  0.4144
18173TIP3    H276011   1.275   5.459  16.486 -0.0770 -0.1675  0.7434
18174TIP3   OH276012   4.516   4.603   5.402  0.3322  0.6671  0.4361
18174TIP3    H176013   4.480   4.521   5.370  1.6093  1.1045 -2.2215
18174TIP3    H276014   4.450   4.636   5.463 -1.4534 -0.9663 -0.5696
18175TIP3   OH276015   1.771   5.280   2.634 -0.5777 -0.0515  0.5767
18175TIP3    H176016   1.707   5.256   2.567 -1.3414 -0.1182  1.3183
18175TIP3    H276017   1.810   5.196   2.660 -0.9022 -0.1228  0.8336
18176TIP3   OH276018   3.718   4.176   5.775  0.3917 -0.2048  0.1148
18176TIP3    H176019   3.754   4.167   5.863 -0.1297 -1.3776  0.2197
18176TIP3    H276020   3.737   4.266   5.750  2.2670 -0.4064  0.6748
18177TIP3   OH276021   3.280   5.711  14.115  0.2039 -0.5813 -0.2372
18177TIP3    H176022   3.292   5.676  14.027 -2.0139 -0.2482 -0.7124
18177TIP3    H276023   3.279   5.806  14.103  0.6213 -0.5118  0.2620
18178TIP3   OH276024   1.594   1.857  16.494 -0.3853 -0.0063 -0.1459
18178TIP3    H176025   1.670   1.832  16.441 -0.2132  1.2076 -0.4956
18178TIP3    H276026   1.631   1.897  16.573 -0.6367  1.6221 -0.8221
18179TIP3   OH276027   3.369   6.526   3.093 -0.3019 -0.3477 -0.0836
18179TIP3    H176028   3.309   6.457   3.064  0.1424 -0.6066 -0.4070
18179TIP3    H276029   3.323   6.608   3.073 -0.0666 -0.5295 -1.3980
18180TIP3   OH276030   5.653   5.452   2.043 -0.0726 -0.0583  0.4002
18180TIP3    H176031   5.559   5.435   2.039 -0.1795  0.6991 -0.2565
18180TIP3    H276032   5.663   5.511   2.117 -0.0961 -0.2367  0.5471
18181TIP3   OH276033   0.255   4.738   4.237  0.4635 -0.5323 -0.4779
18181TIP3    H176034   0.318   4.668   4.260  0.0771 -0.4414  0.9172
18181TIP3    H276035   0.287   4.815   4.285 -0.7591 -0.5134  0.3221
18182TIP3   OH276036   3.039   4.297  16.974 -0.2844 -0.7960  0.2581
18182TIP3    H176037   2.975   4.357  17.012 -1.7057 -1.3949 -1.1576
18182TIP3    H276038   3.120   4.316  17.022 -1.9667 -1.4486  3.4988
18183TIP3   OH276039   5.718   4.111   5.756 -0.0210 -0.3128  0.3148
18183TIP3    H176040   5.738   4.131   5.847 -0.8468  1.1203  0.1982
18183TIP3    H276041   5.796   4.137   5.707  0.3617 -0.9360  0.5929
18184TIP3   OH276042   4.102   6.657  14.891 -0.2262  0.2034  0.5686
18184TIP3    H176043   4.045   6.645  14.967  2.4448  2.1417  2.9953
18184TIP3    H276044   4.087   6.747  14.864  1.8622  0.8149  1.4065
18185TIP3   OH276045   1.227   4.199  11.519 -0.2581  0.8045 -0.0289
18185TIP3    H176046   1.186   4.140  11.582 -0.5530  1.5410  0.4744
18185TIP3    H276047   1.165   4.204  11.447 -0.2974  0.6044 -0.0094
18186TIP3   OH276048   6.014   4.381  14.102  0.3217  0.0176 -0.2326
18186TIP3    H176049   6.029   4.289  14.078 -0.2183  0.2172 -1.3833
18186TIP3    H276050   5.946   4.410  14.041 -0.4508  0.8136  0.9883
18187TIP3   OH276051   0.305   3.031  15.156  0.4312  0.3467  0.2567
18187TIP3    H176052   0.268   3.111  15.194  2.6958  1.2354  0.7053
18187TIP3    H276053   0.344   2.986  15.231  0.5365 -0.3901 -0.2390
18188TIP3   OH276054   1.461   0.418  15.298  0.1508  0.1800 -0.5158
18188TIP3    H176055   1.537   0.467  15.266  0.3852  0.5780  0.6381
18188TIP3    H276056   1.490   0.326  15.297  0.0854  0.1623 -1.6134
18189TIP3   OH276057   0.090   0.246  17.134 -0.5945  0.4418  0.0655
18189TIP3    H176058   0.041   0.315  17.180 -1.3702  0.4769 -0.8023
18189TIP3    H276059   0.095   0.276  17.044  1.1884  0.5060  0.1653
18190TIP3   OH276060   0.352   1.024   2.472 -0.1985 -0.1654  0.1310
18190TIP3    H176061   0.299   1.025   2.552  0.6937  0.2127  0.7290
18190TIP3    H276062   0.367   1.116   2.452  0.6462 -0.2694  0.2560
18191TIP3   OH276063   0.132   3.815  12.317  0.1800 -0.3087 -0.6016
18191TIP3    H176064   0.120   3.723  12.293 -1.7485  0.2128 -1.7330
18191TIP3    H276065   0.104   3.820  12.408 -0.7109 -0.6534 -0.8514
18192TIP3   OH276066   5.139   4.902   3.278 -0.3275 -0.3480  0.6396
18192TIP3    H176067   5.185   4.902   3.362 -0.3561 -0.5523  0.6536
18192TIP3    H276068   5.076   4.974   3.286  0.0273 -0.0298  0.5995
18193TIP3   OH276069   2.377   3.744   5.296 -0.1263 -0.1237 -0.2223
18193TIP3    H176070   2.350   3.833   5.321 -0.3352  0.0489 -1.0421
18193TIP3    H276071   2.469   3.753   5.272 -0.5715  0.1783 -1.8184
18194TIP3   OH276072   1.101   5.469   0.494  0.1203 -0.0253 -0.5659
18194TIP3    H176073   1.191   5.462   0.463  0.2512 -0.2214 -0.1426
18194TIP3    H276074   1.090   5.563   0.513  0.6134 -0.1702  0.4942
18195TIP3   OH276075   0.584   3.287   4.251 -0.0957  0.5239 -0.1774
18195TIP3    H176076   0.552   3.283   4.341 -0.2431 -2.6372 -0.3078
18195TIP3    H276077   0.588   3.195   4.223  1.2705  1.3675 -2.9255
18196TIP3   OH276078   4.946   5.539   3.031 -0.8149  0.3402  0.2390
18196TIP3    H176079   4.909   5.609   2.977  2.5538  1.8328 -0.2600
18196TIP3    H276080   4.936   5.571   3.121 -1.2921  0.4417  0.1508
18197TIP3   OH276081   2.658   3.232  13.200  0.3376  0.0018 -0.0688
18197TIP3    H176082   2.609   3.177  13.262 -1.2176  0.2046 -1.1113
18197TIP3    H276083   2.746   3.236  13.237  0.2271 -2.4175  0.5347
18198TIP3   OH276084   5.640   3.552  10.923  0.5010 -0.2012  0.4072
18198TIP3    H176085   5.627   3.642  10.894  2.3858  0.0746  0.3679
18198TIP3    H276086   5.645   3.558  11.019 -1.4602 -0.5613  0.5597
18199TIP3   OH276087   2.929   2.159   5.911 -0.3763  0.3050  0.4419
18199TIP3    H176088   3.009   2.129   5.953  1.2238  2.1464 -1.2357
18199TIP3    H276089   2.879   2.200   5.982  1.2762  1.3618  1.0050
18200TIP3   OH276090   4.893   6.312  12.895 -0.0661 -0.1470  0.4310
18200TIP3    H176091   4.986   6.317  12.916  0.5005  0.2757 -2.1082
18200TIP3    H276092   4.880   6.222  12.865 -0.1389  0.2380 -0.7103
18201TIP3   OH276093   5.243   5.304   3.941  0.2824  0.5436 -0.2622
18201TIP3    H176094   5.240   5.216   3.977 -2.8155 -0.0885 -1.9271
18201TIP3    H276095   5.173   5.307   3.876  2.6904  3.0681 -2.9493
18202TIP3   OH276096   3.846   2.278  13.189  0.0976  0.6932 -0.1809
18202TIP3    H176097   3.758   2.240  13.184 -0.2862  1.6593 -1.2272
18202TIP3    H276098   3.900   2.220  13.135  0.2244 -0.1971  0.8894
18203TIP3   OH276099   6.059   2.689  15.431  0.0806  0.2910 -0.1215
18203TIP3    H176100   6.011   2.681  15.514 -0.8504  0.6578 -0.6197
18203TIP3    H276101   6.137   2.634  15.443  1.5516  2.7525  2.1526
18204TIP3   OH276102   3.022   6.518  14.721  0.1016  0.3851 -0.0211
18204TIP3    H176103   3.001   6.431  14.685 -2.1412  0.4527  1.0318
18204TIP3    H276104   3.005   6.578  14.648  0.8439  0.0264 -0.4977
18205TIP3   OH276105   5.811   6.375  14.930 -0.8058  0.2333  0.0124
18205TIP3    H176106   5.786   6.369  14.837 -1.2481  0.9003  0.0894
18205TIP3    H276107   5.746   6.433  14.969 -0.8148 -0.3110  0.8151
18206TIP3   OH276108   6.462   3.885  16.601  0.1374 -0.2359 -0.6921
18206TIP3    H176109   6.417   3.951  16.548  1.0133  1.8187  1.0554
18206TIP3    H276110   6.468   3.924  16.688  1.0982 -2.4492  0.2697
18207TIP3   OH276111   2.512   0.372   0.921 -0.6195 -0.2366 -0.2066
18207TIP3    H176112   2.488   0.457   0.959  1.4889  0.0922  0.4245
18207TIP3    H276113   2.539   0.319   0.996 -0.3032 -0.9199 -0.8040
18208TIP3   OH276114   0.726   4.890  15.367  0.0551 -0.1868 -0.0370
18208TIP3    H176115   0.682   4.917  15.447 -0.7699 -0.5527 -0.3651
18208TIP3    H276116   0.692   4.949  15.299  0.1869 -0.3653 -0.2605
18209TIP3   OH276117   1.781   6.060  11.389 -0.2364  0.1265  1.1048
18209TIP3    H176118   1.865   6.058  11.435  1.2643 -3.6282 -1.5358
18209TIP3    H276119   1.804   6.087  11.300 -1.9222 -0.1372  0.5839
18210TIP3   OH276120   2.262   2.251   6.419 -0.0518  0.2446  0.2903
18210TIP3    H176121   2.309   2.325   6.457 -0.0277  1.5580 -2.2139
18210TIP3    H276122   2.193   2.291   6.365 -1.8203 -1.5998  1.1012
18211TIP3   OH276123   5.791   2.385   1.960 -0.3256  0.2160  0.2736
18211TIP3    H176124   5.837   2.468   1.947  0.3111 -0.1609  0.1357
18211TIP3    H276125   5.699   2.411   1.970 -0.0082  1.0265  1.2587
18212TIP3   OH276126   0.989   4.819   0.966 -0.7858 -0.1574 -0.0373
18212TIP3    H176127   1.069   4.807   1.018 -0.9582 -0.5810  0.1362
18212TIP3    H276128   0.987   4.913   0.947 -0.6051 -0.0336  0.5327
18213TIP3   OH276129   1.553   1.416   5.665  0.1774  0.0329  0.6716
18213TIP3    H176130   1.555   1.406   5.760 -2.4380  0.0148  0.7712
18213TIP3    H276131   1.587   1.334   5.631  2.8812  0.7284  1.5635
18214TIP3   OH276132   3.746   3.104   0.396  0.4189 -0.4385 -0.2449
18214TIP3    H176133   3.772   3.190   0.365 -0.5866  0.7772  2.1639
18214TIP3    H276134   3.810   3.044   0.356  1.2967  1.4248 -1.7087
18215TIP3   OH276135   1.831   4.987   6.174  0.3913  0.0352 -0.3608
18215TIP3    H176136   1.792   4.919   6.119  0.4351 -1.6757  1.6758
18215TIP3    H276137   1.896   4.941   6.227  0.7640  1.7512  0.7342
18216TIP3   OH276138   3.821   0.273  11.595 -0.6736  0.3587 -0.2353
18216TIP3    H176139   3.790   0.187  11.566 -1.6272  0.0531  1.6470
18216TIP3    H276140   3.753   0.334  11.567 -0.7921  0.2882 -0.0981
18217TIP3   OH276141   5.638   1.123  15.309  0.5207 -0.4238 -0.1806
18217TIP3    H176142   5.668   1.100  15.396  1.1510  0.4729 -0.1477
18217TIP3    H276143   5.543   1.121  15.314  0.4857  2.2003  1.2833
18218TIP3   OH276144   6.597   0.867   6.214 -0.2972 -0.2848 -0.1968
18218TIP3    H176145   6.507   0.840   6.233  0.8286 -3.7161  0.6052
18218TIP3    H276146   6.617   0.932   6.282 -1.3065 -1.4769  1.2913
18219TIP3   OH276147   5.576   2.324   4.488 -0.5930  0.4469  0.0459
18219TIP3    H176148   5.659   2.343   4.532  0.2429 -1.5265 -0.6076
18219TIP3    H276149   5.541   2.248   4.534  0.4634 -1.8808 -2.8211
18220TIP3   OH276150   1.880   0.176   4.611 -0.3416  0.5234 -0.3655
18220TIP3    H176151   1.825   0.165   4.533 -0.4471  1.3658 -0.4197
18220TIP3    H276152   1.932   0.255   4.593  1.4323 -0.6782 -0.6248
18221TIP3   OH276153   4.952   2.160   5.897 -0.0833 -0.2071  0.2415
18221TIP3    H176154   5.029   2.105   5.906 -0.3763 -0.5644  0.5852
18221TIP3    H276155   4.976   2.225   5.831  0.2197 -0.8154 -0.2427
18222TIP3   OH276156   4.052   6.612  13.296 -0.1786  0.2267  0.6622
18222TIP3    H176157   4.053   6.625  13.201  2.1340 -0.3673  0.5730
18222TIP3    H276158   3.992   6.539  13.309  0.3067 -0.3906 -0.4588
18223TIP3   OH276159   3.213   1.274  14.923  0.4160 -0.4793  0.3173
18223TIP3    H176160   3.270   1.346  14.898  0.5740 -0.6123  0.2936
18223TIP3    H276161   3.164   1.307  14.998  0.1876 -0.2004  0.0444
18224TIP3   OH276162   2.463   0.873   2.446 -0.4449  0.3822 -0.2875
18224TIP3    H176163   2.499   0.904   2.529  1.2028 -1.3279 -0.3247
18224TIP3    H276164   2.519   0.914   2.379  1.0740 -1.7360 -0.3704
18225TIP3   OH276165   0.674   3.446   6.852 -0.0814  0.5792  0.8819
18225TIP3    H176166   0.649   3.538   6.850  2.2198  1.2412  0.9902
18225TIP3    H276167   0.613   3.405   6.913 -2.5522  1.5618 -0.8458
18226TIP3   OH276168   2.532   2.958  13.616  0.6553  0.9267 -0.4133
18226TIP3    H176169   2.606   2.927  13.669  1.3016 -0.8167 -2.2726
18226TIP3    H276170   2.458   2.959  13.676  1.7337  0.6564  0.9475
18227TIP3   OH276171   5.719   4.404   1.813  0.2609  0.0498 -0.0616
18227TIP3    H176172   5.730   4.330   1.753 -1.1630 -0.5180  0.3434
18227TIP3    H276173   5.804   4.415   1.854  1.4641  0.9023 -2.6903
18228TIP3   OH276174   4.517   3.704   3.521 -0.1667 -0.0057 -0.2184
18228TIP3    H176175   4.545   3.786   3.480 -0.7670  0.0208 -0.5860
18228TIP3    H276176   4.482   3.731   3.606 -4.8639  0.7920 -2.2087
18229TIP3   OH276177   5.528   4.435  17.255 -0.3042 -0.1286  0.0796
18229TIP3    H176178   5.496   4.495  17.187 -0.7179 -0.7015 -0.2287
18229TIP3    H276179   5.617   4.413  17.229  0.4096  1.5490  0.9911
18230TIP3   OH276180   1.530   5.896   5.778 -0.1120  0.4946  0.0472
18230TIP3    H176181   1.591   5.945   5.832 -3.5070  2.6126  2.1864
18230TIP3    H276182   1.477   5.846   5.841 -1.4868 -0.1883 -1.6120
18231TIP3   OH276183   4.441   5.905   4.744  0.5251  0.6249  0.5598
18231TIP3    H176184   4.491   5.960   4.804 -0.4484  0.7549  1.2712
18231TIP3    H276185   4.503   5.838   4.715  1.7784  2.1996 -0.4739
18232TIP3   OH276186   2.263   1.689  16.628 -0.2627  0.1381  0.1535
18232TIP3    H176187   2.171   1.676  16.604 -0.2434  1.0515 -0.4712
18232TIP3    H276188   2.265   1.774  16.672  0.4681  0.7272 -0.9821
18233TIP3   OH276189   1.315   0.438  14.085  0.4731 -0.1057 -0.4385
18233TIP3    H176190   1.260   0.399  14.017 -2.1058 -0.0208  1.5179
18233TIP3    H276191   1.308   0.532  14.071  1.5697 -0.1306 -1.2503
18234TIP3   OH276192   4.463   5.858  11.133  0.4640 -0.4893 -0.2677
18234TIP3    H176193   4.459   5.939  11.083 -0.7715 -0.6477 -0.4384
18234TIP3    H276194   4.555   5.834  11.132  0.6671  0.2874 -1.2204
18235TIP3   OH276195   5.791   5.676  11.279  0.0390 -0.5589 -0.1064
18235TIP3    H176196   5.868   5.675  11.221  1.2519 -1.4231  1.4990
18235TIP3    H276197   5.778   5.585  11.303 -0.4943 -0.2007  0.9671
18236TIP3   OH276198   5.706   4.791   5.544 -0.0342 -0.3069  0.2845
18236TIP3    H176199   5.777   4.796   5.608 -1.1291 -0.1183  1.5280
18236TIP3    H276200   5.709   4.700   5.512  0.6114 -0.3647  0.5047
18237TIP3   OH276201   4.346   4.904  12.183  0.1954  0.2789  0.2292
18237TIP3    H176202   4.307   4.925  12.267 -0.1013  0.2982  0.0888
18237TIP3    H276203   4.429   4.860  12.204 -0.4822 -0.8660  0.5356
18238TIP3   OH276204   1.742   4.964  14.576  0.3905 -0.0503  0.3133
18238TIP3    H176205   1.649   4.981  14.564  0.2087 -1.5350 -0.5084
18238TIP3    H276206   1.784   5.049  14.562 -0.8428  0.6568  0.8268
18239TIP3   OH276207   6.172   1.405   5.708 -0.0661 -0.0872 -0.6591
18239TIP3    H176208   6.115   1.482   5.705 -2.4750 -1.6744  1.9600
18239TIP3    H276209   6.148   1.355   5.630 -3.1041 -1.2141  0.9007
18240TIP3   OH276210   0.711   2.412   2.649  0.3165  0.1786 -0.3694
18240TIP3    H176211   0.757   2.482   2.603  1.6598 -0.8285 -0.6022
18240TIP3    H276212   0.753   2.331   2.618 -0.2632 -0.6475  0.9351
18241TIP3   OH276213   1.422   5.620  14.289  0.6096 -0.5949  0.3289
18241TIP3    H176214   1.336   5.584  14.267  1.7698 -2.4072 -1.5390
18241TIP3    H276215   1.451   5.569  14.364  0.6673 -1.0188  0.0239
18242TIP3   OH276216   5.351   4.709  17.211  0.3882 -0.2758  0.8654
18242TIP3    H176217   5.318   4.660  17.287  0.4805 -1.4856  0.1394
18242TIP3    H276218   5.350   4.646  17.139 -1.9068  1.4395 -0.7228
18243TIP3   OH276219   1.503   2.423  14.541 -0.5308 -0.5580 -0.1382
18243TIP3    H176220   1.599   2.419  14.534 -0.5694 -0.1270 -0.9353
18243TIP3    H276221   1.472   2.344  14.498 -0.6709  1.0217 -3.0965
18244TIP3   OH276222   5.449   4.493  13.197  0.8317 -0.4812 -0.1360
18244TIP3    H176223   5.496   4.510  13.116 -0.3169  0.8671 -0.5363
18244TIP3    H276224   5.369   4.544  13.190  1.1839  0.5032  2.2904
18245TIP3   OH276225   1.784   5.081  15.205  0.2028 -0.1816  0.4616
18245TIP3    H176226   1.688   5.080  15.204  0.0863  3.6448  2.0064
18245TIP3    H276227   1.808   5.148  15.141  1.9017 -1.4209 -0.2408
18246TIP3   OH276228   0.791   3.079  16.170  0.1741 -0.3928  0.2168
18246TIP3    H176229   0.862   3.065  16.232  0.8561 -0.8475 -0.6605
18246TIP3    H276230   0.712   3.048  16.216  0.8770 -2.0983  0.3061
18247TIP3   OH276231   6.793   3.616   0.106  0.0178 -0.2294 -0.0780
18247TIP3    H176232   6.724   3.554   0.085  1.0225 -0.8803 -1.5198
18247TIP3    H276233   6.866   3.561   0.135  0.4088  0.3768  0.0858
18248TIP3   OH276234   3.099   4.597  16.241 -0.3382 -0.2298  0.2588
18248TIP3    H176235   3.114   4.676  16.293  3.9003 -1.2594  0.7446
18248TIP3    H276236   3.113   4.625  16.150  0.4416 -0.2376  0.3732
18249TIP3   OH276237   4.435   6.801   0.998 -0.2961  0.0918  0.3942
18249TIP3    H176238   4.470   6.872   1.052 -0.3098  1.8542 -1.8223
18249TIP3    H276239   4.342   6.797   1.022 -0.0750  0.1245  1.2707
18250TIP3   OH276240   5.725   0.557  16.873  0.0373 -0.2676 -0.1784
18250TIP3    H176241   5.744   0.519  16.959 -0.0312 -1.1622 -0.5484
18250TIP3    H276242   5.804   0.607  16.851  0.8347 -1.6253 -0.4449
18251TIP3   OH276243   2.749   0.391   2.061 -0.3367 -0.3502  0.6158
18251TIP3    H176244   2.793   0.306   2.066 -1.8125 -1.1730  0.0371
18251TIP3    H276245   2.657   0.369   2.048 -0.8495  1.3441  1.3117
18252TIP3   OH276246   3.434   1.879   3.063 -0.0332  0.8012  0.0536
18252TIP3    H176247   3.351   1.879   3.111 -0.7628  1.6867 -1.1645
18252TIP3    H276248   3.419   1.817   2.992  0.5990  0.4281  0.2508
18253TIP3   OH276249   0.042   2.029   5.238  0.0540 -0.3189  0.3339
18253TIP3    H176250  -0.040   2.071   5.212  0.3199  0.3511  0.5694
18253TIP3    H276251   0.045   1.948   5.186  0.8686  1.3008 -2.1970
18254TIP3   OH276252   6.773   4.702   4.165 -0.3708  0.1055  0.8103
18254TIP3    H176253   6.717   4.633   4.129  0.3776 -0.6350  1.0401
18254TIP3    H276254   6.862   4.678   4.137  0.0890  0.1115  2.2325
18255TIP3   OH276255   6.007   3.479  15.151 -0.8288  0.3890 -0.0201
18255TIP3    H176256   6.002   3.383  15.149  1.2586  0.2394  0.7956
18255TIP3    H276257   6.056   3.498  15.231 -2.8113  2.2283  0.8134
18256TIP3   OH276258   5.347   5.556  12.912  0.4283 -0.2648  0.0704
18256TIP3    H176259   5.306   5.521  12.991 -0.8459  1.0749  0.0230
18256TIP3    H276260   5.275   5.560  12.848  1.4615 -1.4367 -1.2005
18257TIP3   OH276261   5.704   2.815  10.445 -0.3207 -0.1743 -0.4970
18257TIP3    H176262   5.652   2.751  10.494  1.8521 -1.7623 -0.1736
18257TIP3    H276263   5.765   2.762  10.393  1.5054  1.6091 -0.2716
18258TIP3   OH276264   4.812   0.863   2.645 -0.0137  0.5145 -0.2322
18258TIP3    H176265   4.748   0.794   2.627 -1.2208  1.1403  1.5965
18258TIP3    H276266   4.897   0.821   2.631 -0.7842 -0.0778 -3.5933
18259TIP3   OH276267   0.590   1.349   0.708  0.2799  0.3175 -0.4379
18259TIP3    H176268   0.613   1.432   0.750 -0.9849  0.4240  0.0849
18259TIP3    H276269   0.545   1.300   0.776 -2.3156  0.7205 -1.7823
18260TIP3   OH276270   3.780   1.876  12.841 -0.0970 -0.7352  0.2334
18260TIP3    H176271   3.810   1.908  12.926 -0.8931  1.8014 -0.4209
18260TIP3    H276272   3.726   1.800  12.863  0.6324 -0.8164  1.9037
18261TIP3   OH276273   6.169   5.736   5.778 -0.3470 -0.3224 -0.6928
18261TIP3    H176274   6.162   5.673   5.849 -0.8466 -0.1261 -0.5603
18261TIP3    H276275   6.080   5.771   5.769  0.3360  1.9182  0.6816
18262TIP3   OH276276   4.528   3.212  14.308  0.1127  0.7318  0.2383
18262TIP3    H176277   4.521   3.233  14.401  0.4493 -0.8466  0.6355
18262TIP3    H276278   4.581   3.132  14.305 -1.4984 -0.3267 -1.1605
18263TIP3   OH276279   1.019   3.103   5.611  0.2237  0.2922 -0.4116
18263TIP3    H176280   0.972   3.068   5.535  1.5119  2.9140 -2.4617
18263TIP3    H276281   1.043   3.192   5.587  2.7794  0.3827  2.1484
18264TIP3   OH276282   2.695   4.337   6.108 -0.1743 -0.1358  0.5440
18264TIP3    H176283   2.666   4.415   6.060 -2.0576 -1.5007 -0.6318
18264TIP3    H276284   2.706   4.367   6.198 -0.4554  1.5813  0.0386
18265TIP3   OH276285   1.787   3.772  11.530  0.5444  0.0651 -0.2722
18265TIP3    H176286   1.720   3.777  11.461  0.7651 -1.6000 -0.6261
18265TIP3    H276287   1.863   3.815  11.493  0.2509  0.3336 -0.5691
18266TIP3   OH276288   1.580   5.994  11.539  0.6435  0.4557 -0.2226
18266TIP3    H176289   1.655   6.025  11.489  1.2803  0.9664  1.0281
18266TIP3    H276290   1.614   5.924  11.595  0.4252  1.3360  1.0566
18267TIP3   OH276291   5.901   5.075   1.928  0.4254 -0.0753  0.2526
18267TIP3    H176292   5.844   5.052   2.001  1.7854  0.0718  1.4054
18267TIP3    H276293   5.865   5.157   1.895 -1.3098 -1.1031 -0.4706
18268TIP3   OH276294   0.543   5.215   4.938  0.3631 -0.3359  0.1960
18268TIP3    H176295   0.612   5.194   5.000 -1.2000 -0.3556  1.9564
18268TIP3    H276296   0.464   5.176   4.975 -0.8077  0.6119 -1.2328
18269TIP3   OH276297   6.605   6.418   1.674 -0.1052 -0.0780  0.4529
18269TIP3    H176298   6.671   6.352   1.691  1.8656  2.2109  1.9999
18269TIP3    H276299   6.546   6.413   1.749  0.3817  0.3044  0.8647
18270TIP3   OH276300   2.831   5.568   6.555  0.1281  0.0295 -0.0928
18270TIP3    H176301   2.746   5.609   6.540 -0.8686 -1.8090  0.3436
18270TIP3    H276302   2.837   5.501   6.486  1.0985 -0.0080  0.0315
18271TIP3   OH276303   5.513   4.179  15.819  0.2473 -0.2705 -0.1024
18271TIP3    H176304   5.528   4.257  15.871 -0.7226  0.3543 -0.7507
18271TIP3    H276305   5.519   4.107  15.882 -0.8052  0.4635  0.8601
18272TIP3   OH276306   4.429   5.683   2.621 -0.4490  0.1236  0.2847
18272TIP3    H176307   4.485   5.721   2.553 -0.5339  1.0764  0.7283
18272TIP3    H276308   4.427   5.590   2.602  1.3486  0.0716  0.3097
18273TIP3   OH276309   3.398   6.477  12.716 -0.3551 -0.2761 -0.5766
18273TIP3    H176310   3.492   6.485  12.699 -0.1902  0.2880  0.5663
18273TIP3    H276311   3.393   6.430  12.799 -1.0114  2.5873  1.0531
18274TIP3   OH276312   5.480   5.891   5.243  0.1928  0.0999 -0.5276
18274TIP3    H176313   5.500   5.798   5.254 -0.8035 -0.0281  0.3456
18274TIP3    H276314   5.511   5.932   5.323  1.0305  0.5983 -1.1015
18275TIP3   OH276315   0.948   4.906  13.809 -0.1055  0.6797 -0.3973
18275TIP3    H176316   1.011   4.940  13.873 -0.4706 -2.1530  1.5696
18275TIP3    H276317   0.991   4.917  13.724  0.7115  3.8171  0.3559
18276TIP3   OH276318   5.900   1.456   1.526  0.0031 -0.5461 -0.2504
18276TIP3    H176319   5.919   1.487   1.438 -1.1467 -0.9428 -0.6493
18276TIP3    H276320   5.913   1.532   1.582  1.2990 -0.4367 -0.6785
18277TIP3   OH276321   2.022   2.998   2.166 -0.0503 -0.4783 -0.8140
18277TIP3    H176322   2.010   2.915   2.212  0.9008 -2.0369 -3.2928
18277TIP3    H276323   2.114   2.999   2.142 -0.0016  1.4126 -0.6573
18278TIP3   OH276324   0.627   3.037   0.098  0.5283 -0.3769 -0.0696
18278TIP3    H176325   0.536   3.012   0.114  0.4112  0.0524 -0.0392
18278TIP3    H276326   0.664   3.052   0.185  0.0039  1.5675 -0.1463
18279TIP3   OH276327   4.736   1.444   2.713  0.2047  0.0154  0.2522
18279TIP3    H176328   4.827   1.464   2.692 -0.5215  1.7372 -1.3488
18279TIP3    H276329   4.703   1.398   2.636 -0.3863 -0.2746  0.6740
18280TIP3   OH276330   3.326   4.416  16.844  0.3359  0.5868  0.2349
18280TIP3    H176331   3.384   4.486  16.814 -0.0472  0.0958 -1.6850
18280TIP3    H276332   3.380   4.337  16.843  0.3158  0.5603  0.8565
18281TIP3   OH276333   5.853   0.699   1.208  0.7518 -0.5464 -0.5072
18281TIP3    H176334   5.906   0.776   1.190  0.4081 -0.4758 -1.2170
18281TIP3    H276335   5.763   0.731   1.209  0.7070 -0.6761  0.6351
18282TIP3   OH276336   3.735   3.007  10.929  0.6453 -0.7364  0.1241
18282TIP3    H176337   3.775   2.922  10.948  0.2706 -0.9514 -0.0603
18282TIP3    H276338   3.795   3.070  10.969  0.3150 -1.1441  1.3014
18283TIP3   OH276339   4.028   5.665  15.651  0.1027  0.1817  0.2842
18283TIP3    H176340   4.084   5.730  15.693  0.1115  0.1533  0.3167
18283TIP3    H276341   4.056   5.581  15.688  0.2490  0.1364  0.0694
18284TIP3   OH276342   1.331   2.567   1.318  0.6457  0.0675 -0.0641
18284TIP3    H176343   1.307   2.479   1.346  1.4231  0.0483  0.5499
18284TIP3    H276344   1.423   2.576   1.340 -0.3290  2.4266  3.6258
18285TIP3   OH276345   5.680   0.197   4.170 -0.1948 -0.3418  0.2816
18285TIP3    H176346   5.652   0.151   4.091  0.0464 -1.4375  0.8270
18285TIP3    H276347   5.750   0.255   4.140 -0.7819 -0.0218 -0.4843
18286TIP3   OH276348   1.242   4.439  11.658 -0.6308 -0.7686  0.0802
18286TIP3    H176349   1.253   4.354  11.615 -0.0291 -0.2572 -0.7950
18286TIP3    H276350   1.300   4.498  11.611 -0.6325  0.0154  1.0323
18287TIP3   OH276351   2.125   2.639  17.154 -0.8044 -0.3409 -0.0247
18287TIP3    H176352   2.154   2.707  17.216 -1.0579 -1.5258  1.4207
18287TIP3    H276353   2.090   2.688  17.080 -0.6978  1.1192  0.8649
18288TIP3   OH276354   5.479   0.616   2.648 -0.5925  0.0003  0.4733
18288TIP3    H176355   5.497   0.566   2.728 -1.9111 -0.8778  0.2409
18288TIP3    H276356   5.508   0.559   2.577  1.6419  1.2443  0.3308
18289TIP3   OH276357   6.272   6.222  10.838 -0.4118  0.0006  0.2563
18289TIP3    H176358   6.182   6.198  10.861  0.1115 -1.2433  1.0424
18289TIP3    H276359   6.323   6.142  10.852  0.8316  0.7082 -0.1270
18290TIP3   OH276360   4.041   1.218   5.192 -0.3016  0.3963 -0.4779
18290TIP3    H176361   4.083   1.144   5.149 -2.3854 -0.3109 -1.3821
18290TIP3    H276362   3.998   1.179   5.269 -2.4274  0.4114 -1.6247
18291TIP3   OH276363   6.654   0.297  16.195  0.9603 -0.2637  0.2748
18291TIP3    H176364   6.585   0.264  16.252 -0.4672  1.5280 -0.3955
18291TIP3    H276365   6.696   0.366  16.245  1.3761 -0.4142  0.1391
18292TIP3   OH276366   4.130   1.229  14.504  0.2836  0.2750 -0.2282
18292TIP3    H176367   4.142   1.316  14.466  2.3098 -0.0220 -0.3347
18292TIP3    H276368   4.182   1.231  14.585 -1.2124 -0.2206  0.7679
18293TIP3   OH276369   5.613   2.554   2.595  0.3709 -0.3076  0.1379
18293TIP3    H176370   5.572   2.628   2.550  0.0184 -1.0416 -0.7600
18293TIP3    H276371   5.682   2.525   2.535 -0.8391 -2.0112 -0.4661
18294TIP3   OH276372   2.894   4.892  14.673  0.1073  0.2386  0.0106
18294TIP3    H176373   2.912   4.968  14.728  1.5435 -1.2438  1.6428
18294TIP3    H276374   2.883   4.820  14.735  0.8669 -1.3047 -1.6072
18295TIP3   OH276375   3.872   3.108  16.034  0.3372  0.2569  0.1443
18295TIP3    H176376   3.932   3.124  16.108 -0.6475  0.1230  0.9832
18295TIP3    H276377   3.911   3.155  15.961 -0.4807  3.3020  1.6119
18296TIP3   OH276378   0.865   3.416   0.718 -0.5070  0.0795  0.1269
18296TIP3    H176379   0.870   3.366   0.800 -0.2672  0.2989  0.2483
18296TIP3    H276380   0.935   3.480   0.725 -0.8702  0.4918  0.0113
18297TIP3   OH276381   6.671   1.134  12.374  0.2613 -0.7179  0.2788
18297TIP3    H176382   6.753   1.107  12.334  0.2159 -1.0749  0.4245
18297TIP3    H276383   6.697   1.196  12.442  0.2763  0.5406 -0.8589
18298TIP3   OH276384   2.050   4.707  10.560 -0.6435  0.3381  0.1432
18298TIP3    H176385   1.981   4.767  10.586 -0.3980  0.7760 -0.1958
18298TIP3    H276386   2.120   4.764  10.527 -0.4709 -0.1407 -0.3267
18299TIP3   OH276387   0.776   0.368   4.939 -0.8859 -0.0326  0.0950
18299TIP3    H176388   0.755   0.275   4.940 -0.8782 -0.0544 -1.1283
18299TIP3    H276389   0.830   0.380   4.860  0.6470  0.6810  1.2133
18300TIP3   OH276390   2.192   2.814   2.367 -0.3661 -0.1371  0.1894
18300TIP3    H176391   2.205   2.852   2.454 -0.5008 -0.0447  0.1704
18300TIP3    H276392   2.278   2.816   2.326 -0.6287  1.4434 -0.3320
18301TIP3   OH276393   5.710   0.273   0.601 -0.4794 -0.0224 -0.0857
18301TIP3    H176394   5.648   0.279   0.529  0.2040 -0.8582 -0.7537
18301TIP3    H276395   5.795   0.293   0.562 -0.4412  2.1580  1.0360
18302TIP3   OH276396   0.535   6.741   4.504 -0.5388  0.2532 -0.1307
18302TIP3    H176397   0.561   6.661   4.550 -2.0860 -0.0257  0.2685
18302TIP3    H276398   0.577   6.811   4.555  0.2803 -0.2490 -0.0991
18303TIP3   OH276399   6.351   4.911  11.887 -0.2353  0.3978  0.1218
18303TIP3    H176400   6.420   4.976  11.899  1.6095 -1.5332  0.2906
18303TIP3    H276401   6.339   4.873  11.974  0.2836 -1.0095 -0.4081
18304TIP3   OH276402   0.466   5.959   1.349  0.1454 -0.3153 -0.4673
18304TIP3    H176403   0.444   5.896   1.281 -3.1643  1.6522 -1.3387
18304TIP3    H276404   0.469   6.043   1.304  1.2719  0.5805  1.2293
18305TIP3   OH276405   4.163   0.841  15.352  0.3938  0.2403 -0.4871
18305TIP3    H176406   4.093   0.785  15.387 -0.3915  1.2353 -0.4282
18305TIP3    H276407   4.172   0.911  15.416 -0.5201  1.6639 -1.8765
18306TIP3   OH276408   6.009   5.245  13.760 -0.2712  0.5091  0.0821
18306TIP3    H176409   6.048   5.170  13.804 -0.4265  0.5223  0.2434
18306TIP3    H276410   6.072   5.316  13.774 -0.5344  0.6274  0.6721
18307TIP3   OH276411   4.633   2.556  16.572 -0.1498  0.3159 -0.1348
18307TIP3    H176412   4.668   2.640  16.544 -0.5873  0.7285  0.5241
18307TIP3    H276413   4.575   2.578  16.646 -1.6752 -0.3473 -1.0992
18308TIP3   OH276414   4.898   5.314  13.656  0.1135 -0.4560 -0.2150
18308TIP3    H176415   4.920   5.221  13.642  2.0443 -0.3031  1.6133
18308TIP3    H276416   4.874   5.346  13.569  0.2068 -2.4772 -1.0083
18309TIP3   OH276417   1.530   5.416   4.056 -0.4778  0.3113 -0.0867
18309TIP3    H176418   1.505   5.442   3.968 -0.4823  2.0106  0.3890
18309TIP3    H276419   1.626   5.413   4.054 -0.4836  0.2183 -0.1881
18310TIP3   OH276420   0.696   0.136   2.705  0.2939  0.4021 -0.0110
18310TIP3    H176421   0.781   0.141   2.663 -0.1752 -2.1642 -1.3574
18310TIP3    H276422   0.635   0.173   2.642  0.1825  0.7134  0.2753
18311TIP3   OH276423   5.426   3.005  16.290 -0.1785 -0.1515 -0.0898
18311TIP3    H176424   5.415   3.038  16.201  1.4738 -0.2153 -0.3271
18311TIP3    H276425   5.475   2.924  16.280  1.3576  0.6240  0.9878
18312TIP3   OH276426   3.946   3.267   5.112 -0.1790  0.1399 -0.9471
18312TIP3    H176427   3.927   3.211   5.037 -0.9326 -0.1352 -0.5610
18312TIP3    H276428   3.870   3.256   5.169  1.0535 -0.8174  0.5415
18313TIP3   OH276429   3.451   5.894   0.665 -0.5356  0.2959 -0.5035
18313TIP3    H176430   3.374   5.921   0.614 -1.1366 -0.2964  0.0843
18313TIP3    H276431   3.425   5.908   0.756  0.3977  0.9925 -0.3339
18314TIP3   OH276432   5.347   0.057   5.637 -0.3227 -0.1619  0.3558
18314TIP3    H176433   5.253   0.046   5.648 -0.0844 -1.4760  1.2252
18314TIP3    H276434   5.379  -0.028   5.606  0.3116  0.8741 -1.9682
18315TIP3   OH276435   2.312   1.485  13.792  0.3408 -0.1978 -0.0885
18315TIP3    H176436   2.299   1.403  13.841 -1.4330  0.0186 -0.1462
18315TIP3    H276437   2.376   1.534  13.844  2.6964 -2.2924 -0.9260
18316TIP3   OH276438   2.832   5.395   6.350 -0.1219  0.2046 -0.0397
18316TIP3    H176439   2.844   5.393   6.255  0.0891 -1.9531  0.0135
18316TIP3    H276440   2.812   5.305   6.374  2.2228  0.2310  2.2838
18317TIP3   OH276441   2.446   2.210  11.374  0.3537  0.5619  0.2042
18317TIP3    H176442   2.398   2.281  11.330  0.3550 -0.5767 -1.6924
18317TIP3    H276443   2.531   2.209  11.330 -0.0884 -1.4037 -0.6280
18318TIP3   OH276444   1.983   0.468   0.240 -0.0720  0.4223 -0.0376
18318TIP3    H176445   1.940   0.478   0.155  1.3441 -0.1393 -0.8353
18318TIP3    H276446   2.064   0.518   0.232 -0.4426  1.2766  1.3670
18319TIP3   OH276447   1.766   2.529   5.485 -0.0005 -0.5901  0.1902
18319TIP3    H176448   1.813   2.536   5.402 -2.0009 -0.5938 -0.9752
18319TIP3    H276449   1.735   2.439   5.488 -1.6077 -0.0669 -0.0100
18320TIP3   OH276450   1.774   5.656  12.732 -0.5614  0.2400  0.3319
18320TIP3    H176451   1.757   5.562  12.736  3.8081 -0.6915 -0.5959
18320TIP3    H276452   1.828   5.674  12.810 -0.1178  1.6769 -0.2953
18321TIP3   OH276453   0.591   2.211   3.010  0.7431  0.1983  0.0405
18321TIP3    H176454   0.563   2.292   3.051 -0.1342  0.1245 -0.3965
18321TIP3    H276455   0.604   2.150   3.082  0.0907  0.3331  0.2729
18322TIP3   OH276456   0.543   3.189  12.325  0.4312 -0.0106 -0.1892
18322TIP3    H176457   0.569   3.269  12.370 -0.2942  0.5313 -0.7118
18322TIP3    H276458   0.535   3.123  12.394 -1.0453  0.8996  0.5452
18323TIP3   OH276459   2.956   4.965   1.461  0.5408 -0.4816 -0.3387
18323TIP3    H176460   2.879   4.909   1.472  0.7210 -0.3641  1.6297
18323TIP3    H276461   2.923   5.054   1.477  0.1359  0.0856 -3.9848
18324TIP3   OH276462   4.486   5.932  15.706  0.2353  0.1678  0.1932
18324TIP3    H176463   4.490   6.013  15.656  0.2835  0.5309  0.7741
18324TIP3    H276464   4.551   5.875  15.665 -1.1202 -0.2672 -1.3889
18325TIP3   OH276465   2.585   1.540   6.142 -0.1041 -0.1681  0.1214
18325TIP3    H176466   2.528   1.558   6.068 -0.2778  0.3487  0.3793
18325TIP3    H276467   2.550   1.461   6.181 -0.9524  0.4317  0.5840
18326TIP3   OH276468   2.258   3.384   4.866 -0.2988 -0.1389  0.0004
18326TIP3    H176469   2.300   3.418   4.787  0.0136  0.7028  0.5246
18326TIP3    H276470   2.311   3.308   4.891  1.2988  1.2819  1.0110
18327TIP3   OH276471   6.456   6.181   5.174 -0.2894  0.0025  0.1462
18327TIP3    H176472   6.373   6.148   5.141  0.4103 -1.9335  0.2425
18327TIP3    H276473   6.474   6.260   5.122 -1.4721 -0.3815 -0.8393
18328TIP3   OH276474   2.412   3.025  16.786  1.0340  0.3946  0.4571
18328TIP3    H176475   2.462   2.983  16.716  1.3121  1.0104  0.2799
18328TIP3    H276476   2.479   3.071  16.837  0.9371 -0.6783  1.5769
18329TIP3   OH276477   3.156   6.620   3.695 -0.1139  0.3881  0.4453
18329TIP3    H176478   3.083   6.599   3.637  1.3088  1.4680 -1.7931
18329TIP3    H276479   3.205   6.538   3.703 -0.1708  0.3014 -0.0995
18330TIP3   OH276480   6.765   3.889   3.773  0.4242  0.5814 -0.4040
18330TIP3    H176481   6.818   3.966   3.750  1.7470 -0.0031  0.6354
18330TIP3    H276482   6.716   3.916   3.851  0.9143  0.3561 -0.0187
18331TIP3   OH276483   3.462   2.807  11.614 -0.4866  0.1596  0.5306
18331TIP3    H176484   3.485   2.742  11.681  0.1935 -0.9569 -0.7581
18331TIP3    H276485   3.534   2.803  11.551 -1.6162  0.4289 -0.8104
18332TIP3   OH276486   1.125   5.344   2.638 -0.0215 -0.0082 -0.1360
18332TIP3    H176487   1.187   5.284   2.680 -0.6657 -1.1254 -0.7318
18332TIP3    H276488   1.099   5.298   2.558  0.0908  1.4480 -1.0211
18333TIP3   OH276489   3.600   1.275  11.135  0.0723 -0.1024  0.6680
18333TIP3    H176490   3.594   1.280  11.039  0.2814 -0.3203  0.6428
18333TIP3    H276491   3.517   1.237  11.163  0.4815 -1.1598  0.4809
18334TIP3   OH276492   5.429   6.771   5.880  0.2722  1.0525 -0.1593
18334TIP3    H176493   5.524   6.787   5.878  0.2162  1.4436  0.3929
18334TIP3    H276494   5.393   6.832   5.815  0.5026  0.1604 -1.1473
18335TIP3   OH276495   4.612   1.612  13.145  0.4642 -0.0694  0.3919
18335TIP3    H176496   4.562   1.617  13.227 -1.9083  0.0062 -1.0382
18335TIP3    H276497   4.650   1.524  13.146 -1.9111 -1.1370  0.2538
18336TIP3   OH276498   2.534   5.393   2.719 -0.1826 -0.0175 -0.4315
18336TIP3    H176499   2.549   5.487   2.710  1.1318 -0.2478 -0.7254
18336TIP3    H276500   2.455   5.377   2.667 -1.1271  1.1103  0.6165
18337TIP3   OH276501   1.121   0.187  13.422 -0.0493  0.6441  0.4497
18337TIP3    H176502   1.028   0.175  13.406  0.2905  0.1201 -1.2441
18337TIP3    H276503   1.155   0.225  13.341  1.1604  1.0435  1.1362
18338TIP3   OH276504   3.663   0.477  10.841  0.4422 -0.5654 -0.4035
18338TIP3    H176505   3.636   0.568  10.830  2.3013  0.2260  1.2028
18338TIP3    H276506   3.581   0.427  10.843 -0.5948  1.0704 -1.1894
18339TIP3   OH276507   3.870   4.942  12.148  0.3212 -0.2730 -0.1004
18339TIP3    H176508   3.925   4.875  12.108 -2.7315 -1.5731 -2.2971
18339TIP3    H276509   3.813   4.894  12.207  0.0038  0.7710  0.4495
18340TIP3   OH276510   0.016   5.080   6.751  0.4735  0.1601  0.2643
18340TIP3    H176511  -0.041   5.129   6.810 -0.7928 -1.4495  0.4169
18340TIP3    H276512   0.104   5.114   6.767 -0.3399  2.1397  0.5782
18341TIP3   OH276513   0.179   6.275  12.839  0.3973 -0.2418 -0.2131
18341TIP3    H176514   0.242   6.337  12.802  0.6489 -0.4363 -0.1109
18341TIP3    H276515   0.187   6.287  12.934 -0.5895  0.5985 -0.2340
18342TIP3   OH276516   6.616   2.116  16.542 -0.6210 -0.4469 -0.4425
18342TIP3    H176517   6.708   2.128  16.565 -0.4609  2.2328 -2.2081
18342TIP3    H276518   6.614   2.126  16.447 -2.3924 -3.1677 -0.7526
18343TIP3   OH276519   3.815   5.461  11.151  0.3421 -0.2738  0.3648
18343TIP3    H176520   3.841   5.441  11.061  0.7334  1.5517  0.0551
18343TIP3    H276521   3.769   5.383  11.180 -1.5799 -0.1479 -2.1286
18344TIP3   OH276522   5.259   0.291   4.956  0.6080 -0.1132  0.2007
18344TIP3    H176523   5.237   0.382   4.936 -0.7769 -0.4870 -0.0277
18344TIP3    H276524   5.339   0.297   5.009  0.6852  1.2184 -0.0425
18345TIP3   OH276525   4.843   1.877   2.349  0.4128  0.4730 -0.9284
18345TIP3    H176526   4.831   1.881   2.254  0.1862  1.0553 -0.8774
18345TIP3    H276527   4.841   1.968   2.377  0.0281  0.2734 -0.3030
18346TIP3   OH276528   1.797   0.240   2.924 -0.2016 -0.6181  0.3904
18346TIP3    H176529   1.806   0.317   2.867 -3.0439 -0.7151 -0.2687
18346TIP3    H276530   1.834   0.168   2.873  0.2445 -0.1086 -0.0047
18347TIP3   OH276531   3.081   0.170  16.766 -0.5249 -0.1288 -0.6357
18347TIP3    H176532   3.139   0.094  16.773 -0.7348 -0.2038  0.5093
18347TIP3    H276533   3.121   0.226  16.699  0.3237 -0.6473 -0.5672
18348TIP3   OH276534   0.890   4.363  12.809 -0.6792 -0.6370 -0.1003
18348TIP3    H176535   0.891   4.422  12.734 -1.3924 -0.4330  0.0485
18348TIP3    H276536   0.983   4.347  12.828 -0.4248  1.8673  0.9528
18349TIP3   OH276537   6.110   6.069  12.315 -0.0275  0.4490  0.0681
18349TIP3    H176538   6.194   6.072  12.270 -0.8167  1.0458 -1.4021
18349TIP3    H276539   6.082   5.978  12.306  0.6195  0.1601  0.8887
18350TIP3   OH276540   5.587   0.654   5.739  0.3158  0.0829  0.2233
18350TIP3    H176541   5.653   0.600   5.696 -0.7326 -0.9992 -0.0816
18350TIP3    H276542   5.624   0.673   5.825  1.4669  0.3772 -0.3299
18351TIP3   OH276543   1.461   4.773   3.417  0.1860  0.4974  0.3511
18351TIP3    H176544   1.511   4.700   3.380  1.4106  1.2933  0.3823
18351TIP3    H276545   1.528   4.829   3.458 -0.8358  1.1404  1.1674
18352TIP3   OH276546   6.115   6.696  11.924  0.1860 -0.1757  0.2934
18352TIP3    H176547   6.070   6.751  11.859  0.6740  0.4939  0.5142
18352TIP3    H276548   6.186   6.655  11.875  0.6259  0.4215  0.4321
18353TIP3   OH276549   5.935   0.393   3.345 -0.5814  0.3635  0.2294
18353TIP3    H176550   5.854   0.437   3.319 -0.1437  0.6297 -0.7247
18353TIP3    H276551   5.986   0.460   3.390 -0.6472  0.3593  0.3088
18354TIP3   OH276552   2.122   4.425  13.110 -0.0988 -0.7660  0.6134
18354TIP3    H176553   2.044   4.372  13.092  0.3900 -2.2156  2.5563
18354TIP3    H276554   2.185   4.398  13.044 -0.9624 -0.1740 -0.4685
18355TIP3   OH276555   0.020   5.191  16.306  0.2400 -0.4126 -1.0338
18355TIP3    H176556   0.101   5.179  16.257  0.9044  2.4459 -0.7370
18355TIP3    H276557   0.047   5.198  16.398 -0.5002 -0.9188 -0.7653
18356TIP3   OH276558   3.921   6.582  13.048 -0.8385 -0.4286 -0.8377
18356TIP3    H176559   3.871   6.501  13.043 -1.0283 -0.3617 -0.0128
18356TIP3    H276560   3.859   6.651  13.026 -0.9054 -0.4151 -0.5965
18357TIP3   OH276561   3.513   3.684   3.324  0.7001  0.6129 -0.0506
18357TIP3    H176562   3.531   3.739   3.401 -0.9945  1.6138 -0.3440
18357TIP3    H276563   3.460   3.739   3.267 -1.1358 -1.3628 -0.3175
18358TIP3   OH276564   3.551   6.053  13.994 -0.4391 -0.3450 -0.5461
18358TIP3    H176565   3.514   6.136  14.023  1.6611 -0.1374  1.6299
18358TIP3    H276566   3.637   6.076  13.960 -0.0053 -1.6026 -0.3123
18359TIP3   OH276567   6.718   1.067  14.437 -0.4495  0.4950 -0.1310
18359TIP3    H176568   6.629   1.098  14.420 -0.5766  0.4871  0.5390
18359TIP3    H276569   6.726   0.987  14.385 -1.4293 -0.4839  1.2050
18360TIP3   OH276570   3.973   2.278  15.176  0.1725 -0.2010 -0.3216
18360TIP3    H176571   3.998   2.356  15.126 -0.0659  0.0014 -0.1249
18360TIP3    H276572   4.043   2.215  15.158 -0.4531 -0.5000 -1.7331
18361TIP3   OH276573   4.161   6.671   2.989 -0.1665  0.3707  0.5242
18361TIP3    H176574   4.227   6.736   2.963 -1.1383  1.8604  1.7086
18361TIP3    H276575   4.193   6.636   3.072  0.3108 -0.6051 -0.0715
18362TIP3   OH276576   5.965   2.874  14.616  0.0077  0.1942  0.1098
18362TIP3    H176577   6.046   2.874  14.565 -0.4471  0.1589 -0.6068
18362TIP3    H276578   5.896   2.858  14.553 -0.8706  3.1260  0.2572
18363TIP3   OH276579   6.584   1.469   0.062  0.1281 -0.1018  0.2126
18363TIP3    H176580   6.670   1.502   0.086 -0.5039  0.4061  1.8936
18363TIP3    H276581   6.573   1.390   0.115 -0.3244 -0.3032 -0.1832
18364TIP3   OH276582   3.114   2.232  10.621  0.5015 -0.0600  0.4505
18364TIP3    H176583   3.139   2.141  10.633 -0.1737 -0.8358 -3.2012
18364TIP3    H276584   3.194   2.282  10.638  2.2695 -1.7903 -2.3713
18365TIP3   OH276585   0.569   3.689   6.893 -0.4031  0.1953  0.3152
18365TIP3    H176586   0.623   3.756   6.935 -1.6086  1.6280 -0.3521
18365TIP3    H276587   0.483   3.699   6.934 -0.4302 -1.3756  0.6508
18366TIP3   OH276588   3.596   5.609   2.945 -0.3336 -0.3807  0.0607
18366TIP3    H176589   3.527   5.550   2.914 -0.9349  0.4628 -0.2180
18366TIP3    H276590   3.560   5.650   3.024  0.8512 -1.8602  1.4226
18367TIP3   OH276591   0.410   2.564  17.067 -0.1909 -0.0556  0.0022
18367TIP3    H176592   0.315   2.558  17.073 -0.1860 -1.4802 -1.1337
18367TIP3    H276593   0.426   2.654  17.038 -1.0437  1.0107  2.6503
18368TIP3   OH276594   6.205   5.282  15.818  0.2257  0.1361 -0.0971
18368TIP3    H176595   6.146   5.294  15.893  0.9719 -0.8825  0.6728
18368TIP3    H276596   6.157   5.224  15.759  0.0344  0.1278  0.0639
18369TIP3   OH276597   5.241   1.266  11.591 -0.3012  0.6383  0.0186
18369TIP3    H176598   5.302   1.335  11.619  0.3704  0.6781 -1.5210
18369TIP3    H276599   5.176   1.311  11.538 -0.3705  0.2282 -0.2447
18370TIP3   OH276600   4.719   6.582  16.253  0.4659 -0.3725 -0.2438
18370TIP3    H176601   4.769   6.573  16.171  0.3477  0.0486 -0.3623
18370TIP3    H276602   4.762   6.521  16.313  0.4547 -0.8017 -0.6702
18371TIP3   OH276603   3.825   1.411  13.862  0.2629 -0.5262 -0.2243
18371TIP3    H176604   3.751   1.445  13.913  1.5009  0.5391  0.8994
18371TIP3    H276605   3.869   1.490  13.829  0.7983 -1.1627 -1.0371
18372TIP3   OH276606   5.406   6.751  12.455 -0.1280  0.2364  0.2177
18372TIP3    H176607   5.428   6.819  12.518 -1.0966  1.1776 -0.4535
18372TIP3    H276608   5.371   6.798  12.379 -1.4663 -1.0433  0.0144
18373TIP3   OH276609   3.012   1.043   6.242  0.2837 -0.3654 -0.1326
18373TIP3    H176610   2.982   1.071   6.328 -0.4324  0.0198 -0.5039
18373TIP3    H276611   2.932   1.027   6.192  0.6273  2.8683 -1.8458
18374TIP3   OH276612   2.069   1.830  11.497  0.7702 -0.3235  0.2103
18374TIP3    H176613   2.000   1.764  11.483  0.5169 -0.5860  2.5671
18374TIP3    H276614   2.102   1.848  11.409 -3.5122  1.1564 -1.2320
18375TIP3   OH276615   3.107   3.766   4.401 -0.4849 -0.1557  0.2270
18375TIP3    H176616   3.130   3.814   4.480  0.2635 -1.0491  0.5602
18375TIP3    H276617   3.154   3.683   4.408  0.2374  0.0834 -1.5578
18376TIP3   OH276618   1.516   4.750   2.589 -0.3401  0.2121  0.2041
18376TIP3    H176619   1.486   4.840   2.574  1.4008  0.7075 -0.4368
18376TIP3    H276620   1.522   4.743   2.684 -0.8923  0.6465  0.2731
18377TIP3   OH276621   6.664   3.834  10.720  0.4588 -0.2112 -0.0288
18377TIP3    H176622   6.727   3.788  10.664  1.2793  0.4227  0.3614
18377TIP3    H276623   6.695   3.817  10.809  0.5033  0.7243  0.1295
18378TIP3   OH276624   6.454   0.921   2.435  0.1382 -0.0739  0.0753
18378TIP3    H176625   6.381   0.983   2.442  0.7585  0.7932 -1.1090
18378TIP3    H276626   6.428   0.861   2.365 -0.6080 -1.3836  1.4332
18379TIP3   OH276627   0.274   4.027   2.104  0.2575 -0.5415  0.2138
18379TIP3    H176628   0.300   3.988   2.021 -1.1277  0.9244 -0.9180
18379TIP3    H276629   0.178   4.033   2.099  0.3618  2.1443  0.7283
18380TIP3   OH276630   0.935   1.559  16.453 -0.1297  0.6941 -0.3614
18380TIP3    H176631   0.860   1.530  16.506  0.2944  1.2635  0.5687
18380TIP3    H276632   0.971   1.478  16.417 -1.2242  0.4218 -0.8501
18381TIP3   OH276633   3.260   5.192   4.275 -0.0385  0.6620 -0.0375
18381TIP3    H176634   3.312   5.257   4.323 -0.7299  0.5970  0.8091
18381TIP3    H276635   3.321   5.154   4.212  0.6754  1.3028  0.2658
18382TIP3   OH276636   6.628   4.948  14.384  0.5713  0.2029  0.0117
18382TIP3    H176637   6.560   4.904  14.435  0.7211  0.1834  0.1937
18382TIP3    H276638   6.654   4.884  14.317  1.0442 -0.1221  0.5033
18383TIP3   OH276639   3.915   3.021   4.446  0.3102  0.2345 -0.5539
18383TIP3    H176640   3.866   3.041   4.526 -0.2195  0.5565 -0.9591
18383TIP3    H276641   4.006   3.021   4.474  0.1660  0.9198 -0.0663
18384TIP3   OH276642   2.544   4.023  17.221  0.3443 -0.0875  0.3192
18384TIP3    H176643   2.527   4.117  17.212  0.6693  0.1030  1.5753
18384TIP3    H276644   2.555   3.992  17.131  0.8706  1.1980 -0.0750
18385TIP3   OH276645   2.129   1.406  16.001  0.0678  0.5309 -0.2573
18385TIP3    H176646   2.080   1.485  16.025  1.5147  1.5234 -0.5196
18385TIP3    H276647   2.070   1.359  15.942 -0.7721  1.4794 -0.1917
18386TIP3   OH276648   5.892   5.445   1.216  0.2098  0.0109 -0.1261
18386TIP3    H176649   5.911   5.450   1.122 -0.6946 -0.5881 -0.3434
18386TIP3    H276650   5.841   5.524   1.235  0.3647  0.1155 -0.1484
18387TIP3   OH276651   6.766   1.567  14.084 -0.3660  0.5431  0.3288
18387TIP3    H176652   6.788   1.499  14.148 -2.1586 -0.3040  0.0723
18387TIP3    H276653   6.724   1.635  14.136 -0.3565  0.5694  0.3018
18388TIP3   OH276654   1.689   5.439  16.844 -0.2193 -0.4550  0.3062
18388TIP3    H176655   1.647   5.511  16.798 -0.3987 -2.1080 -2.1856
18388TIP3    H276656   1.627   5.416  16.914 -2.2880 -1.1732 -1.7256
18389TIP3   OH276657   4.936   0.332  13.484  0.4239 -0.1525 -0.0243
18389TIP3    H176658   4.914   0.255  13.538  2.0228 -1.0589 -0.6387
18389TIP3    H276659   4.998   0.381  13.537  1.0224 -0.3769 -0.5206
18390TIP3   OH276660   4.964   0.329   3.976  0.2609  0.0922  0.1506
18390TIP3    H176661   5.022   0.253   3.980 -0.4821 -0.4174  1.3643
18390TIP3    H276662   4.971   0.360   3.885  0.7978 -1.2274 -0.2631
18391TIP3   OH276663   5.917   2.050   1.511 -0.3044  0.2761 -0.1612
18391TIP3    H176664   5.933   2.140   1.542  0.1058  0.3556 -0.5927
18391TIP3    H276665   5.838   2.058   1.457 -0.1119  0.4226 -0.4183
18392TIP3   OH276666   3.684   0.785  16.297  0.0665  0.2936  0.1366
18392TIP3    H176667   3.760   0.729  16.282 -0.2833 -0.7359  2.0169
18392TIP3    H276668   3.690   0.808  16.390 -1.3891  0.9894  0.0655
18393TIP3   OH276669   5.386   4.344  12.770  0.5528  0.2542 -0.1739
18393TIP3    H176670   5.347   4.345  12.682 -2.1723  1.8638  0.9704
18393TIP3    H276671   5.421   4.255  12.779 -1.4037 -0.7658 -1.9458
18394TIP3   OH276672   6.425   3.616   5.932 -0.0416 -0.1901 -0.0967
18394TIP3    H176673   6.350   3.676   5.927  0.4273  0.3042 -1.3272
18394TIP3    H276674   6.410   3.567   6.012  0.6131  2.9704  2.0733
18395TIP3   OH276675   4.433   6.754   5.652  1.0511 -0.1921 -0.2357
18395TIP3    H176676   4.519   6.724   5.681  0.7298 -0.5331  0.3779
18395TIP3    H276677   4.376   6.677   5.663  0.2309  0.6000  1.3159
18396TIP3   OH276678   1.482   2.798   6.138 -0.3000  0.3819  0.3522
18396TIP3    H176679   1.405   2.747   6.164 -1.5471  1.4738 -1.0826
18396TIP3    H276680   1.451   2.888   6.136  1.0913  0.8608 -0.0414
18397TIP3   OH276681   6.811   2.280  10.814 -0.0576 -0.0912 -0.6296
18397TIP3    H176682   6.862   2.210  10.855  0.2174  0.7886  0.5408
18397TIP3    H276683   6.871   2.317  10.748  0.3726  0.1089 -0.1293
18398TIP3   OH276684   5.876   4.550   3.071 -0.2881 -0.0143 -0.0478
18398TIP3    H176685   5.843   4.630   3.030 -0.3440 -0.2326 -0.4272
18398TIP3    H276686   5.970   4.550   3.053 -0.4968 -0.6992 -1.1783
18399TIP3   OH276687   0.476   2.375   2.076 -0.8770  0.2886  0.3790
18399TIP3    H176688   0.443   2.287   2.090 -0.2018  0.2076  1.4721
18399TIP3    H276689   0.571   2.365   2.068 -0.9951  0.6202 -1.9547
18400TIP3   OH276690   6.312   2.550  15.231  0.0176  0.6986 -0.2794
18400TIP3    H176691   6.324   2.625  15.289 -0.6988  0.6010 -0.0056
18400TIP3    H276692   6.365   2.481  15.270 -1.8446  0.0968  1.2465
18401TIP3   OH276693   3.736   4.482  16.969  0.3163 -0.1527  0.5034
18401TIP3    H176694   3.698   4.565  16.999 -0.7444 -0.0551 -1.0238
18401TIP3    H276695   3.801   4.460  17.035  0.9751  2.1695  0.6933
18402TIP3   OH276696   1.015   4.777  16.925  0.0969 -0.2477 -0.1976
18402TIP3    H176697   1.080   4.774  16.996 -0.9528 -1.1270  0.7711
18402TIP3    H276698   1.015   4.867  16.895  0.4636  0.1741  1.0424
18403TIP3   OH276699   3.683   6.137  16.822  1.0057  0.2481  0.3108
18403TIP3    H176700   3.596   6.175  16.814  0.9068 -0.1929 -0.8234
18403TIP3    H276701   3.706   6.112  16.732  2.3476  0.4732  0.5849
18404TIP3   OH276702   3.978   3.561  10.994 -0.4672  0.7384 -0.1190
18404TIP3    H176703   4.022   3.634  10.951  2.3284  0.6241  2.4055
18404TIP3    H276704   4.014   3.483  10.950 -0.1998  0.7374  0.1017
18405TIP3   OH276705   1.417   2.743  11.599  0.4380  0.1919  0.6650
18405TIP3    H176706   1.412   2.680  11.670 -0.6593 -0.5099 -0.0063
18405TIP3    H276707   1.431   2.827  11.642  3.7682 -0.7178  1.4736
18406TIP3   OH276708   4.515   5.331  11.158 -0.2403  0.5221  0.2452
18406TIP3    H176709   4.440   5.327  11.098 -0.5010  0.8041  0.5527
18406TIP3    H276710   4.583   5.279  11.114 -1.5194 -2.0765  1.2396
18407TIP3   OH276711   1.796   1.382  11.630 -0.3409 -0.3917  0.4035
18407TIP3    H176712   1.731   1.348  11.569  1.3534 -2.2078 -0.4585
18407TIP3    H276713   1.746   1.410  11.706 -2.1293 -1.6888 -0.2679
18408TIP3   OH276714   4.166   4.651  13.387  0.1188  0.5413  0.0854
18408TIP3    H176715   4.171   4.739  13.351 -1.6072  0.5781 -0.1395
18408TIP3    H276716   4.214   4.655  13.469  1.0749  1.3771 -0.5136
18409TIP3   OH276717   1.382   2.526  16.724  0.0961 -0.0399  0.0927
18409TIP3    H176718   1.357   2.435  16.713 -0.4496  0.1762 -0.5173
18409TIP3    H276719   1.458   2.538  16.667 -0.4672  0.1413 -0.6345
18410TIP3   OH276720   2.127   6.117  17.283 -0.2318  0.4293  0.2365
18410TIP3    H176721   2.207   6.168  17.299  0.8635 -1.4145  0.7847
18410TIP3    H276722   2.065   6.148  17.350  1.0551 -0.2962  1.7940
18411TIP3   OH276723   6.566   5.853   5.148 -0.4055 -0.0295 -0.1115
18411TIP3    H176724   6.553   5.929   5.091 -1.0856  0.2895  0.4655
18411TIP3    H276725   6.646   5.812   5.115  0.3673  1.3452  0.0236
18412TIP3   OH276726   6.394   6.799   4.438  0.3722  0.3638 -0.1616
18412TIP3    H176727   6.460   6.733   4.422  1.3550  0.9960  1.2050
18412TIP3    H276728   6.321   6.775   4.381  1.7818 -0.3192 -1.7119
18413TIP3   OH276729   0.529   6.054   2.902 -0.3779  0.1284  0.3643
18413TIP3    H176730   0.603   6.114   2.893  0.8407 -1.2247  1.2906
18413TIP3    H276731   0.551   5.979   2.847 -0.7811 -0.5435  1.1002
18414TIP3   OH276732   6.019   5.893  15.699  0.2908 -0.9522  0.1809
18414TIP3    H176733   6.032   5.909  15.606  0.6453 -0.3167  0.3350
18414TIP3    H276734   6.045   5.802  15.712  1.4514 -0.6682 -0.1165
18415TIP3   OH276735   0.418   3.970  15.248  0.4001 -0.6456 -0.1625
18415TIP3    H176736   0.442   3.879  15.230 -0.3577 -0.9656  0.3743
18415TIP3    H276737   0.496   4.008  15.288  0.9697 -0.8472 -1.0720
18416TIP3   OH276738   4.093   0.192  11.623  0.4340 -0.4839  0.1710
18416TIP3    H176739   4.126   0.167  11.537  1.5736  0.4209  0.3376
18416TIP3    H276740   4.005   0.227  11.606  1.0442  0.6408 -0.7551
18417TIP3   OH276741   5.805   5.916   2.744 -0.0821  0.6547 -0.2779
18417TIP3    H176742   5.792   5.844   2.807 -0.2089 -0.4761 -1.5667
18417TIP3    H276743   5.865   5.976   2.789  0.2864 -0.4158  0.7094
18418TIP3   OH276744   6.760   1.403  15.374 -0.0801 -0.4522  0.2880
18418TIP3    H176745   6.840   1.419  15.425 -0.1644 -1.8201  0.8751
18418TIP3    H276746   6.791   1.358  15.296 -0.2267 -0.6254  0.3289
18419TIP3   OH276747   0.173   5.955   0.873 -0.1401  0.3850 -0.0996
18419TIP3    H176748   0.138   6.003   0.948 -2.2792  0.4280 -1.0735
18419TIP3    H276749   0.126   5.871   0.874 -0.1278  0.3496 -1.3116
18420TIP3   OH276750   4.590   2.327  13.867 -0.5111 -0.9294 -0.4939
18420TIP3    H176751   4.623   2.342  13.779  0.2873  0.2085 -0.0165
18420TIP3    H276752   4.659   2.360  13.925 -1.6597 -0.2885  0.5438
18421TIP3   OH276753   2.449   1.065  14.092 -0.4313  0.5878 -0.2441
18421TIP3    H176754   2.539   1.042  14.117 -0.8079  0.2162  0.8076
18421TIP3    H276755   2.435   1.021  14.009  0.0604 -0.0731  0.0216
18422TIP3   OH276756   0.999   3.954   4.811 -0.1454  0.4446  0.0241
18422TIP3    H176757   0.955   3.877   4.775 -0.0142 -0.1324  1.0550
18422TIP3    H276758   0.985   3.947   4.906 -0.2037  1.7398  0.1170
18423TIP3   OH276759   2.438   3.524  16.706  0.3606 -0.1706  0.1421
18423TIP3    H176760   2.380   3.535  16.781 -0.3493  0.0306 -0.4357
18423TIP3    H276761   2.526   3.516  16.744  0.0630  0.4406  0.9597
18424TIP3   OH276762   1.498   2.828  14.706  0.3027 -0.0848  0.1793
18424TIP3    H176763   1.455   2.807  14.623  2.0312  1.0399 -1.0422
18424TIP3    H276764   1.429   2.820  14.772 -1.2835 -0.2522 -1.4702
18425TIP3   OH276765   3.614   0.794  12.304 -0.0446 -0.1160  0.5161
18425TIP3    H176766   3.610   0.843  12.386  0.9392 -0.1704  0.6059
18425TIP3    H276767   3.625   0.861  12.237  0.9669 -0.1880  0.6074
18426TIP3   OH276768   3.795   4.266  14.236 -0.1199  0.7011 -0.0295
18426TIP3    H176769   3.800   4.202  14.307  0.6019  0.4035 -0.3459
18426TIP3    H276770   3.702   4.274  14.218 -0.3480  1.0590  1.1981
18427TIP3   OH276771   3.927   6.158   5.235  0.6493 -0.3110 -0.3659
18427TIP3    H176772   3.881   6.085   5.278 -1.3686  0.4150 -1.2716
18427TIP3    H276773   3.917   6.141   5.142  0.5362  0.8960 -0.5786
18428TIP3   OH276774   2.090   0.115   1.355 -0.1832  0.2617 -0.0044
18428TIP3    H176775   2.158   0.180   1.335 -0.3896  0.5646  0.2742
18428TIP3    H276776   2.138   0.032   1.365  0.0637  0.3439 -0.4996
18429TIP3   OH276777   3.550   4.275   0.068  0.2549 -0.3406  0.1859
18429TIP3    H176778   3.642   4.250   0.059  0.1808 -1.1784  1.5238
18429TIP3    H276779   3.544   4.361   0.027  1.4024 -0.7562 -0.8856
18430TIP3   OH276780   0.752   3.588   4.381 -0.5752  1.0471  0.1928
18430TIP3    H176781   0.684   3.651   4.408 -0.6400  0.6828  0.8929
18430TIP3    H276782   0.786   3.554   4.463  0.0025  0.7373 -0.1781
18431TIP3   OH276783   5.065   2.191  11.501 -0.2055  0.1591 -0.2957
18431TIP3    H176784   5.085   2.212  11.593  0.7565  0.5960 -0.5996
18431TIP3    H276785   4.976   2.156  11.504 -0.0825 -0.0875  0.8439
18432TIP3   OH276786   4.110   1.393  16.738 -0.0667 -0.5026  0.7936
18432TIP3    H176787   4.092   1.302  16.758  0.0494 -0.5627  0.6242
18432TIP3    H276788   4.126   1.434  16.823  0.2048 -0.7112  0.8424
18433TIP3   OH276789   0.795   6.776  13.275 -0.2892 -0.3937  0.3338
18433TIP3    H176790   0.815   6.761  13.367 -1.7398 -1.3553  0.5071
18433TIP3    H276791   0.772   6.690  13.240  0.3610 -0.0647 -0.9648
18434TIP3   OH276792   6.547   3.695  12.193  0.1586  0.3248 -0.7609
18434TIP3    H176793   6.596   3.762  12.146 -0.8437 -0.1073 -2.4692
18434TIP3    H276794   6.457   3.706  12.162 -0.2416 -0.9723 -0.0817
18435TIP3   OH276795   6.730   5.311   2.339  0.2123 -0.2461 -0.4430
18435TIP3    H176796   6.714   5.314   2.433  2.7101  0.3577  0.0049
18435TIP3    H276797   6.668   5.247   2.306 -1.5451  0.4307  1.4205
18436TIP3   OH276798   3.044   6.052   2.525  0.6275 -0.0465 -0.0076
18436TIP3    H176799   3.007   5.981   2.474  1.4924  0.1546 -0.9353
18436TIP3    H276800   2.983   6.125   2.512  0.5159 -0.1810 -0.2461
18437TIP3   OH276801   5.010   1.286  13.663 -0.1344  0.2063 -0.0441
18437TIP3    H176802   4.915   1.287  13.669 -0.0071  0.5776  2.6981
18437TIP3    H276803   5.036   1.376  13.683  0.8999 -0.6447  2.6509
18438TIP3   OH276804   0.958   1.722  10.806  0.2482 -0.1779 -0.5488
18438TIP3    H176805   0.967   1.781  10.881 -0.3029  0.5752 -1.0655
18438TIP3    H276806   1.027   1.656  10.819  2.0665  1.5944 -0.8879
18439TIP3   OH276807   2.975   5.624  11.546  0.0607  0.0997 -0.0021
18439TIP3    H176808   2.978   5.716  11.573  0.4323  0.5277 -1.4908
18439TIP3    H276809   3.040   5.580  11.602  2.1969  1.3216 -1.5032
18440TIP3   OH276810   1.312   3.597  11.671 -0.4857 -0.2316 -0.3789
18440TIP3    H176811   1.236   3.576  11.617 -1.1284  1.4996 -0.2025
18440TIP3    H276812   1.374   3.638  11.610  0.6357 -2.2785 -0.6724
18441TIP3   OH276813   5.609   5.632  15.464 -0.0838  0.4240  0.3908
18441TIP3    H176814   5.668   5.707  15.475 -1.7148  1.5823  1.4320
18441TIP3    H276815   5.583   5.635  15.372 -1.3655  2.0699  0.8030
18442TIP3   OH276816   0.118   1.827  11.520 -0.0094  0.6467  0.3651
18442TIP3    H176817   0.118   1.737  11.553  0.3267  0.8714  1.0024
18442TIP3    H276818   0.194   1.831  11.461  0.8733  0.9122  1.4940
18443TIP3   OH276819   5.132   5.675   0.804 -0.4039 -0.3250 -0.3501
18443TIP3    H176820   5.138   5.677   0.899 -1.0204 -0.3297 -0.3055
18443TIP3    H276821   5.042   5.648   0.786 -0.4328  0.1306 -0.9313
18444TIP3   OH276822   0.035   1.314   1.620 -0.3332  0.5912  0.0021
18444TIP3    H176823   0.124   1.315   1.584 -1.1816  0.8369 -2.1632
18444TIP3    H276824   0.003   1.225   1.602 -0.5355  0.5081  0.7596
18445TIP3   OH276825   2.095   1.415  15.018  0.0523 -0.0825 -0.0431
18445TIP3    H176826   2.105   1.348  14.951 -1.6672  1.1385 -1.5769
18445TIP3    H276827   2.003   1.407  15.046 -0.1052  1.4659 -0.0752
18446TIP3   OH276828   5.376   6.814  11.142  0.0237  0.3662 -0.0593
18446TIP3    H176829   5.372   6.870  11.065  1.1054  0.8480  0.2193
18446TIP3    H276830   5.459   6.767  11.133 -0.1437 -0.0443  0.4847
18447TIP3   OH276831   0.571   5.248   1.954 -0.1093 -0.6237 -0.2916
18447TIP3    H176832   0.501   5.300   1.914  0.7527  1.3030  0.6191
18447TIP3    H276833   0.543   5.158   1.942 -0.8971 -0.0477 -3.3450
18448TIP3   OH276834   5.638   5.124   6.062 -0.1474  0.1540  0.3569
18448TIP3    H176835   5.689   5.075   6.127  0.8524  0.9864  0.2105
18448TIP3    H276836   5.647   5.215   6.089  1.2474  0.6216 -1.6227
18449TIP3   OH276837   1.695   5.253  15.461  0.6186  0.6133 -0.2491
18449TIP3    H176838   1.682   5.338  15.503 -0.3612  0.6080 -0.5340
18449TIP3    H276839   1.790   5.246  15.450  0.5503  3.1215 -3.1740
18450TIP3   OH276840   6.371   3.677  13.699 -0.0393 -0.3299  0.2255
18450TIP3    H176841   6.279   3.660  13.680 -0.1393 -0.1229  0.5197
18450TIP3    H276842   6.370   3.721  13.785  0.4530 -1.7906  0.9903
18451TIP3   OH276843   2.588   0.661  14.214  0.8765  0.0832  0.3161
18451TIP3    H176844   2.597   0.628  14.303  1.2231  4.1501  1.8810
18451TIP3    H276845   2.495   0.682  14.206  0.4551 -2.1627 -1.0312
18452TIP3   OH276846   1.695   4.373   5.761  0.2992 -0.2248  0.7576
18452TIP3    H176847   1.740   4.437   5.817 -0.5221 -0.0038  1.1634
18452TIP3    H276848   1.764   4.313   5.734  1.2279  1.2065 -0.1765
18453TIP3   OH276849   6.184   0.972  12.156 -0.1352 -0.6305 -0.1637
18453TIP3    H176850   6.267   0.941  12.119 -0.0630 -0.3562 -0.2288
18453TIP3    H276851   6.203   0.984  12.250  0.6886  2.1049 -0.6342
18454TIP3   OH276852   1.980   5.977   1.579 -0.2738 -0.2987 -0.3332
18454TIP3    H176853   2.023   5.898   1.546 -0.3075 -0.5071  0.1225
18454TIP3    H276854   1.959   5.956   1.670 -0.9210 -0.0274 -0.4223
18455TIP3   OH276855   1.479   3.942   3.219  0.0319  0.0354  0.0043
18455TIP3    H176856   1.402   3.979   3.261  0.1748 -0.3557  0.6182
18455TIP3    H276857   1.470   3.848   3.231  1.4903  0.0859  1.6450
18456TIP3   OH276858   2.255   5.676   4.632 -0.3723 -1.4717 -0.1433
18456TIP3    H176859   2.259   5.637   4.719 -2.1491 -1.0523  0.1534
18456TIP3    H276860   2.346   5.682   4.604  0.3761  0.0516  2.4272
18457TIP3   OH276861   5.646   0.608  12.337  0.4155  0.7573 -0.2809
18457TIP3    H176862   5.737   0.636  12.329  1.0957 -1.0810  0.6154
18457TIP3    H276863   5.608   0.668  12.401  1.2684  0.8997  0.0988
18458TIP3   OH276864   5.509   5.620   0.274 -0.3296  0.0215  0.0609
18458TIP3    H176865   5.589   5.593   0.228 -0.7440  0.5647 -1.0031
18458TIP3    H276866   5.438   5.584   0.221 -0.8076  0.1059  0.6423
18459TIP3   OH276867   1.352   3.644  15.204  0.1383 -0.3873 -0.1424
18459TIP3    H176868   1.354   3.625  15.110  1.7611 -1.2737  0.0613
18459TIP3    H276869   1.275   3.598  15.236 -1.1917  1.0002 -1.2541
18460TIP3   OH276870   1.031   3.767  11.206  0.2827  0.2489  0.3344
18460TIP3    H176871   0.966   3.707  11.241  0.9648  0.1625  1.4638
18460TIP3    H276872   0.986   3.812  11.134 -1.0504  0.2497  1.1535
18461TIP3   OH276873   4.654   5.415  15.060 -0.0268 -0.1951  0.2000
18461TIP3    H176874   4.644   5.387  15.151  0.4428 -1.0696 -0.0171
18461TIP3    H276875   4.716   5.353  15.022  0.0453  0.3779 -0.6247
18462TIP3   OH276876   4.883   2.348   1.575  0.0752 -0.0964 -0.6379
18462TIP3    H176877   4.943   2.294   1.626  0.2371  2.2801  1.7803
18462TIP3    H276878   4.935   2.377   1.500  0.8340 -1.0136 -0.4705
18463TIP3   OH276879   1.821   6.113  13.709 -0.1979  0.6446  0.0691
18463TIP3    H176880   1.873   6.126  13.629 -0.7442  1.2027 -0.1986
18463TIP3    H276881   1.816   6.200  13.749 -2.6127  1.0381 -0.9617
18464TIP3   OH276882   3.900   5.712   5.748 -0.3236  0.3480  0.2774
18464TIP3    H176883   3.841   5.643   5.718 -0.0478  0.5551 -0.7506
18464TIP3    H276884   3.960   5.668   5.809 -2.0610  0.3054  2.0233
18465TIP3   OH276885   3.290   2.956   3.888  0.3427 -0.0914  0.0823
18465TIP3    H176886   3.240   3.037   3.893 -1.7185 -1.0725 -2.7479
18465TIP3    H276887   3.312   2.935   3.978 -3.1996  1.1592  1.3330
18466TIP3   OH276888   5.799   6.210   2.245  0.3151 -0.3308  0.1307
18466TIP3    H176889   5.818   6.246   2.332 -0.0633 -0.4765  0.2768
18466TIP3    H276890   5.834   6.121   2.247  1.1252 -0.0213 -0.1830
18467TIP3   OH276891   2.380   5.596  12.529 -0.0710 -0.2203 -0.4563
18467TIP3    H176892   2.328   5.639  12.462  1.8655  2.0560 -0.5827
18467TIP3    H276893   2.348   5.633  12.612 -2.3604 -2.9185 -0.0884
18468TIP3   OH276894   3.816   2.215   3.489  0.3637  0.8127 -0.2085
18468TIP3    H176895   3.798   2.159   3.564  1.9969 -0.1724 -0.5286
18468TIP3    H276896   3.790   2.302   3.517  0.8123  0.4302  1.4459
18469TIP3   OH276897   0.496   3.484   0.682  0.0174  0.1170 -0.5913
18469TIP3    H176898   0.485   3.451   0.772 -2.4899  0.5883 -0.6773
18469TIP3    H276899   0.473   3.410   0.626 -1.4087  0.7166 -0.8111
18470TIP3   OH276900   4.525   6.749  16.944 -0.7906  0.3097 -0.1162
18470TIP3    H176901   4.455   6.717  16.887  0.8354  0.7711 -2.4540
18470TIP3    H276902   4.590   6.678  16.943 -0.0162  1.0142 -0.1704
18471TIP3   OH276903   1.724   2.253  16.275 -0.4334 -0.5924 -0.1507
18471TIP3    H176904   1.680   2.338  16.287 -0.7403 -0.6751 -0.6795
18471TIP3    H276905   1.706   2.230  16.183  0.5885 -0.6904 -0.3302
18472TIP3   OH276906   6.567   6.554  16.105  0.0759  0.4474  0.6661
18472TIP3    H176907   6.520   6.560  16.022 -0.0232 -1.2999  0.5769
18472TIP3    H276908   6.660   6.559  16.080  0.0035  2.3404  0.6961
18473TIP3   OH276909   5.136   2.444  12.020 -0.1075 -0.0397  0.2474
18473TIP3    H176910   5.187   2.518  12.053  0.5261 -0.2791 -0.1809
18473TIP3    H276911   5.122   2.464  11.927  0.6068 -0.7474 -0.0205
18474TIP3   OH276912   0.426   1.822   0.710 -0.5502 -0.5369  0.3653
18474TIP3    H176913   0.457   1.836   0.620  0.4711 -0.0026  0.7982
18474TIP3    H276914   0.336   1.855   0.709 -0.8622 -1.3700 -0.6941
18475TIP3   OH276915   0.712   1.453  12.867  0.8549 -0.1503 -0.1552
18475TIP3    H176916   0.740   1.541  12.843  0.2574  0.0807  0.0108
18475TIP3    H276917   0.720   1.402  12.786  0.5070  0.2222 -0.4224
18476TIP3   OH276918   5.781   4.179   1.677  0.3509  0.0462  0.0588
18476TIP3    H176919   5.814   4.149   1.592 -2.5281 -0.3217 -0.9904
18476TIP3    H276920   5.755   4.099   1.722 -1.7333  0.4975 -0.3011
18477TIP3   OH276921   5.243   6.520  11.172  0.0438 -0.4865 -0.1633
18477TIP3    H176922   5.226   6.614  11.180 -0.7017 -0.8494  2.9395
18477TIP3    H276923   5.338   6.513  11.169  0.1370  0.3057  0.8215
18478TIP3   OH276924   6.689   1.440   0.678 -0.5774 -0.1066 -0.1795
18478TIP3    H176925   6.703   1.396   0.763 -0.8713  2.1463  1.0722
18478TIP3    H276926   6.775   1.474   0.655 -0.7724  0.4271 -0.1218
18479TIP3   OH276927   6.233   4.966   0.743  0.0021 -0.8100 -0.6530
18479TIP3    H176928   6.156   4.941   0.793  0.5373  0.6471  0.9529
18479TIP3    H276929   6.251   4.891   0.687 -2.0990 -1.4733 -0.4706
18480TIP3   OH276930   4.594   2.615   2.359  0.2678  0.2235  0.2172
18480TIP3    H176931   4.541   2.644   2.433 -0.0519  0.1887 -0.0029
18480TIP3    H276932   4.619   2.696   2.314 -0.6536  0.1576 -0.4166
18481TIP3   OH276933   3.045   3.456  12.888  0.5808  0.0436 -0.1927
18481TIP3    H176934   3.027   3.456  12.982  0.8496  1.6863 -0.1247
18481TIP3    H276935   2.959   3.451  12.847  0.4681 -0.8073  0.1267
18482TIP3   OH276936   4.650   6.138  12.697 -0.0216  0.1487  0.2633
18482TIP3    H176937   4.620   6.076  12.630 -0.5332  0.3312  0.3210
18482TIP3    H276938   4.570   6.164  12.743  0.0680  1.5434 -0.3451
18483TIP3   OH276939   3.329   6.269   0.264  0.7917 -0.2018 -0.1067
18483TIP3    H176940   3.234   6.267   0.266  0.8021 -0.1865  0.6035
18483TIP3    H276941   3.351   6.350   0.218  0.4659 -0.5393 -0.8656
18484TIP3   OH276942   2.966   5.369   2.599 -0.0072 -0.4668  0.4007
18484TIP3    H176943   3.027   5.348   2.669 -0.1880 -0.9875  0.4052
18484TIP3    H276944   2.890   5.313   2.616 -0.5722  0.3288  0.5237
18485TIP3   OH276945   1.366   0.601   1.052 -0.2390  0.1921 -0.2064
18485TIP3    H176946   1.367   0.566   0.963 -1.3337 -1.1296  0.2676
18485TIP3    H276947   1.423   0.542   1.102  0.0996  0.7232  0.0363
18486TIP3   OH276948   6.681   3.889  14.961  0.3535  0.1810  0.1343
18486TIP3    H176949   6.610   3.952  14.974  0.2660  0.1689 -0.2788
18486TIP3    H276950   6.761   3.939  14.982 -0.0030 -0.8346  4.1753
18487TIP3   OH276951   3.497   0.987  13.935 -0.4228 -0.3820  0.3282
18487TIP3    H176952   3.503   0.995  13.840 -0.8752  0.0883  0.3340
18487TIP3    H276953   3.406   1.007  13.956 -0.1136  0.4638  0.9413
18488TIP3   OH276954   0.212   3.872  17.138 -0.3957 -0.3764 -0.4615
18488TIP3    H176955   0.239   3.831  17.220  2.5231 -0.0257 -1.1706
18488TIP3    H276956   0.165   3.803  17.091 -0.6850 -1.0748  0.8339
18489TIP3   OH276957   1.989   5.351   3.082  0.2473  0.1024 -0.4002
18489TIP3    H176958   2.043   5.389   3.013  1.9451 -0.5034  0.5544
18489TIP3    H276959   2.041   5.277   3.115 -0.6635  0.1967  1.2929
18490TIP3   OH276960   3.089   3.964   2.224 -0.3046  0.7220 -0.3247
18490TIP3    H176961   3.090   3.917   2.307  2.0076  0.4910 -0.4556
18490TIP3    H276962   3.102   3.896   2.158 -1.0555  1.0361 -0.8006
18491TIP3   OH276963   0.909   0.790  13.283  0.0238  0.5408 -0.2388
18491TIP3    H176964   0.907   0.799  13.188 -1.5033  0.2921 -0.2466
18491TIP3    H276965   0.838   0.846  13.314 -1.3208 -1.5176  0.5496
18492TIP3   OH276966   1.632   4.327  12.022 -0.7372  0.3517 -0.0643
18492TIP3    H176967   1.592   4.318  11.936  0.4787 -2.1352 -0.4203
18492TIP3    H276968   1.716   4.369  12.005 -0.5055 -0.1208 -0.0850
18493TIP3   OH276969   0.411   4.181  14.050  0.4962 -0.0329 -0.2389
18493TIP3    H176970   0.478   4.154  14.112  0.1055  0.3505  0.3582
18493TIP3    H276971   0.370   4.099  14.021  2.7470 -0.4494 -2.3852
18494TIP3   OH276972   5.431   0.346   4.036  0.2901 -0.1246  0.9423
18494TIP3    H176973   5.515   0.336   3.992  0.3070 -1.0477  1.1809
18494TIP3    H276974   5.372   0.378   3.968 -0.0460 -2.9267 -0.1536
18495TIP3   OH276975   3.323   1.228  16.218 -0.0406 -0.1500 -0.0999
18495TIP3    H176976   3.267   1.303  16.200  0.2501  0.1306  0.1709
18495TIP3    H276977   3.410   1.255  16.191 -0.0609 -0.6410 -0.6640
18496TIP3   OH276978   6.321   5.578  11.020  0.2569  0.5683  0.3835
18496TIP3    H176979   6.378   5.518  10.971  1.9655  1.6195  1.0269
18496TIP3    H276980   6.373   5.657  11.029 -1.4234  1.6352  0.8172
18497TIP3   OH276981   3.502   1.260  12.142 -0.3479  0.7850 -0.2696
18497TIP3    H176982   3.557   1.310  12.082 -2.4023  1.8415 -1.3269
18497TIP3    H276983   3.419   1.307  12.143  0.2638  2.0931  5.1019
18498TIP3   OH276984   3.884   1.031   3.698 -0.0674 -0.3077 -0.7583
18498TIP3    H176985   3.923   1.083   3.627  2.1347  0.0246  0.6363
18498TIP3    H276986   3.835   1.095   3.750  0.8467  0.0271 -0.2805
18499TIP3   OH276987   4.705   5.737  15.040 -0.1359  0.0920  0.5648
18499TIP3    H176988   4.677   5.822  15.007  0.6814  0.2984  0.4007
18499TIP3    H276989   4.655   5.724  15.120 -1.8730 -0.2469 -0.5474
18500TIP3   OH276990   2.654   0.201   6.283 -0.2281  0.8763 -0.4949
18500TIP3    H176991   2.571   0.248   6.270 -0.9675 -0.1131  0.5270
18500TIP3    H276992   2.648   0.167   6.372  0.1647 -1.3814 -1.2948
18501TIP3   OH276993   5.414   2.129  12.107  0.1470  0.6060 -0.7986
18501TIP3    H176994   5.435   2.222  12.113 -1.0827  0.8633 -0.2977
18501TIP3    H276995   5.408   2.112  12.013  2.3068  0.5723 -0.9464
18502TIP3   OH276996   0.168   3.252  14.848 -0.3778 -0.0891 -0.2705
18502TIP3    H176997   0.199   3.161  14.847 -0.9986 -0.3141  0.4254
18502TIP3    H276998   0.242   3.303  14.816 -0.1447 -0.8792 -1.0151
18503TIP3   OH276999   1.057   3.309   2.029 -0.6147 -0.1718  0.3753
18503TIP3    H177000   1.130   3.258   2.063 -0.8232  0.4918  1.8626
18503TIP3    H277001   1.083   3.332   1.940 -0.5041 -2.7789 -0.2836
18504TIP3   OH277002   6.287   3.814   1.145  0.4407 -0.0214  0.5805
18504TIP3    H177003   6.331   3.868   1.210  1.1640  0.8996 -0.6570
18504TIP3    H277004   6.211   3.865   1.118 -0.4139 -0.8298  1.4013
18505TIP3   OH277005   1.078   5.770  14.263  0.1863  0.4257  0.1865
18505TIP3    H177006   1.002   5.743  14.211  0.4326 -0.1334  0.1189
18505TIP3    H277007   1.072   5.718  14.343  0.0333  0.9916  0.5438
18506TIP3   OH277008   3.943   3.220   3.303 -0.3424  1.0575 -0.0361
18506TIP3    H177009   3.973   3.168   3.228 -0.6304  0.8657 -0.0158
18506TIP3    H277010   3.848   3.213   3.301 -0.3443  0.9298  0.4381
18507TIP3   OH277011   2.386   4.236  12.582  0.3064  0.4852  0.1005
18507TIP3    H177012   2.459   4.238  12.643 -1.3728 -0.8591  2.1933
18507TIP3    H277013   2.320   4.294  12.621  0.4191  2.1796 -2.0661
18508TIP3   OH277014   0.763   5.991  13.622  0.2763  0.2333 -0.0159
18508TIP3    H177015   0.740   6.010  13.712  1.5778 -2.1221  0.8542
18508TIP3    H277016   0.682   6.003  13.573 -0.8982 -0.3057  1.7539
18509TIP3   OH277017   2.720   3.891   1.652  0.2756  0.3234  0.3315
18509TIP3    H177018   2.786   3.946   1.608 -2.2414  1.7424 -1.8158
18509TIP3    H277019   2.667   3.855   1.580 -2.0969  0.2639  2.0493
18510TIP3   OH277020   4.432   0.216  15.840  0.3355  0.0758  0.1807
18510TIP3    H177021   4.479   0.140  15.876  0.9731  0.3885  0.0132
18510TIP3    H277022   4.499   0.264  15.791 -0.0469  0.8107  0.3835
18511TIP3   OH277023   6.025   2.575   0.038 -0.2597  0.0014 -0.1494
18511TIP3    H177024   6.062   2.594   0.124  0.4706 -0.8487 -0.2658
18511TIP3    H277025   6.096   2.592  -0.023 -0.9744  1.2185 -0.6458
18512TIP3   OH277026   2.409   0.276  12.134  0.0974  0.5552  0.2228
18512TIP3    H177027   2.428   0.255  12.225 -0.7288  1.7086  0.6798
18512TIP3    H277028   2.325   0.322  12.137  0.7112  1.8110 -0.9560
18513TIP3   OH277029   3.783   0.178  14.249  0.8435 -0.4722  0.3324
18513TIP3    H177030   3.821   0.099  14.287  0.1385 -1.0112 -0.0714
18513TIP3    H277031   3.850   0.245  14.261  1.3438 -1.0700  0.9052
18514TIP3   OH277032   3.892   5.760   1.553  0.2102 -0.0709  0.0223
18514TIP3    H177033   3.947   5.696   1.507  1.2601  1.7619 -1.2972
18514TIP3    H277034   3.930   5.765   1.641  0.2236 -1.1006  0.0900
18515TIP3   OH277035   2.677   4.449   5.103 -0.2098  0.4246  0.8898
18515TIP3    H177036   2.645   4.536   5.079  1.7524  0.7042 -0.8160
18515TIP3    H277037   2.762   4.464   5.144  0.5588 -0.7128 -0.2203
18516TIP3   OH277038   2.229   1.657   4.834  0.4429  0.3632  0.1767
18516TIP3    H177039   2.319   1.677   4.810  0.5484  1.0729  1.1009
18516TIP3    H277040   2.178   1.730   4.799 -0.0653 -1.0385 -2.1054
18517TIP3   OH277041   5.365   2.719  13.567  0.3050 -0.2300  0.2372
18517TIP3    H177042   5.369   2.807  13.605 -1.3364 -0.4170  0.8774
18517TIP3    H277043   5.322   2.732  13.482  1.0956 -0.2585 -0.1701
18518TIP3   OH277044   3.641   2.067  13.611 -0.4420 -0.1665  0.4385
18518TIP3    H177045   3.704   2.087  13.542  0.7818  0.4468  1.7126
18518TIP3    H277046   3.685   2.002  13.665 -0.5691  0.8669  1.8080
18519TIP3   OH277047   6.124   6.651  15.904  0.6280 -0.1480  0.1876
18519TIP3    H177048   6.087   6.564  15.892 -0.2519  0.2460 -0.0097
18519TIP3    H277049   6.145   6.655  15.998  0.1927 -0.3927  0.3004
18520TIP3   OH277050   1.565   5.568   2.034  0.3795 -0.5319  0.3283
18520TIP3    H177051   1.644   5.622   2.036 -0.9483  1.4853  0.0665
18520TIP3    H277052   1.559   5.538   1.943 -0.6419  1.6553 -0.3630
18521TIP3   OH277053   5.566   5.422  13.409 -0.7168  0.0008  0.6017
18521TIP3    H177054   5.495   5.441  13.471 -0.2636  1.4662  0.7003
18521TIP3    H277055   5.579   5.505  13.362  0.5990 -0.4025  0.2401
18522TIP3   OH277056   4.391   4.951  11.250 -0.2255 -0.2009 -0.1046
18522TIP3    H177057   4.325   4.913  11.308  1.2762 -1.7697  0.6177
18522TIP3    H277058   4.472   4.904  11.272  1.5225  2.8014  0.1967
18523TIP3   OH277059   1.957   4.388  14.678  0.0267  0.6173  0.8011
18523TIP3    H177060   1.891   4.415  14.742 -1.0610 -0.9025  0.3480
18523TIP3    H277061   1.920   4.412  14.594 -0.0207 -0.3752  0.5345
18524TIP3   OH277062   6.239   1.855   2.177 -0.1801 -0.2431 -0.0109
18524TIP3    H177063   6.294   1.931   2.199  0.1574 -0.1146 -1.2600
18524TIP3    H277064   6.245   1.848   2.081 -1.4492 -0.9098 -0.0495
18525TIP3   OH277065   3.636   6.229   2.792  0.1087 -0.2653  0.4435
18525TIP3    H177066   3.691   6.303   2.817 -0.6127  0.5417 -0.3071
18525TIP3    H277067   3.670   6.155   2.842  0.2664  0.7709  1.8795
18526TIP3   OH277068   1.307   0.579   1.748 -0.5767  0.0291  0.1489
18526TIP3    H177069   1.355   0.497   1.763 -2.7303 -1.4173 -0.7024
18526TIP3    H277070   1.267   0.569   1.662  0.6854  2.7970 -0.8352
18527TIP3   OH277071   4.370   6.067  16.567  0.2525 -0.6999  0.1591
18527TIP3    H177072   4.465   6.075  16.579  0.4379 -0.6197 -1.3070
18527TIP3    H277073   4.336   6.062  16.656  1.7005 -1.5527  0.6929
18528TIP3   OH277074   1.144   2.745   5.441 -0.3407  0.5335  0.1898
18528TIP3    H177075   1.224   2.750   5.494 -0.4694 -2.0526  0.7138
18528TIP3    H277076   1.076   2.782   5.497 -0.2553 -1.1058  1.4349
18529TIP3   OH277077   5.043   4.674   1.746 -0.2901 -0.6089  0.2007
18529TIP3    H177078   4.974   4.633   1.798  0.6179 -0.4191  1.5677
18529TIP3    H277079   5.000   4.748   1.703 -1.0370 -0.7720  0.6669
18530TIP3   OH277080   2.831   1.652  16.751  0.4522 -0.1807 -0.2284
18530TIP3    H177081   2.738   1.639  16.733  0.6462 -0.9959 -0.6807
18530TIP3    H277082   2.852   1.586  16.817  0.8865 -0.5427 -0.7218
18531TIP3   OH277083   5.505   6.188  15.416  0.5582  0.1983 -0.0152
18531TIP3    H177084   5.586   6.158  15.459 -0.4293  0.9700  2.4797
18531TIP3    H277085   5.525   6.276  15.386  0.6527  0.3754  0.5649
18532TIP3   OH277086   6.156   4.401  16.516 -0.1582 -0.2396  0.0561
18532TIP3    H177087   6.140   4.316  16.475 -0.7686  0.9317 -2.2153
18532TIP3    H277088   6.168   4.461  16.442 -1.0526  1.8877  1.6095
18533TIP3   OH277089   1.211   5.493   0.147 -0.3222  0.1093  1.0960
18533TIP3    H177090   1.254   5.449   0.220  2.8189  1.7400  0.3343
18533TIP3    H277091   1.164   5.566   0.188 -0.6496 -0.4506  1.7298
18534TIP3   OH277092   1.839   1.465  10.844  0.1982 -0.2896 -0.1400
18534TIP3    H177093   1.785   1.388  10.861  0.2685 -0.6333 -1.4505
18534TIP3    H277094   1.788   1.517  10.782  1.2605 -0.5135 -1.2185
18535TIP3   OH277095   2.648   6.610  12.273  0.0326  0.2144  0.4451
18535TIP3    H177096   2.646   6.558  12.354  2.5243 -0.0390  0.4007
18535TIP3    H277097   2.693   6.691  12.298 -3.8242  2.4345  0.5096
18536TIP3   OH277098   2.320   4.021   5.353  0.5487  0.3689  0.0353
18536TIP3    H177099   2.242   4.076   5.354 -0.5989 -1.2308 -0.0704
18536TIP3    H277100   2.347   4.017   5.445  0.5954  1.0377  0.0536
18537TIP3   OH277101   0.569   5.071  15.210 -0.3891 -0.8487  0.3911
18537TIP3    H177102   0.486   5.110  15.238  0.4387  1.3867 -0.1111
18537TIP3    H277103   0.560   5.061  15.115 -0.1986 -0.8493  0.3727
18538TIP3   OH277104   1.530   3.764   5.463 -0.1111  0.0550 -0.5465
18538TIP3    H177105   1.464   3.808   5.409 -1.6830  0.4161  1.6219
18538TIP3    H277106   1.572   3.835   5.513 -1.4571 -0.6506  1.6640
18539TIP3   OH277107   4.403   0.866  16.136  0.4905  0.5369 -0.4745
18539TIP3    H177108   4.342   0.847  16.065 -0.4703 -1.8602  0.8940
18539TIP3    H277109   4.458   0.787  16.141  1.2493  1.1295  0.7196
18540TIP3   OH277110   2.415   6.314  16.050 -0.0213  0.1408  0.0865
18540TIP3    H177111   2.361   6.391  16.070 -0.1141  0.5454 -1.6642
18540TIP3    H277112   2.470   6.303  16.128  1.2805  3.0795 -0.3307
18541TIP3   OH277113   2.775   1.112  13.164 -0.2895  0.4126  0.0932
18541TIP3    H177114   2.747   1.116  13.256 -1.1962  0.3656 -0.1790
18541TIP3    H277115   2.704   1.065  13.120  0.4052 -0.0482 -0.5334
18542TIP3   OH277116   5.546   1.715  15.683 -0.4469 -0.7855 -0.0509
18542TIP3    H177117   5.595   1.742  15.761 -0.5614 -1.3430  0.2174
18542TIP3    H277118   5.467   1.769  15.685  0.5319  0.7134 -0.9366
18543TIP3   OH277119   2.810   0.121  17.096  0.8352  0.4746 -0.4656
18543TIP3    H177120   2.861   0.196  17.127  0.1484  0.1091  1.6012
18543TIP3    H277121   2.730   0.122  17.149  0.0995 -0.8015 -1.5051
18544TIP3   OH277122   4.843   2.687  12.917 -1.0651 -0.1375  0.4750
18544TIP3    H177123   4.901   2.760  12.895 -1.5192 -0.1241 -0.7055
18544TIP3    H277124   4.900   2.611  12.918 -0.8719 -0.0030  0.0822
18545TIP3   OH277125   1.348   1.945   5.605  0.1829  0.3038 -0.1026
18545TIP3    H177126   1.378   2.013   5.665  0.4848 -0.3677  0.5289
18545TIP3    H277127   1.398   1.867   5.631 -1.9102 -0.7833  0.7966
18546TIP3   OH277128   4.629   0.228  15.659 -0.4111  0.1970 -0.3741
18546TIP3    H177129   4.598   0.227  15.569  0.4237 -0.2433 -0.6687
18546TIP3    H277130   4.647   0.136  15.679 -0.7456  0.2719  0.2959
18547TIP3   OH277131   3.878   5.933  16.360 -0.0308  0.4075 -0.1534
18547TIP3    H177132   3.971   5.913  16.372  0.2523  1.9883  0.3479
18547TIP3    H277133   3.875   5.988  16.282 -0.5199  0.6359  0.0308
18548TIP3   OH277134   1.875   4.667   1.110  0.4843  0.2890 -0.1264
18548TIP3    H177135   1.824   4.743   1.138  0.6421  0.5311 -0.4905
18548TIP3    H277136   1.902   4.688   1.020 -2.3293 -1.6641 -1.5247
18549TIP3   OH277137   3.658   5.407  16.236  0.3527  0.8801 -0.0198
18549TIP3    H177138   3.698   5.415  16.322  0.3131  0.2561  0.0644
18549TIP3    H277139   3.669   5.314  16.213 -0.5032  0.8326 -0.2545
18550TIP3   OH277140   4.936   2.990   6.050  0.2571 -0.1609 -0.0832
18550TIP3    H177141   4.945   2.896   6.036  2.3212 -0.0945  0.6004
18550TIP3    H277142   4.897   2.998   6.137 -1.8309 -0.3857 -0.9635
18551TIP3   OH277143   5.069   5.275   2.244  0.3030 -0.0205 -0.6833
18551TIP3    H177144   5.086   5.236   2.158 -1.9678  0.9546 -1.6067
18551TIP3    H277145   5.051   5.200   2.301  2.8318 -0.7388 -0.7837
18552TIP3   OH277146   6.488   4.998   4.615 -1.0359 -0.3744  0.4881
18552TIP3    H177147   6.565   4.956   4.652  0.5540  2.3346  0.3817
18552TIP3    H277148   6.502   4.994   4.520 -0.1000  1.6507  0.4999
18553TIP3   OH277149   4.154   5.027  11.478  0.5686 -0.6270  0.1940
18553TIP3    H177150   4.140   4.933  11.467  1.1393 -0.5375 -1.4166
18553TIP3    H277151   4.079   5.056  11.530 -0.8145 -1.5899 -1.2043
18554TIP3   OH277152   4.737   2.919  17.229  0.3460 -0.6336  0.2568
18554TIP3    H177153   4.807   2.905  17.166  0.8240 -0.7416  0.8014
18554TIP3    H277154   4.774   2.890  17.313 -0.1570 -0.1745  0.6450
18555TIP3   OH277155   1.348   3.026   2.590  0.6287 -0.0324  0.5188
18555TIP3    H177156   1.293   3.075   2.651  0.8461  0.6988  0.1324
18555TIP3    H277157   1.291   2.957   2.556  0.2127  0.1746  0.7888
18556TIP3   OH277158   5.940   2.091  11.409  0.2678  0.3887  0.1664
18556TIP3    H177159   5.944   2.186  11.404  2.7888  0.3540  0.7949
18556TIP3    H277160   6.031   2.064  11.422 -0.1297 -2.2205 -2.0272
18557TIP3   OH277161   1.207   1.897  11.267 -0.1969 -0.1671  0.2795
18557TIP3    H177162   1.210   1.965  11.200 -2.9177 -0.7441 -0.5007
18557TIP3    H277163   1.255   1.823  11.229 -1.0875 -0.2297 -0.7166
18558TIP3   OH277164   0.630   0.075   5.314  0.2005 -0.8712 -0.1160
18558TIP3    H177165   0.642   0.048   5.405 -2.2718  0.2861  0.6149
18558TIP3    H277166   0.547   0.125   5.315  0.3863 -0.4359 -2.8994
18559TIP3   OH277167   6.480   1.028  12.224 -0.7620 -0.4812 -0.2650
18559TIP3    H177168   6.533   1.038  12.145 -1.7487 -0.1607 -0.8896
18559TIP3    H277169   6.534   1.064  12.294 -0.2801  0.1269 -0.9489
18560TIP3   OH277170   0.858   6.464   3.709  0.4890  0.0612  0.2855
18560TIP3    H177171   0.826   6.532   3.768  0.7466 -0.5128  1.0927
18560TIP3    H277172   0.933   6.504   3.666  0.1078  0.5941  0.1131
18561TIP3   OH277173   5.078   0.607  12.396  0.1623  0.1780 -0.2196
18561TIP3    H177174   5.165   0.605  12.434  0.5333 -0.5931 -1.0864
18561TIP3    H277175   5.078   0.536  12.332 -0.4315  1.4601 -1.6837
18562TIP3   OH277176   0.934   0.600  17.030  0.0296 -0.1879 -0.0047
18562TIP3    H177177   0.853   0.633  17.066  0.5552 -0.8244  1.8121
18562TIP3    H277178   0.995   0.674  17.033  0.0942 -0.2598  0.5062
18563TIP3   OH277179   3.291   3.029   2.970 -0.8562  0.1951 -0.0498
18563TIP3    H177180   3.370   3.036   2.916 -2.0061  0.4971 -1.7641
18563TIP3    H277181   3.288   2.937   2.997  0.2856  0.2759  0.3413
18564TIP3   OH277182   5.266   3.795   0.728  0.3288 -0.4672  0.7345
18564TIP3    H177183   5.317   3.837   0.658 -0.8617 -0.5240 -0.1880
18564TIP3    H277184   5.179   3.783   0.690 -0.4348 -0.1978  2.3606
18565TIP3   OH277185   3.545   1.583  11.847  0.4555  0.4831 -0.0856
18565TIP3    H177186   3.467   1.571  11.794  0.3576  0.9340 -0.0513
18565TIP3    H277187   3.515   1.634  11.923  1.0162  1.7069 -0.6707
18566TIP3   OH277188   5.835   0.402  14.851  0.4332  0.0305  0.4581
18566TIP3    H177189   5.836   0.329  14.788 -1.0970 -0.1378  0.6071
18566TIP3    H277190   5.767   0.460  14.818 -0.1541  0.1053  1.7944
18567TIP3   OH277191   3.395   3.028  13.242 -0.0904  0.0232  0.3449
18567TIP3    H177192   3.363   3.020  13.153  0.3893  0.1752  0.1560
18567TIP3    H277193   3.359   2.952  13.288 -2.3620  1.2592  0.6512
18568TIP3   OH277194   4.597   2.913   2.574 -0.0956 -0.2956 -0.2356
18568TIP3    H177195   4.610   2.903   2.480 -0.2347 -0.4481 -0.2383
18568TIP3    H277196   4.638   2.835   2.612 -0.0610 -0.2461 -0.1703
18569TIP3   OH277197   0.008   4.089  16.461 -0.4783 -0.2773 -0.1373
18569TIP3    H177198  -0.033   4.137  16.533 -0.5262 -0.0807 -0.2950
18569TIP3    H277199   0.098   4.122  16.458 -0.5670 -0.0528 -0.3709
18570TIP3   OH277200   3.075   5.590   4.861  0.0739  0.7429  0.2110
18570TIP3    H177201   3.057   5.634   4.778 -1.3153  0.7036  0.4760
18570TIP3    H277202   3.136   5.520   4.838 -0.1260  0.8751 -0.7352
18571TIP3   OH277203   6.491   4.476   4.166 -0.2999  0.0675  0.1368
18571TIP3    H177204   6.484   4.486   4.261 -1.8793 -0.6133  0.1034
18571TIP3    H277205   6.453   4.556   4.131 -1.3624 -0.4642  0.0593
18572TIP3   OH277206   4.289   4.372  13.313 -0.2015 -0.3334 -0.0400
18572TIP3    H177207   4.350   4.408  13.378 -0.4250  0.5987 -0.3377
18572TIP3    H277208   4.279   4.280  13.338 -0.3158  0.0186  1.2873
18573TIP3   OH277209   4.035   6.088   3.268 -0.1320 -0.3718 -0.0437
18573TIP3    H177210   4.069   6.015   3.319  0.5432  0.2473  0.3979
18573TIP3    H277211   4.104   6.107   3.204 -0.7187 -0.7531 -0.7942
18574TIP3   OH277212   5.043   2.589   2.776 -0.2733  0.5018  0.1779
18574TIP3    H177213   4.989   2.580   2.855  1.8913  0.8633  1.7591
18574TIP3    H277214   5.040   2.683   2.756 -0.6055  0.4499 -0.0224
18575TIP3   OH277215   3.797   5.948   5.828  0.2779 -0.0208 -0.4875
18575TIP3    H177216   3.854   5.881   5.791  1.1817  0.1197  0.6031
18575TIP3    H277217   3.773   5.915   5.915 -0.0051  0.6410 -0.3071
18576TIP3   OH277218   4.155   0.097  12.594 -0.0042 -0.2236  0.3705
18576TIP3    H177219   4.160   0.016  12.645 -1.4964 -0.8596 -0.4587
18576TIP3    H277220   4.195   0.074  12.510 -0.5025 -0.1409  0.1075
18577TIP3   OH277221   1.852   3.689  14.131  0.5175  0.1990  0.1491
18577TIP3    H177222   1.820   3.705  14.042 -0.2683  1.5466  0.6578
18577TIP3    H277223   1.945   3.708  14.127  0.2972  1.2393 -0.1562
18578TIP3   OH277224   2.240   1.161   0.638  0.0129 -0.1466 -0.4567
18578TIP3    H177225   2.166   1.136   0.693  0.7269 -0.8762  0.1679
18578TIP3    H277226   2.228   1.254   0.623  0.5965  0.3818  2.1299
18579TIP3   OH277227   3.091   0.828   3.721 -0.6812 -0.5205  0.3851
18579TIP3    H177228   3.004   0.789   3.721 -0.8180 -0.2250  0.1047
18579TIP3    H277229   3.098   0.872   3.805 -0.8985 -0.3408  0.3096
18580TIP3   OH277230   1.178   6.584   6.558  0.5444  0.3752 -0.1728
18580TIP3    H177231   1.095   6.606   6.599 -0.6472 -0.7669 -1.9199
18580TIP3    H277232   1.215   6.516   6.615 -0.1370  0.2454  0.1232
18581TIP3   OH277233   5.106   2.980  11.156 -0.3188 -0.1675  0.1685
18581TIP3    H177234   5.020   2.945  11.130  0.0437 -0.0081 -1.3055
18581TIP3    H277235   5.105   3.070  11.123  1.6499 -1.1628 -2.7553
18582TIP3   OH277236   1.939   2.616  12.217 -0.0487  0.3507 -0.0414
18582TIP3    H177237   1.988   2.697  12.230 -1.0969  1.1775 -1.0977
18582TIP3    H277238   1.907   2.621  12.127 -0.3635 -1.1152 -0.0353
18583TIP3   OH277239   4.856   6.560   4.837 -0.2764  0.1680  0.2738
18583TIP3    H177240   4.934   6.615   4.828 -1.4519  1.6135 -1.3694
18583TIP3    H277241   4.828   6.573   4.928  0.4119  0.9575  0.3765
18584TIP3   OH277242   0.510   1.451  10.883  0.1180  0.0622  0.1590
18584TIP3    H177243   0.431   1.488  10.923  0.6232  0.7106  0.5697
18584TIP3    H277244   0.560   1.527  10.854  1.3577 -0.2608  1.3740
18585TIP3   OH277245   2.310   0.865   5.264  0.1323 -0.1029  0.3402
18585TIP3    H177246   2.216   0.876   5.253  0.0166 -0.5638  0.8390
18585TIP3    H277247   2.339   0.825   5.182 -0.1388 -0.1526  0.2668
18586TIP3   OH277248   1.373   1.526   0.977 -0.3143  0.5451 -0.1154
18586TIP3    H177249   1.403   1.570   1.056 -1.1399  1.4712 -0.3141
18586TIP3    H277250   1.382   1.591   0.908  0.5909 -0.3199 -0.8395
18587TIP3   OH277251   0.569   2.753  11.554  0.3082 -0.3270 -0.4233
18587TIP3    H177252   0.508   2.682  11.533 -0.6347 -0.0375  1.1693
18587TIP3    H277253   0.512   2.828  11.573  1.2134  0.3193 -0.2334
18588TIP3   OH277254   6.597   1.044  15.390  0.2533  0.3359  0.5856
18588TIP3    H177255   6.664   1.088  15.338 -0.0466 -0.8779 -0.8866
18588TIP3    H277256   6.569   0.971  15.335 -3.7661  2.0015  0.1798
18589TIP3   OH277257   1.344   5.792   0.554 -0.4927  0.0237 -0.2285
18589TIP3    H177258   1.249   5.786   0.559 -0.6291  1.4306 -0.9610
18589TIP3    H277259   1.364   5.787   0.461  0.0573  0.9661 -0.1670
18590TIP3   OH277260   3.641   3.324   6.039  0.0918  0.2704  0.3422
18590TIP3    H177261   3.677   3.407   6.068 -1.1509  0.8022  0.4037
18590TIP3    H277262   3.564   3.348   5.986 -0.4055 -0.8339  0.5435
18591TIP3   OH277263   4.320   2.476  17.121  0.2149  0.2670  0.0415
18591TIP3    H177264   4.388   2.441  17.063 -0.2883 -1.0492  0.2250
18591TIP3    H277265   4.359   2.472  17.209  0.0002 -0.2412  0.1127
18592TIP3   OH277266   5.928   6.456  12.848  0.0158 -0.4490 -0.5630
18592TIP3    H177267   5.942   6.379  12.794 -3.0099 -0.3078 -1.6451
18592TIP3    H277268   5.838   6.483  12.829 -0.7108  0.4155  3.5207
18593TIP3   OH277269   0.955   2.926   5.879  0.1570  0.4237  0.2671
18593TIP3    H177270   0.976   2.924   5.972  0.7842 -0.1004  0.1188
18593TIP3    H277271   0.893   2.999   5.870 -2.9607 -1.8894  1.7427
18594TIP3   OH277272   1.283   1.071  17.083 -0.2644 -0.0342 -0.5836
18594TIP3    H177273   1.304   1.043  17.172  2.4317  0.9757 -0.8621
18594TIP3    H277274   1.243   1.157  17.094  0.2891  0.1949 -0.3763
18595TIP3   OH277275   1.621   3.564   3.538 -0.3848 -0.0912 -0.1427
18595TIP3    H177276   1.692   3.617   3.503 -0.6733  0.2945 -0.1563
18595TIP3    H277277   1.617   3.487   3.481 -0.5671  0.3227 -0.6971
18596TIP3   OH277278   4.239   5.993   3.461 -0.3181 -0.6201  0.5123
18596TIP3    H177279   4.252   6.042   3.542  1.2651  1.3808 -0.8865
18596TIP3    H277280   4.184   5.918   3.486 -0.5595  0.4152  3.2287
18597TIP3   OH277281   0.328   5.994   1.827 -0.0920 -0.4663  0.2191
18597TIP3    H177282   0.362   5.910   1.858 -0.7987  0.0209  2.4402
18597TIP3    H277283   0.370   6.008   1.742  2.3897 -1.6227  1.2024
18598TIP3   OH277284   1.339   3.843  13.492 -0.2036 -0.0568  0.1380
18598TIP3    H177285   1.390   3.906  13.440  0.6063  0.2935  1.3162
18598TIP3    H277286   1.257   3.833  13.444  0.0624  1.1393 -0.5978
18599TIP3   OH277287   4.267   6.700   4.638 -0.0450 -0.0786  0.8136
18599TIP3    H177288   4.325   6.697   4.714 -0.1085  2.7141  1.0165
18599TIP3    H277289   4.178   6.703   4.675 -0.1196  0.2532  0.6101
18600TIP3   OH277290   3.394   6.084   2.806 -0.4078 -0.6579  0.0792
18600TIP3    H177291   3.340   6.136   2.746 -1.2552 -0.2493  1.1861
18600TIP3    H277292   3.479   6.127   2.805 -0.5833 -0.3150 -0.3789
18601TIP3   OH277293   1.793   5.110   5.587  0.2609 -0.9301 -0.1652
18601TIP3    H177294   1.846   5.036   5.557 -0.7547 -2.3246  1.4050
18601TIP3    H277295   1.856   5.177   5.611  1.2249 -1.6577 -0.6170
18602TIP3   OH277296   5.771   4.782   0.267 -0.0995  0.1739  0.0996
18602TIP3    H177297   5.738   4.725   0.198  0.6433 -0.3881  0.2036
18602TIP3    H277298   5.754   4.735   0.348 -0.9439  0.8212  0.3040
18603TIP3   OH277299   2.154   0.706  13.250  0.1794 -0.3329 -0.2902
18603TIP3    H177300   2.201   0.735  13.171 -0.6388  0.3805 -0.5270
18603TIP3    H277301   2.064   0.734  13.235 -0.0900 -0.6850  0.6634
18604TIP3   OH277302   5.500   5.863   1.700  0.3990  0.6774 -0.4398
18604TIP3    H177303   5.571   5.901   1.648  0.1606  1.1855 -0.3920
18604TIP3    H277304   5.543   5.836   1.782  0.3150  2.1403  0.1117
18605TIP3   OH277305   2.559   1.468  13.256 -0.0304  0.2603  0.4238
18605TIP3    H177306   2.497   1.538  13.275 -0.0973  0.8782 -1.8883
18605TIP3    H277307   2.512   1.410  13.196  2.1756  1.7230 -2.8846
18606TIP3   OH277308   0.304   0.792   3.820  0.9599  0.7125 -0.1044
18606TIP3    H177309   0.393   0.770   3.847  1.1212  1.5075  0.0474
18606TIP3    H277310   0.282   0.870   3.872  0.1231  0.4362 -0.0386
18607TIP3   OH277311   6.752   5.475  13.748 -0.3294 -0.3295  0.6618
18607TIP3    H177312   6.693   5.541  13.785  1.3366  0.1747  2.5262
18607TIP3    H277313   6.794   5.519  13.673 -1.5638 -0.3640 -0.0597
18608TIP3   OH277314   3.922   5.358   3.808 -0.5255  0.1226 -0.0872
18608TIP3    H177315   3.957   5.416   3.876 -0.9367  0.7918 -0.4430
18608TIP3    H277316   3.850   5.312   3.852 -2.0702  1.9759 -0.5930
18609TIP3   OH277317   0.315   3.025  14.834 -0.5567  0.1436 -0.4051
18609TIP3    H177318   0.287   3.010  14.924  0.7230 -1.3223 -0.2171
18609TIP3    H277319   0.344   2.939  14.804  0.3504  0.8987 -1.7417
18610TIP3   OH277320   4.870   1.104   3.898  0.2497  0.1085 -0.0247
18610TIP3    H177321   4.936   1.042   3.927  0.4856  0.1571 -0.4565
18610TIP3    H277322   4.890   1.119   3.806  1.3177  2.2466  0.5275
18611TIP3   OH277323   2.116   1.901  16.326  0.0629 -0.6676  0.7444
18611TIP3    H177324   2.022   1.887  16.337 -0.0459  0.0905  0.7560
18611TIP3    H277325   2.153   1.812  16.324 -0.7255 -0.9835  0.0470
18612TIP3   OH277326   0.146   2.208   3.156  0.2702  0.0924 -0.1727
18612TIP3    H177327   0.155   2.193   3.061 -1.5531  0.2312 -0.3761
18612TIP3    H277328   0.187   2.293   3.170 -0.3805  0.5621 -1.0253
18613TIP3   OH277329   0.920   2.941  10.705 -0.2741 -0.6435 -0.2286
18613TIP3    H177330   0.834   2.900  10.715 -0.7279 -0.1033 -1.7861
18613TIP3    H277331   0.919   2.978  10.617  1.4101 -0.2769 -0.1126
18614TIP3   OH277332   5.752   4.916  11.731  0.0286  0.0386 -0.2211
18614TIP3    H177333   5.797   4.845  11.685  0.4493  0.0782  0.1267
18614TIP3    H277334   5.688   4.872  11.787 -0.3032 -0.0226 -0.6478
18615TIP3   OH277335   1.315   0.060   1.081 -0.7759 -0.5278  0.5736
18615TIP3    H177336   1.397   0.084   1.125 -0.1146 -0.0961 -0.8549
18615TIP3    H277337   1.312  -0.036   1.086  0.7795 -0.6879 -0.9919
18616TIP3   OH277338   0.658   4.981   5.224 -0.5778 -0.0188  0.2791
18616TIP3    H177339   0.569   4.949   5.240 -1.0323  1.6956  1.3704
18616TIP3    H277340   0.703   4.971   5.308  0.4286 -1.3904 -0.4193
18617TIP3   OH277341   4.537   6.430   5.455 -0.3208  0.0202 -0.2141
18617TIP3    H177342   4.505   6.344   5.428 -0.4488 -0.8251  2.4113
18617TIP3    H277343   4.483   6.452   5.531  1.6430  1.0748  0.9246
18618TIP3   OH277344   5.631   4.246   5.316 -0.2841 -0.0082  0.1325
18618TIP3    H177345   5.671   4.320   5.362 -1.2337  0.4674  0.1920
18618TIP3    H277346   5.538   4.266   5.315 -0.2222  0.2243 -2.4383
18619TIP3   OH277347   0.618   1.230  11.263 -0.4640 -0.0208  0.0069
18619TIP3    H177348   0.683   1.170  11.300 -0.1031  0.9847  1.0415
18619TIP3    H277349   0.668   1.308  11.239 -1.1564  0.4380  0.0269
18620TIP3   OH277350   1.192   3.750  10.964 -0.8973  0.4548  0.1759
18620TIP3    H177351   1.136   3.701  10.904  0.6535  0.8620 -1.6463
18620TIP3    H277352   1.194   3.838  10.927  0.0790  0.7085  0.8406
18621TIP3   OH277353   1.173   4.261  16.122 -0.2783 -0.0685  0.3648
18621TIP3    H177354   1.138   4.346  16.147 -1.4911 -0.8769  1.4780
18621TIP3    H277355   1.260   4.280  16.086 -0.5569  1.6278  0.5805
18622TIP3   OH277356   5.150   1.239  15.792  0.1763  0.2338  0.1833
18622TIP3    H177357   5.235   1.199  15.773 -1.1915 -1.4278 -2.8246
18622TIP3    H277358   5.169   1.333  15.798  2.1329 -0.0197 -1.2605
18623TIP3   OH277359   6.596   3.268  12.233  0.1027  0.4299  0.1242
18623TIP3    H177360   6.529   3.324  12.272  0.3222 -0.1496  1.3396
18623TIP3    H277361   6.634   3.221  12.307 -0.6392 -1.9612 -0.9640
18624TIP3   OH277362   3.829   0.140  17.186  0.2553  0.7190  0.2316
18624TIP3    H177363   3.814   0.154  17.280  0.3860  1.0867  0.1957
18624TIP3    H277364   3.783   0.058  17.167  1.2914 -0.0401  0.8913
18625TIP3   OH277365   4.169   6.193   0.428 -0.2056 -0.2703  0.0103
18625TIP3    H177366   4.114   6.249   0.373  0.3374 -0.6312 -0.9064
18625TIP3    H277367   4.220   6.255   0.481  0.1702  0.1037 -0.7803
18626TIP3   OH277368   6.434   6.180   4.295 -0.3244 -0.1115  0.0326
18626TIP3    H177369   6.381   6.103   4.311  0.4985 -0.3649  1.7537
18626TIP3    H277370   6.489   6.188   4.374 -0.0777  1.9549 -0.3015
18627TIP3   OH277371   1.258   3.002   3.508 -0.5395 -0.0979  0.5155
18627TIP3    H177372   1.292   2.984   3.420 -2.7667 -1.9473 -0.0432
18627TIP3    H277373   1.335   3.013   3.563  0.8984  1.7039 -1.7804
18628TIP3   OH277374   5.729   6.097  16.496  0.2085  0.5103  0.2498
18628TIP3    H177375   5.744   6.089  16.402 -1.4593  0.9773 -0.0835
18628TIP3    H277376   5.777   6.176  16.521  2.8539 -1.0633  0.3297
18629TIP3   OH277377   5.512   0.650  14.356  0.0416 -0.7510 -0.4189
18629TIP3    H177378   5.535   0.725  14.410  0.9239 -1.2036 -0.1727
18629TIP3    H277379   5.469   0.589  14.416  1.3020 -1.3878 -0.1619
18630TIP3   OH277380   0.971   4.561   0.484  0.0815  0.3868  0.9414
18630TIP3    H177381   0.911   4.593   0.552  0.3167  0.6004  1.0496
18630TIP3    H277382   0.926   4.485   0.447 -1.2273  1.7985 -0.4435
18631TIP3   OH277383   4.615   3.991  11.509 -0.0003  0.8869 -0.4388
18631TIP3    H177384   4.656   3.982  11.595 -1.4291  1.6837  0.3521
18631TIP3    H277385   4.617   3.903  11.472 -0.0552  0.3819  0.7343
18632TIP3   OH277386   3.612   0.612  13.848 -0.0885 -0.2200  0.2423
18632TIP3    H177387   3.650   0.549  13.787  0.9868  0.4882  0.1646
18632TIP3    H277388   3.616   0.569  13.933  0.8932 -0.1535  0.2335
18633TIP3   OH277389   0.340   3.800  14.270  0.1274 -0.5364 -0.2051
18633TIP3    H177390   0.255   3.840  14.253  0.7564  1.1173  0.4150
18633TIP3    H277391   0.364   3.758  14.187 -0.1798  1.1391 -1.1644
18634TIP3   OH277392   4.268   1.171   3.812 -0.7272 -0.0573  0.1457
18634TIP3    H177393   4.354   1.153   3.850  0.9593  1.8514 -2.5605
18634TIP3    H277394   4.235   1.086   3.784  0.6982 -0.6938  0.3855
18635TIP3   OH277395   5.867   2.071   4.597  0.1724 -0.6612 -0.2196
18635TIP3    H177396   5.951   2.050   4.637 -0.7293 -1.2121  1.4442
18635TIP3    H277397   5.879   2.052   4.504  1.1106 -3.1549  0.3716
18636TIP3   OH277398   5.887   4.567   1.631 -0.0531 -0.6724  0.0341
18636TIP3    H177399   5.827   4.547   1.702 -0.1269 -0.9801 -0.1119
18636TIP3    H277400   5.934   4.485   1.616 -2.2692 -1.5682 -2.4019
18637TIP3   OH277401   6.103   1.756  12.129 -0.2530 -0.2025 -0.4202
18637TIP3    H177402   6.124   1.849  12.137 -0.2287 -0.2394 -0.0664
18637TIP3    H277403   6.052   1.736  12.207 -1.5211 -0.1440 -1.2193
18638TIP3   OH277404   1.088   4.334  11.083 -0.4410 -0.2802  0.0790
18638TIP3    H177405   1.053   4.331  10.994  1.4543  2.0563 -0.8113
18638TIP3    H277406   1.176   4.295  11.075  0.5930  1.9045  0.4522
18639TIP3   OH277407   6.320   4.920   4.195  0.4739 -0.4405  0.3837
18639TIP3    H177408   6.290   4.986   4.133 -2.3031 -0.9526  1.1333
18639TIP3    H277409   6.382   4.867   4.145  0.8695  1.2263 -0.9367
18640TIP3   OH277410   1.156   2.443  13.966 -0.2001 -0.1940  0.0513
18640TIP3    H177411   1.243   2.481  13.962  1.3960 -3.6204  0.2545
18640TIP3    H277412   1.120   2.472  14.050  2.0368 -1.2858  1.4349
18641TIP3   OH277413   0.153   2.822  13.364  0.4316  0.3943 -0.3089
18641TIP3    H177414   0.177   2.893  13.424 -0.4647  0.5215 -0.0961
18641TIP3    H277415   0.065   2.797  13.391  0.9976 -1.2447  0.0400
18642TIP3   OH277416   4.523   3.090  17.103 -0.3333  0.4399 -0.3634
18642TIP3    H177417   4.592   3.024  17.108 -0.4908  0.3961  2.0923
18642TIP3    H277418   4.569   3.173  17.103 -0.2137  0.3739 -0.2863
18643TIP3   OH277419   4.348   0.921   5.992  0.2423  0.4148  0.2095
18643TIP3    H177420   4.436   0.885   5.991 -0.2252 -0.7384 -0.6333
18643TIP3    H277421   4.300   0.865   6.054 -0.3449 -0.0891 -0.6838
18644TIP3   OH277422   4.806   3.918   3.159  0.2710 -0.1889  0.2637
18644TIP3    H177423   4.899   3.922   3.178  0.5736  0.5089 -1.2509
18644TIP3    H277424   4.794   3.978   3.086 -1.3590 -0.3141  0.4108
18645TIP3   OH277425   3.016   6.168   2.977 -0.4731  0.4951  0.0953
18645TIP3    H177426   2.998   6.076   2.996  1.1659  0.1265 -0.0886
18645TIP3    H277427   3.093   6.189   3.029 -0.8686  1.7905  0.1790
18646TIP3   OH277428   1.522   4.426   2.148 -0.0083  0.1531  0.1056
18646TIP3    H177429   1.431   4.405   2.166  0.1766 -0.2959  0.5535
18646TIP3    H277430   1.523   4.519   2.127 -0.4331  0.3682  1.0364
18647TIP3   OH277431   1.533   5.156  13.736  0.0611  0.0069  0.5396
18647TIP3    H177432   1.559   5.137  13.826  1.1262  0.5284  0.3460
18647TIP3    H277433   1.588   5.230  13.710 -0.5167  0.1130 -0.4103
18648TIP3   OH277434   4.742   6.041   4.209  0.0267 -0.2436 -0.4408
18648TIP3    H177435   4.807   6.086   4.156  0.1569 -0.6872 -0.6627
18648TIP3    H277436   4.714   6.106   4.273 -0.0201  0.2456 -0.9537
18649TIP3   OH277437   0.947   2.886  13.592  0.2006  0.1907  0.1026
18649TIP3    H177438   0.982   2.859  13.677 -0.8747  2.6571  1.3937
18649TIP3    H277439   0.897   2.811  13.561 -0.6513 -0.2152  2.3789
18650TIP3   OH277440   1.539   4.707   5.230  0.8936 -0.1274  0.3246
18650TIP3    H177441   1.501   4.735   5.313  2.8060 -0.2626  1.2775
18650TIP3    H277442   1.569   4.618   5.246  0.7330 -0.3805 -0.7130
18651TIP3   OH277443   1.251   3.969   3.423 -0.1664  0.0724 -0.1076
18651TIP3    H177444   1.157   3.983   3.409 -0.2886 -1.1203 -0.4809
18651TIP3    H277445   1.286   4.057   3.435 -1.4382  0.4929  0.6848
18652TIP3   OH277446   2.266   3.665   0.381 -0.0691  0.3200  0.0372
18652TIP3    H177447   2.226   3.681   0.467 -0.7863 -0.5008 -0.1415
18652TIP3    H277448   2.219   3.723   0.322 -0.5088 -0.1226 -0.0462
18653TIP3   OH277449   5.277   4.914   5.529  0.4968  0.0058 -0.3061
18653TIP3    H177450   5.325   4.851   5.475  1.4475 -0.6530  1.2638
18653TIP3    H277451   5.188   4.880   5.532  1.1424 -1.6304  1.0373
18654TIP3   OH277452   5.161   4.595   4.324 -0.9217 -0.2507 -0.1589
18654TIP3    H177453   5.122   4.609   4.411 -0.3560  0.8622 -0.0763
18654TIP3    H277454   5.086   4.586   4.266 -1.3066 -0.9243  0.4357
18655TIP3   OH277455   1.312   5.156   2.776  0.0930 -0.1456 -0.1909
18655TIP3    H177456   1.281   5.085   2.719  0.9936  0.4641 -1.4855
18655TIP3    H277457   1.405   5.136   2.789  0.0867  0.1906  0.3508
18656TIP3   OH277458   1.473   4.706  15.027  0.0537 -0.0345  0.3003
18656TIP3    H177459   1.565   4.722  15.046  0.4010 -1.3619 -0.2378
18656TIP3    H277460   1.473   4.659  14.943 -1.1299  0.2522  0.1235
18657TIP3   OH277461   3.336   2.169   2.672  0.5060  0.7608 -0.4268
18657TIP3    H177462   3.347   2.134   2.760 -0.5107 -0.0549 -0.6168
18657TIP3    H277463   3.342   2.264   2.683 -0.0340  0.6851  0.5809
18658TIP3   OH277464   3.559   1.021  13.660  0.2250  0.5841 -0.0671
18658TIP3    H177465   3.574   1.113  13.637  1.0599  0.6158  0.5742
18658TIP3    H277466   3.646   0.987  13.680 -0.0863 -0.3423 -0.2563
18659TIP3   OH277467   5.846   5.487  12.126  0.0820  0.2274 -0.1373
18659TIP3    H177468   5.864   5.515  12.216 -0.5660 -1.2788  0.4746
18659TIP3    H277469   5.753   5.505  12.114  0.3529  1.2130 -0.8096
18660TIP3   OH277470   2.118   4.594  16.948 -0.3165 -0.0340 -0.5308
18660TIP3    H177471   2.103   4.537  16.873  0.4462 -0.5002 -0.3418
18660TIP3    H277472   2.201   4.638  16.929 -0.9237  1.0668 -0.7013
18661TIP3   OH277473   0.810   6.167   4.987  0.8113  0.3257  0.1554
18661TIP3    H177474   0.737   6.215   5.027 -0.3228 -0.5499 -0.8373
18661TIP3    H277475   0.879   6.170   5.054 -0.6975 -0.2502  1.7982
18662TIP3   OH277476   3.235   2.525   2.095 -0.2844 -0.2711 -0.4176
18662TIP3    H177477   3.181   2.589   2.140 -0.0402  1.4251 -2.4228
18662TIP3    H277478   3.304   2.502   2.158 -1.9953 -0.7114  1.3187
18663TIP3   OH277479   4.709   3.150  10.365  0.1926  0.0188  0.0431
18663TIP3    H177480   4.771   3.078  10.364  0.3627  0.1760 -0.5411
18663TIP3    H277481   4.762   3.229  10.354  0.4573  0.5825  4.4261
18664TIP3   OH277482   5.709   6.373  14.681 -0.7197  0.1447 -0.0308
18664TIP3    H177483   5.721   6.405  14.592  1.0694 -1.5873 -0.4372
18664TIP3    H277484   5.669   6.287  14.671  3.5374 -2.0683  0.5346
18665TIP3   OH277485   4.263   3.143   2.603 -0.8428  0.3444 -0.3310
18665TIP3    H177486   4.255   3.231   2.641  2.0175  0.3791  0.2840
18665TIP3    H277487   4.186   3.096   2.636 -0.8832  1.7733  1.7306
18666TIP3   OH277488   6.744   0.452  15.933 -0.2254 -0.1293 -0.2528
18666TIP3    H177489   6.670   0.406  15.974 -0.7482  1.4214  0.5825
18666TIP3    H277490   6.726   0.545  15.949  1.6181  0.2857 -0.5443
18667TIP3   OH277491   5.911   3.890   3.225 -0.4815  0.2918 -0.1697
18667TIP3    H177492   5.865   3.863   3.145 -0.4147 -0.5413  0.0638
18667TIP3    H277493   5.983   3.828   3.232 -0.2777  0.5894  0.3485
18668TIP3   OH277494   3.469   6.103   4.457  0.1916  0.1970  0.2196
18668TIP3    H177495   3.431   6.098   4.545 -0.9700  0.2911 -0.2669
18668TIP3    H277496   3.553   6.147   4.469 -0.3019  0.8927  1.1822
18669TIP3   OH277497   2.059   4.908   2.126  0.1345  0.0621 -0.3737
18669TIP3    H177498   1.992   4.947   2.183  0.0856 -0.6504  0.0560
18669TIP3    H277499   2.054   4.814   2.144 -0.4324 -0.2529 -2.1523
18670TIP3   OH277500   5.577   5.991  14.991  0.2720  0.3838 -0.1411
18670TIP3    H177501   5.583   6.073  15.040  0.4485  0.4123 -0.2110
18670TIP3    H277502   5.667   5.972  14.965  0.4782 -0.7349  1.3359
18671TIP3   OH277503   5.765   2.139  13.568  0.2269  0.6499  0.4549
18671TIP3    H177504   5.798   2.151  13.479  0.1586 -0.0184  0.3431
18671TIP3    H277505   5.671   2.154  13.561 -0.0380 -1.1672  0.0894
18672TIP3   OH277506   3.840   3.343  13.763 -0.0405 -0.4829  0.6619
18672TIP3    H177507   3.882   3.426  13.742  1.5462 -0.6479  3.1111
18672TIP3    H277508   3.758   3.368  13.807  0.5433 -0.2150  1.5984
18673TIP3   OH277509   5.587   0.182   2.158  0.8970  0.4963  0.5711
18673TIP3    H177510   5.518   0.243   2.184 -0.4122 -0.0722 -1.4610
18673TIP3    H277511   5.603   0.130   2.237 -2.1496 -0.4342  0.6421
18674TIP3   OH277512   5.021   6.315   1.839 -0.4273 -0.0309 -0.0362
18674TIP3    H177513   4.953   6.276   1.895 -2.8488  2.5665 -1.0565
18674TIP3    H277514   5.070   6.240   1.805 -1.9777 -1.8997  1.7543
18675TIP3   OH277515   3.565   5.953   1.270  0.1053  0.0861  1.1154
18675TIP3    H177516   3.583   5.909   1.187 -1.1944  0.6966  0.5033
18675TIP3    H277517   3.648   5.995   1.294  0.3717  0.2314 -0.0586
18676TIP3   OH277518   4.594   6.034   1.250 -0.5094 -0.0882  0.5963
18676TIP3    H177519   4.648   5.965   1.287  0.2990  0.6922  0.9024
18676TIP3    H277520   4.505   6.001   1.256 -0.1610 -0.9578  1.0460
18677TIP3   OH277521   3.336   4.437   1.153 -0.5226  0.2082  0.4196
18677TIP3    H177522   3.310   4.495   1.225  2.5244  3.6073 -1.0453
18677TIP3    H277523   3.423   4.406   1.178 -1.4657 -2.5848  0.4220
18678TIP3   OH277524   1.521   6.654   0.861 -0.1511  0.2534 -0.5261
18678TIP3    H177525   1.604   6.701   0.863  1.2415 -2.1232  1.0610
18678TIP3    H277526   1.544   6.565   0.833 -1.6282 -1.2739  2.7071
18679TIP3   OH277527   5.555   4.380   4.895 -0.3845  0.5876  0.0613
18679TIP3    H177528   5.620   4.382   4.965 -1.0228 -0.0283  0.6867
18679TIP3    H277529   5.592   4.433   4.825  0.1336  1.4585  0.9919
18680TIP3   OH277530   2.166   1.898   6.022 -0.5127 -0.0863  0.3343
18680TIP3    H177531   2.189   1.906   5.929  3.7235  1.1570  1.3757
18680TIP3    H277532   2.161   1.804   6.037  0.8366 -0.3626 -0.7626
18681TIP3   OH277533   0.971   1.129  12.706  0.1597 -0.1243 -0.5764
18681TIP3    H177534   1.029   1.061  12.670 -0.8664 -1.5888  0.4839
18681TIP3    H277535   1.029   1.186  12.756  0.9540 -0.5135 -1.0390
18682TIP3   OH277536   4.776   4.498  16.754 -0.3448  0.9236  0.0910
18682TIP3    H177537   4.688   4.534  16.743 -0.9022 -0.2800  0.4473
18682TIP3    H277538   4.783   4.432  16.685  0.5157  1.4473 -0.3281
18683TIP3   OH277539   3.999   2.792  12.293  0.3896  0.0571  0.0736
18683TIP3    H177540   4.012   2.886  12.299  0.9101  0.0718 -1.2424
18683TIP3    H277541   4.030   2.768  12.206 -0.2044 -1.2543  0.2008
18684TIP3   OH277542   2.496   5.071  16.017  0.3769 -0.3196 -0.2146
18684TIP3    H177543   2.402   5.078  16.028  0.5390 -0.0946  1.1511
18684TIP3    H277544   2.511   5.085  15.924 -0.6558  2.6663  0.0238
18685TIP3   OH277545   2.670   3.556  16.834 -0.4598 -0.4770  0.0653
18685TIP3    H177546   2.752   3.583  16.793 -0.1861 -1.2488  0.0920
18685TIP3    H277547   2.670   3.598  16.920 -0.9746  1.0464 -0.6628
18686TIP3   OH277548   0.103   3.844   0.199 -0.7838  0.8492 -0.1626
18686TIP3    H177549   0.112   3.777   0.267 -0.4749  0.6309 -0.4217
18686TIP3    H277550   0.084   3.795   0.119 -0.5852  1.0709 -0.3453
18687TIP3   OH277551   6.805   0.675  11.826  0.4730 -0.1126  0.3392
18687TIP3    H177552   6.762   0.730  11.761  1.7363 -0.2394 -0.6115
18687TIP3    H277553   6.821   0.592  11.781  0.2965 -0.6110  1.1771
18688TIP3   OH277554   0.656   1.119  15.394  0.1566 -0.3886  0.4868
18688TIP3    H177555   0.684   1.165  15.473  0.9736 -1.2725  0.7219
18688TIP3    H277556   0.719   1.048  15.385 -0.1424 -0.4916 -0.7749
18689TIP3   OH277557   4.974   6.671   2.290 -0.1785  0.0385 -0.1523
18689TIP3    H177558   5.022   6.635   2.363 -0.9241 -0.9907 -0.1584
18689TIP3    H277559   4.961   6.597   2.230 -0.9951  0.4932 -0.5513
18690TIP3   OH277560   3.069   1.729   2.785  0.5521 -0.0518 -0.0548
18690TIP3    H177561   3.089   1.722   2.878  0.5961 -0.3670 -0.0867
18690TIP3    H277562   3.000   1.664   2.770 -0.4809  1.0187  0.0494
18691TIP3   OH277563   6.107   3.602  16.808  0.3019 -0.4848 -0.5436
18691TIP3    H177564   6.153   3.598  16.892 -1.3514  0.1638  0.4278
18691TIP3    H277565   6.018   3.571  16.828 -0.8038  1.8837 -1.5183
18692TIP3   OH277566   1.363   4.950  15.652 -0.0278  0.6479 -0.2218
18692TIP3    H177567   1.377   4.861  15.686 -0.2812  0.9062  0.5690
18692TIP3    H277568   1.426   5.004  15.700  0.7970  0.7510 -1.3927
18693TIP3   OH277569   2.871   3.846   5.461  0.4229 -0.6568 -0.5081
18693TIP3    H177570   2.911   3.878   5.542  0.0297 -2.6747  0.5197
18693TIP3    H277571   2.944   3.842   5.399  0.6021  1.5349 -0.4933
18694TIP3   OH277572   5.268   2.725  11.657  0.7815 -0.0682  0.3863
18694TIP3    H177573   5.345   2.723  11.712  2.6492  2.9545 -1.9277
18694TIP3    H277574   5.300   2.703  11.569 -0.8008  1.9141 -0.7439
18695TIP3   OH277575   3.922   5.452   3.064 -0.1625  0.3725 -0.0562
18695TIP3    H177576   3.932   5.522   2.999 -0.7162  2.4478  2.0367
18695TIP3    H277577   3.828   5.447   3.079 -0.1023 -0.6825 -0.0228
18696TIP3   OH277578   3.199   5.164  12.861  0.1124 -0.0457  0.0951
18696TIP3    H177579   3.161   5.180  12.948  1.4522  0.2536  0.6325
18696TIP3    H277580   3.130   5.190  12.800 -0.8604 -0.3089  1.0738
18697TIP3   OH277581   3.653   2.975  14.974 -0.5658  0.0650 -0.3291
18697TIP3    H177582   3.656   3.011  15.063 -1.0455 -1.1506  0.1907
18697TIP3    H277583   3.694   3.042  14.920 -0.9059  1.1277  0.7041
18698TIP3   OH277584   2.396   5.625  14.006 -0.3632  0.3959  0.2774
18698TIP3    H177585   2.416   5.692  13.941 -0.6790 -0.2637 -0.5158
18698TIP3    H277586   2.408   5.542  13.960 -2.2045 -0.0597  0.5694
18699TIP3   OH277587   2.127   2.019   5.309  0.5854 -0.3976  0.4588
18699TIP3    H177588   2.089   2.103   5.285 -0.3461 -0.8966  0.1949
18699TIP3    H277589   2.052   1.961   5.324  1.2033 -0.9431  1.4941
18700TIP3   OH277590   1.531   5.774  14.580  0.1854 -0.0939  0.4443
18700TIP3    H177591   1.535   5.689  14.535 -0.8822 -0.2172  0.5709
18700TIP3    H277592   1.602   5.825  14.541  0.4862 -0.8621 -0.0237
18701TIP3   OH277593   0.912   5.374  17.230 -0.7136  0.1673 -0.2388
18701TIP3    H177594   0.867   5.440  17.177  0.1656  1.1335  0.1881
18701TIP3    H277595   0.988   5.350  17.177 -0.4670  0.2684  0.0714
18702TIP3   OH277596   3.701   0.618   4.016  0.1186 -0.2706  0.1661
18702TIP3    H177597   3.712   0.687   3.951  1.6988  0.3511  1.0753
18702TIP3    H277598   3.750   0.544   3.981  0.2850 -0.2050  0.2612
18703TIP3   OH277599   5.055   0.716   5.732 -0.1613  0.2123  0.5149
18703TIP3    H177600   5.054   0.700   5.637  0.7113  0.1905  0.5133
18703TIP3    H277601   5.132   0.771   5.747  1.3816 -2.1799  1.6054
18704TIP3   OH277602   2.884   1.957   0.727  0.0274  0.3952  0.0956
18704TIP3    H177603   2.959   2.017   0.720  0.3197 -0.0272 -0.4854
18704TIP3    H277604   2.837   1.967   0.644  0.1060 -0.2100 -0.0279
18705TIP3   OH277605   0.631   3.904   5.296 -1.0223  0.2168 -0.5844
18705TIP3    H177606   0.544   3.917   5.333 -1.5276  2.4609 -2.4168
18705TIP3    H277607   0.689   3.954   5.354 -1.1602  0.0070 -0.2610
18706TIP3   OH277608   4.946   4.352   0.152  0.3322 -0.6396 -0.2099
18706TIP3    H177609   4.869   4.405   0.169  0.4171 -0.3273 -0.8019
18706TIP3    H277610   4.990   4.344   0.237 -0.8638 -1.6322  0.3280
18707TIP3   OH277611   5.864   4.625  14.132 -0.0081  0.1233 -0.2692
18707TIP3    H177612   5.909   4.630  14.047  0.1006  0.8171 -0.1786
18707TIP3    H277613   5.804   4.552  14.123  2.0391 -1.6338  0.0536
18708TIP3   OH277614   5.688   4.808   2.790 -0.5776  0.1869 -0.5219
18708TIP3    H177615   5.599   4.781   2.769 -1.0917  0.6232  0.9738
18708TIP3    H277616   5.742   4.731   2.774 -1.1277  0.1085 -2.0447
18709TIP3   OH277617   3.932   0.141  15.762  0.2118  0.3220 -1.0832
18709TIP3    H177618   3.889   0.216  15.804  2.6398  0.6712  0.9108
18709TIP3    H277619   3.977   0.178  15.687 -1.6560  0.1920 -2.3141
18710TIP3   OH277620   2.004   6.480  16.665  0.0719  0.0338 -0.5022
18710TIP3    H177621   2.038   6.568  16.679 -1.5801  0.2808  2.5263
18710TIP3    H277622   2.079   6.429  16.635  1.8627  1.7020  1.0347
18711TIP3   OH277623   4.137   5.167  15.138  0.4006  0.1582  0.2965
18711TIP3    H177624   4.162   5.183  15.047  1.9987 -2.4840  0.2066
18711TIP3    H277625   4.086   5.244  15.163  2.0243  2.0765 -2.0502
18712TIP3   OH277626   4.666   0.812  10.797  0.0762  0.0635 -0.3907
18712TIP3    H177627   4.594   0.770  10.845  0.7332 -0.1442  0.4214
18712TIP3    H277628   4.625   0.886  10.752 -0.4508  0.5619  0.8910
18713TIP3   OH277629   5.660   3.983   1.867 -0.0435 -0.2919 -0.6592
18713TIP3    H177630   5.692   3.933   1.792  1.6976  0.8328 -0.7061
18713TIP3    H277631   5.619   3.917   1.923  0.7493 -1.5245 -1.4876
18714TIP3   OH277632   4.176   4.654  14.216 -0.0443  0.0291 -0.1745
18714TIP3    H177633   4.192   4.734  14.267 -1.0748  0.9524 -1.2965
18714TIP3    H277634   4.082   4.652  14.202  0.3482  0.4387 -3.0971
18715TIP3   OH277635   5.035   1.549  12.680  0.0111 -0.2025 -0.0143
18715TIP3    H177636   4.976   1.478  12.658 -0.5140  0.3041 -0.2652
18715TIP3    H277637   5.065   1.529  12.769 -2.2386  0.6608  0.9669
18716TIP3   OH277638   2.064   2.654  15.487 -0.0076 -0.2273  0.2856
18716TIP3    H177639   2.017   2.737  15.488 -1.0853 -0.8010 -0.6990
18716TIP3    H277640   2.109   2.651  15.571 -1.5793  0.4504  1.1842
18717TIP3   OH277641   2.961   2.825   5.475 -0.0230  0.7663 -0.0757
18717TIP3    H177642   3.009   2.750   5.510 -0.1639  0.4911 -0.4692
18717TIP3    H277643   2.871   2.795   5.469  0.1538  0.5024 -1.5420
18718TIP3   OH277644   0.108   3.881  11.305  0.0600  0.5574 -0.0363
18718TIP3    H177645   0.184   3.934  11.327 -0.1386  0.8570 -0.0635
18718TIP3    H277646   0.119   3.800  11.354  0.0382  0.8857  0.5081
18719TIP3   OH277647   5.134   5.201   0.193  0.0870 -0.3990 -0.4506
18719TIP3    H177648   5.085   5.193   0.275 -1.8113 -1.2004 -1.6218
18719TIP3    H277649   5.177   5.286   0.199  0.3391 -0.6304  1.5547
18720TIP3   OH277650   4.452   2.167   3.322 -0.2280 -0.5377  0.3696
18720TIP3    H177651   4.518   2.146   3.256  1.9162 -1.1801  2.6618
18720TIP3    H277652   4.464   2.261   3.338  0.5318 -0.7653  1.1816
18721TIP3   OH277653   2.250   4.326  12.281  0.2560 -0.3287 -0.5013
18721TIP3    H177654   2.313   4.370  12.223  0.1830  1.7932  0.9914
18721TIP3    H277655   2.169   4.376  12.272 -0.5379 -1.6086 -0.5851
18722TIP3   OH277656   5.143   2.163  14.073 -0.1125  0.1505 -0.1024
18722TIP3    H177657   5.169   2.188  13.984 -1.1971  0.4896 -0.3293
18722TIP3    H277658   5.048   2.155  14.069 -0.1805  0.2754  1.0627
18723TIP3   OH277659   0.248   5.192  16.741 -0.3611  0.5733  0.1414
18723TIP3    H177660   0.304   5.269  16.726 -1.4053  1.6435  1.6783
18723TIP3    H277661   0.299   5.119  16.705  0.8076  1.9150 -1.0112
18724TIP3   OH277662   1.016   4.337   1.898 -0.1096 -0.0326 -0.1330
18724TIP3    H177663   1.051   4.293   1.975  0.2133 -0.3155 -0.4363
18724TIP3    H277664   1.079   4.318   1.829 -0.7585 -0.3794 -0.6389
18725TIP3   OH277665   2.322   2.225   4.521  0.3296 -0.1412  0.1776
18725TIP3    H177666   2.313   2.146   4.575  0.9271 -1.2021 -1.2479
18725TIP3    H277667   2.234   2.240   4.487  0.3287 -0.5104  0.0154
18726TIP3   OH277668   4.184   4.233   1.911 -0.1526  0.1693  0.1647
18726TIP3    H177669   4.235   4.159   1.878  0.5278  1.3609 -1.5254
18726TIP3    H277670   4.150   4.275   1.832 -2.9980 -0.0481  1.2272
18727TIP3   OH277671   0.874   0.285  11.887  0.7426  0.0028  0.7220
18727TIP3    H177672   0.834   0.369  11.862 -1.1257 -1.2651 -0.7253
18727TIP3    H277673   0.967   0.295  11.865  0.1404  0.9497 -1.4996
18728TIP3   OH277674   4.352   4.131  11.312 -0.4536  0.3458 -0.1107
18728TIP3    H177675   4.440   4.093  11.315 -0.3989  0.4965  0.1985
18728TIP3    H277676   4.297   4.060  11.279 -0.0210  0.6313 -1.4800
18729TIP3   OH277677   0.019   0.366   0.941 -0.0801 -0.1448 -0.5888
18729TIP3    H177678   0.069   0.303   0.890  0.9311 -0.0680  0.2800
18729TIP3    H277679  -0.028   0.313   1.005 -0.7445 -0.1751 -1.0962
18730TIP3   OH277680   3.709   4.208  15.520  0.2475 -0.7491 -0.1018
18730TIP3    H177681   3.660   4.223  15.439 -1.1256 -0.3669  0.7810
18730TIP3    H277682   3.642   4.185  15.585  1.0877  0.9056  1.4074
18731TIP3   OH277683   0.080   1.021   4.254  0.9346 -0.3770 -0.0188
18731TIP3    H177684   0.043   1.093   4.204  2.5885  0.8047  0.3951
18731TIP3    H277685   0.085   1.054   4.344  1.4575 -1.0889  0.2210
18732TIP3   OH277686   1.210   5.268  14.123  0.3411 -0.3860 -0.2732
18732TIP3    H177687   1.213   5.359  14.092  0.4423 -0.2609  0.0941
18732TIP3    H277688   1.301   5.242  14.130  0.3025 -0.6713 -0.8180
18733TIP3   OH277689   3.808   6.780  10.855 -0.0651 -0.2238  0.1398
18733TIP3    H177690   3.770   6.858  10.814  0.7229  0.6370  1.0164
18733TIP3    H277691   3.773   6.707  10.804 -0.2912  0.7323 -1.1143
18734TIP3   OH277692   1.318   0.216  16.813  0.3063  0.2256  0.5375
18734TIP3    H177693   1.391   0.189  16.758 -0.4673 -1.6253  0.3643
18734TIP3    H277694   1.307   0.309  16.795 -0.0528 -0.3649 -2.6192
18735TIP3   OH277695   6.458   3.760  13.254  0.3450  0.0472 -0.3021
18735TIP3    H177696   6.394   3.821  13.290 -0.2404 -1.9062  2.0730
18735TIP3    H277697   6.530   3.762  13.316  0.7884 -0.9016 -0.7788
18736TIP3   OH277698   2.430   2.083  14.527  0.5894 -0.0161  0.2072
18736TIP3    H177699   2.365   2.054  14.592 -0.5031  1.6549 -0.1182
18736TIP3    H277700   2.414   2.027  14.451  0.0745 -0.1634  0.4237
18737TIP3   OH277701   2.727   0.548   5.288 -0.0180  0.4270  0.5306
18737TIP3    H177702   2.667   0.499   5.232  0.4876 -0.0781  0.4271
18737TIP3    H277703   2.682   0.631   5.304 -0.9295 -0.1044  0.7899
18738TIP3   OH277704   0.586   5.780   5.862 -0.8431  0.0975  0.0250
18738TIP3    H177705   0.562   5.786   5.769 -1.4403  0.3601  0.1901
18738TIP3    H277706   0.567   5.867   5.897  0.8168  0.4610  0.0721
18739TIP3   OH277707   4.218   1.688  13.883 -0.2398  0.2370 -0.2209
18739TIP3    H177708   4.313   1.689  13.872 -0.1374 -0.6462  0.5474
18739TIP3    H277709   4.193   1.597  13.871 -0.9152  0.3638  0.2002
18740TIP3   OH277710   3.554   5.977   4.876  0.9543  0.2166  0.3517
18740TIP3    H177711   3.598   6.005   4.796  3.8337 -2.3842  0.9057
18740TIP3    H277712   3.607   6.014   4.946 -0.4395  0.8794  1.0673
18741TIP3   OH277713   2.719   2.799   6.142 -0.5202 -0.5483  0.3380
18741TIP3    H177714   2.796   2.854   6.133 -1.0794  0.0438 -1.0042
18741TIP3    H277715   2.724   2.764   6.231 -0.1228  1.6265  1.1860
18742TIP3   OH277716   4.615   5.639   1.962 -0.1076 -0.3213  0.3981
18742TIP3    H177717   4.540   5.580   1.964  0.8389 -1.5180  1.5177
18742TIP3    H277718   4.583   5.717   1.917 -1.3362 -1.7448 -1.2806
18743TIP3   OH277719   6.250   0.589   2.594 -0.0963  0.0677 -0.2203
18743TIP3    H177720   6.229   0.678   2.620 -1.0812 -0.3652  0.4853
18743TIP3    H277721   6.344   0.591   2.575  0.2044  0.8841  1.3011
18744TIP3   OH277722   5.762   5.632  14.768 -0.2937  0.2008 -0.6453
18744TIP3    H177723   5.828   5.661  14.831  0.3060 -1.3720 -0.5267
18744TIP3    H277724   5.808   5.571  14.711 -1.5249 -0.5173 -0.8834
18745TIP3   OH277725   1.640   3.239  13.241  0.0064  0.1500  0.6324
18745TIP3    H177726   1.555   3.281  13.228 -0.5658 -1.4614 -1.2427
18745TIP3    H277727   1.699   3.286  13.183 -0.4380 -1.0160 -0.7991
18746TIP3   OH277728   3.279   3.398   5.092 -0.2696  0.4215 -0.0688
18746TIP3    H177729   3.327   3.329   5.047  0.0203  1.8028 -1.9934
18746TIP3    H277730   3.292   3.381   5.185  1.5828 -0.8507 -0.5429
18747TIP3   OH277731   5.714   3.082   5.539  0.3419 -0.2621 -0.4331
18747TIP3    H177732   5.725   2.993   5.508  0.8432 -0.0125 -0.9747
18747TIP3    H277733   5.702   3.073   5.633  2.0687 -0.7754 -0.2462
18748TIP3   OH277734   2.084   0.744   3.029  0.0379 -0.6404  0.0322
18748TIP3    H177735   2.132   0.807   2.974  0.1424  1.1206  2.0569
18748TIP3    H277736   1.992   0.767   3.018  0.1708  1.1232  2.1499
18749TIP3   OH277737   5.823   4.829  13.257 -0.5519  0.2602 -0.2831
18749TIP3    H177738   5.827   4.758  13.193 -0.3074 -0.0045  0.0258
18749TIP3    H277739   5.915   4.851  13.274 -0.6129  0.2524  0.0614
18750TIP3   OH277740   4.395   6.735  14.538 -0.1433  0.1945  0.0974
18750TIP3    H177741   4.429   6.672  14.474 -2.1780  1.2452 -2.0984
18750TIP3    H277742   4.453   6.810  14.531 -0.5092  0.4080 -0.7449
18751TIP3   OH277743   6.316   6.101  12.148 -0.3138 -0.0254 -0.5277
18751TIP3    H177744   6.400   6.071  12.114  0.9395  0.1518  2.2296
18751TIP3    H277745   6.299   6.183  12.102  1.7431  0.6646 -0.1101
18752TIP3   OH277746   6.422   0.706   0.026 -0.1934  0.2176  0.5629
18752TIP3    H177747   6.420   0.713  -0.069 -2.0381 -1.3755  0.4345
18752TIP3    H277748   6.330   0.709   0.052  0.2774  0.3987  2.2813
18753TIP3   OH277749   4.213   3.736  12.248 -0.5929  0.3735 -0.0186
18753TIP3    H177750   4.171   3.810  12.292 -0.6761  0.9795 -1.0973
18753TIP3    H277751   4.306   3.756  12.252 -0.4554 -0.5544  1.6307
18754TIP3   OH277752   2.590   0.702  14.675 -0.1394 -0.2293  0.0440
18754TIP3    H177753   2.656   0.738  14.616 -0.1355 -0.9109 -0.3829
18754TIP3    H277754   2.507   0.713  14.627 -0.2514  0.0399  0.2991
18755TIP3   OH277755   4.187   1.411   1.095  0.1577 -0.1839  0.2099
18755TIP3    H177756   4.234   1.333   1.064 -0.6791 -0.1861 -1.0902
18755TIP3    H277757   4.095   1.389   1.083 -0.0874  0.9265  0.0475
18756TIP3   OH277758   3.430   1.993   0.101  0.1354  0.7839  0.3674
18756TIP3    H177759   3.445   2.058   0.033 -0.0895 -0.7110 -1.1574
18756TIP3    H277760   3.501   1.930   0.091  0.1960  0.6369  1.6335
18757TIP3   OH277761   0.205   1.648  16.931 -0.2023 -0.2905  0.2149
18757TIP3    H177762   0.159   1.578  16.886  0.3640 -1.4200  1.3430
18757TIP3    H277763   0.135   1.700  16.972 -0.7477  1.0668 -2.3471
18758TIP3   OH277764   3.421   2.440   3.591 -0.4310 -0.3052 -0.2703
18758TIP3    H177765   3.373   2.437   3.509 -0.4527  0.5944 -0.2865
18758TIP3    H277766   3.356   2.414   3.657 -0.5722 -0.4258 -0.4539
18759TIP3   OH277767   2.344   1.311  15.854  0.1553  0.2484  0.0188
18759TIP3    H177768   2.265   1.335  15.904  0.2921 -0.1412  0.4299
18759TIP3    H277769   2.372   1.228  15.894  0.1618 -0.1612 -0.8293
18760TIP3   OH277770   0.944   2.643  14.138  0.3008  0.3202 -0.7150
18760TIP3    H177771   1.000   2.718  14.120  0.4418 -0.0273 -1.7772
18760TIP3    H277772   0.861   2.681  14.165  0.0731  0.8743 -2.1620
18761TIP3   OH277773   6.103   6.731   3.632  0.1771 -0.0526  0.5019
18761TIP3    H177774   6.047   6.707   3.558  0.3586  2.4034 -0.4951
18761TIP3    H277775   6.190   6.701   3.607  0.0368 -0.2238  0.2202
18762TIP3   OH277776   1.430   2.661  12.379  0.2945 -0.6466  0.5576
18762TIP3    H177777   1.507   2.675  12.435  0.1514 -2.0388  1.1119
18762TIP3    H277778   1.423   2.742  12.328  2.2105 -0.5541  0.3932
18763TIP3   OH277779   5.334   2.553  14.337  0.3482 -0.7418  0.1876
18763TIP3    H177780   5.365   2.468  14.369  0.2667 -1.0523 -0.5568
18763TIP3    H277781   5.352   2.551  14.243 -1.6624 -0.8304 -0.2124
18764TIP3   OH277782   0.673   0.139   6.938 -0.0123  0.1130  0.0980
18764TIP3    H177783   0.615   0.069   6.909  0.3268  0.3941 -1.3096
18764TIP3    H277784   0.726   0.100   7.007 -1.1662 -0.4450  0.6732
18765TIP3   OH277785   6.818   0.215  13.249 -0.1570 -0.2582  0.1768
18765TIP3    H177786   6.758   0.201  13.176 -0.1703 -1.9266  0.4894
18765TIP3    H277787   6.861   0.130  13.261  1.9901  0.8046  0.2059
18766TIP3   OH277788   0.404   2.945  11.643 -0.1615 -0.0339 -0.0552
18766TIP3    H177789   0.439   3.011  11.703 -1.8198  0.6448  0.1890
18766TIP3    H277790   0.333   2.903  11.692 -1.0681  0.0554 -1.2776
18767TIP3   OH277791   6.160   2.517  13.012  0.5476  0.1592 -0.1028
18767TIP3    H177792   6.084   2.483  13.058 -0.6681 -0.6748 -2.6725
18767TIP3    H277793   6.126   2.586  12.955  1.7137 -0.2419 -1.3099
18768TIP3   OH277794   4.890   5.682   2.453 -0.2361  0.6001 -0.3405
18768TIP3    H177795   4.840   5.639   2.384  0.4396  0.3372 -0.6740
18768TIP3    H277796   4.913   5.768   2.417  1.7696 -0.2707 -1.2148
18769TIP3   OH277797   1.224   3.512  15.427 -0.7489  0.1790 -0.1327
18769TIP3    H177798   1.250   3.422  15.445 -0.3336  0.3420  0.0988
18769TIP3    H277799   1.170   3.537  15.502 -1.6046 -0.1706 -0.6300
18770TIP3   OH277800   1.845   0.524   5.307  0.2242  0.1185 -0.5523
18770TIP3    H177801   1.855   0.480   5.392  0.4448  1.9039  0.3672
18770TIP3    H277802   1.770   0.582   5.319  0.3132  0.4548 -1.5660
18771TIP3   OH277803   6.515   5.704   4.734 -0.7408  0.7107 -0.1400
18771TIP3    H177804   6.569   5.679   4.809  0.4698  0.9806 -0.8953
18771TIP3    H277805   6.430   5.726   4.771 -0.6994 -0.9094  0.9453
18772TIP3   OH277806   6.178   5.293   5.026 -0.3189  0.2520  0.6539
18772TIP3    H177807   6.274   5.297   5.033 -0.2389 -2.2939  1.6577
18772TIP3    H277808   6.163   5.237   4.949 -0.9584 -1.6410  2.1321
18773TIP3   OH277809   5.721   0.370  17.160  0.4077  0.9637  0.4076
18773TIP3    H177810   5.816   0.364  17.166  0.3686  0.1629  0.1834
18773TIP3    H277811   5.693   0.392  17.249  0.5468 -2.0496  1.2550
18774TIP3   OH277812   3.636   3.846  11.927  0.2094  0.3887  0.0182
18774TIP3    H177813   3.702   3.781  11.904 -0.5026 -0.2449 -0.2534
18774TIP3    H277814   3.681   3.906  11.988  1.2581  0.4376 -0.7939
18775TIP3   OH277815   2.670   0.572   1.501 -0.1128 -0.3008  0.0481
18775TIP3    H177816   2.629   0.658   1.498  0.0656 -0.2583 -2.6308
18775TIP3    H277817   2.623   0.521   1.434  0.2076 -2.0959  1.1527
18776TIP3   OH277818   5.877   2.288  14.855  0.1691  0.2927 -0.1474
18776TIP3    H177819   5.832   2.370  14.876 -1.2343 -0.4418 -0.2445
18776TIP3    H277820   5.938   2.275  14.927  0.0835  1.2064  0.0938
18777TIP3   OH277821   3.191   4.915  10.817  0.2640  0.0069 -0.2355
18777TIP3    H177822   3.194   4.819  10.809  0.0125 -0.1110  0.9947
18777TIP3    H277823   3.215   4.947  10.730  1.3102 -1.1658 -0.3933
18778TIP3   OH277824   1.102   0.595  11.536  0.1379 -0.1070 -0.2400
18778TIP3    H177825   1.164   0.619  11.467  0.9249 -2.5720 -0.4526
18778TIP3    H277826   1.049   0.525  11.498 -1.5048  0.6344  0.6157
18779TIP3   OH277827   2.358   0.438   2.654 -0.1370 -0.2182 -0.5659
18779TIP3    H177828   2.307   0.479   2.724  0.3690  0.1234 -0.3985
18779TIP3    H277829   2.341   0.492   2.577 -0.5567 -0.4942 -0.6713
18780TIP3   OH277830   2.838   6.566  17.285  0.1058 -0.0447 -0.1068
18780TIP3    H177831   2.746   6.590  17.285 -0.2314 -1.3020  0.0444
18780TIP3    H277832   2.885   6.650  17.283 -1.0308  0.5836 -0.6050
18781TIP3   OH277833   0.478   4.345   1.083 -0.5457  0.5309 -0.2678
18781TIP3    H177834   0.521   4.427   1.106 -0.5941  0.8264 -1.2227
18781TIP3    H277835   0.530   4.278   1.128 -0.3873  1.0616  0.3508
18782TIP3   OH277836   6.272   5.243   2.818 -0.0387  0.0815  0.2983
18782TIP3    H177837   6.335   5.314   2.826  1.3861 -1.1447  0.1717
18782TIP3    H277838   6.229   5.239   2.903 -0.2548  1.2068  0.2420
18783TIP3   OH277839   0.903   4.270   2.177 -0.0766  0.1463 -0.0274
18783TIP3    H177840   0.974   4.205   2.171  0.6054  0.7721  1.0726
18783TIP3    H277841   0.826   4.220   2.203 -0.2608 -0.6814 -2.0571
18784TIP3   OH277842   5.114   3.370  13.020 -0.2510  0.5250  0.8691
18784TIP3    H177843   5.100   3.465  13.021 -0.3119  0.5138  1.1686
18784TIP3    H277844   5.204   3.358  13.049  1.2799  0.7351 -3.4224
18785TIP3   OH277845   3.154   6.275   0.638  0.4633 -0.2241  0.2669
18785TIP3    H177846   3.216   6.334   0.681  0.9169 -0.8580  0.4859
18785TIP3    H277847   3.113   6.329   0.570  1.7093  0.0227 -0.3001
18786TIP3   OH277848   3.284   5.149   5.722 -0.1036  0.5716 -0.3711
18786TIP3    H177849   3.234   5.227   5.698 -1.6201 -0.4181 -0.5121
18786TIP3    H277850   3.222   5.077   5.710  1.4371 -0.7069 -0.7553
18787TIP3   OH277851   5.653   3.183  15.646  0.2297  0.2568 -0.8260
18787TIP3    H177852   5.640   3.224  15.561 -0.9673  0.9390 -0.3258
18787TIP3    H277853   5.681   3.254  15.704 -1.0463  0.2529 -0.1572
18788TIP3   OH277854   2.902   2.738  12.425  0.0583 -0.5871 -0.0802
18788TIP3    H177855   2.977   2.798  12.423  2.3203 -3.3199 -2.9071
18788TIP3    H277856   2.844   2.771  12.356  0.0582 -0.1568  0.1218
18789TIP3   OH277857   4.778   5.806  16.120  0.4182  0.0002  0.5545
18789TIP3    H177858   4.684   5.804  16.137  0.0626  0.7676 -1.2156
18789TIP3    H277859   4.804   5.714  16.120 -0.6399 -0.3093 -0.5523
18790TIP3   OH277860   4.263   4.791   5.089  0.2976  0.4279 -0.5751
18790TIP3    H177861   4.304   4.734   5.024 -1.4153 -1.7378  0.1809
18790TIP3    H277862   4.245   4.734   5.164 -0.4600  2.2123  0.6465
18791TIP3   OH277863   3.927   4.786   2.283 -0.5393  0.3014  0.1142
18791TIP3    H177864   4.001   4.782   2.222 -0.8037 -0.1226 -0.1874
18791TIP3    H277865   3.964   4.816   2.365 -0.3305  1.7616 -0.5042
18792TIP3   OH277866   3.791   2.873  16.799 -0.3301  0.4317  0.0766
18792TIP3    H177867   3.844   2.938  16.753  0.0481  1.3273  1.7503
18792TIP3    H277868   3.836   2.790  16.783 -1.4956  0.3373 -3.1186
18793TIP3   OH277869   4.863   1.239   3.636  0.0469 -0.1919 -0.8591
18793TIP3    H177870   4.934   1.188   3.596 -0.5575 -0.1500 -2.0083
18793TIP3    H277871   4.783   1.203   3.597 -0.6988 -1.3429  1.6445
18794TIP3   OH277872   0.094   5.816   2.049  0.5167 -0.4360 -0.4424
18794TIP3    H177873   0.074   5.729   2.015  1.9640 -1.1987  0.6049
18794TIP3    H277874   0.177   5.806   2.095  0.0671  1.2070  0.8096
18795TIP3   OH277875   3.203   5.990   0.581 -0.0326 -0.3606 -0.0463
18795TIP3    H177876   3.144   5.943   0.523 -1.2757  1.2749 -0.1310
18795TIP3    H277877   3.160   6.074   0.597  1.2980  0.0470  1.5354
18796TIP3   OH277878   2.612   4.537   4.340  0.8152  1.2698  0.3088
18796TIP3    H177879   2.645   4.474   4.275 -0.0258  0.3399  0.7698
18796TIP3    H277880   2.648   4.506   4.423  0.6461  1.5744  0.4931
18797TIP3   OH277881   6.246   4.947  15.005  1.0028 -0.0637  0.1886
18797TIP3    H177882   6.161   4.989  15.022  1.1385  0.5160 -0.5442
18797TIP3    H277883   6.310   5.010  15.035  1.1739 -0.7101  1.1999
18798TIP3   OH277884   1.479   3.032  11.742 -0.0402 -0.0028 -0.0662
18798TIP3    H177885   1.507   3.122  11.758 -0.1166 -0.0159  0.1494
18798TIP3    H277886   1.550   2.993  11.692  0.9166 -0.4163  1.5763
18799TIP3   OH277887   0.981   2.181  16.457  0.0122 -0.4826  0.6665
18799TIP3    H177888   0.949   2.238  16.527 -1.3901  1.0103 -1.1359
18799TIP3    H277889   0.964   2.230  16.376  2.1395 -1.8966 -0.7114
18800TIP3   OH277890   0.764   5.814  14.366  0.2188 -0.5386 -0.4171
18800TIP3    H177891   0.778   5.749  14.435  0.3395 -0.1534 -0.0743
18800TIP3    H277892   0.787   5.769  14.285 -2.0310 -1.6871 -0.4416
18801TIP3   OH277893   0.999   4.788  17.269 -0.3073  0.4568 -0.3096
18801TIP3    H177894   0.907   4.777  17.295 -1.1917 -1.7961 -4.0144
18801TIP3    H277895   0.999   4.865  17.213  0.2181  0.8378  0.2052
18802TIP3   OH277896   2.812   5.561  16.690 -0.0288 -0.0741 -0.0570
18802TIP3    H177897   2.721   5.577  16.715 -0.2039  0.8478 -1.2360
18802TIP3    H277898   2.857   5.544  16.773 -1.3467 -0.9363  0.4874
18803TIP3   OH277899   1.562   6.562  14.589  0.2496 -0.2603  0.7204
18803TIP3    H177900   1.521   6.627  14.531 -2.0904 -2.3722 -0.0522
18803TIP3    H277901   1.613   6.506  14.530  1.1688  0.0407  1.2219
18804TIP3   OH277902   4.610   2.451  10.882 -0.3623 -0.3064 -0.2005
18804TIP3    H177903   4.610   2.421  10.972  0.1463 -0.1668 -0.1568
18804TIP3    H277904   4.529   2.414  10.845 -0.5464 -0.4010  0.2922
18805TIP3   OH277905   5.790   3.017  11.982 -0.7211  0.1624  0.5493
18805TIP3    H177906   5.789   3.112  11.984 -2.0091  0.1674  0.3796
18805TIP3    H277907   5.879   2.993  12.008 -0.2834  1.4097  0.2326
18806TIP3   OH277908   6.070   0.181   3.404 -0.3370  0.0110  0.3104
18806TIP3    H177909   6.021   0.263   3.392 -1.1323 -0.3793  0.8480
18806TIP3    H277910   6.027   0.119   3.346  0.2433 -0.0381 -0.0669
18807TIP3   OH277911   2.844   6.012   3.620  0.1488 -0.4717 -0.4116
18807TIP3    H177912   2.827   5.967   3.537  0.6466 -1.4176 -0.0008
18807TIP3    H277913   2.922   5.969   3.655 -0.3734 -0.4328  0.8132
18808TIP3   OH277914   4.827   0.705   3.586 -0.2786  0.4284  0.4028
18808TIP3    H177915   4.883   0.708   3.664  1.0508  0.1335 -0.5162
18808TIP3    H277916   4.869   0.767   3.525  0.8707 -2.1268 -1.4653
18809TIP3   OH277917   0.733   2.410  14.384 -0.5908  0.5351  0.1257
18809TIP3    H177918   0.771   2.376  14.303 -1.7044 -0.4240 -0.0093
18809TIP3    H277919   0.801   2.468  14.420 -0.1605  1.1101 -1.5709
18810TIP3   OH277920   0.897   2.119   2.980 -0.5038 -0.8965 -0.1687
18810TIP3    H177921   0.815   2.159   3.010  0.7902  1.7725 -0.0503
18810TIP3    H277922   0.963   2.187   2.993  2.1283 -3.6863  1.6464
18811TIP3   OH277923   5.823   0.811   5.308 -0.6176 -0.3176 -0.1847
18811TIP3    H177924   5.790   0.834   5.221 -0.8057  0.9008  0.1973
18811TIP3    H277925   5.745   0.799   5.362 -0.4972  2.4354  0.6855
18812TIP3   OH277926   2.671   1.885  11.044  0.1132  0.4115  0.0033
18812TIP3    H177927   2.617   1.815  11.007 -0.1949  0.7649 -0.2208
18812TIP3    H277928   2.626   1.909  11.125  0.3094  0.2384  0.1645
18813TIP3   OH277929   1.543   6.626  15.026 -0.2780 -0.6553 -0.0660
18813TIP3    H177930   1.500   6.636  14.941 -1.4223  0.7126  0.6421
18813TIP3    H277931   1.472   6.597  15.085 -0.2047  1.3561  1.0579
18814TIP3   OH277932   4.772   0.152  14.036  0.5732  0.2959 -0.6760
18814TIP3    H177933   4.680   0.150  14.008  0.0943 -1.4942  0.8630
18814TIP3    H277934   4.817   0.205  13.970 -1.4230  0.5202 -1.8902
18815TIP3   OH277935   3.101   5.715   2.102  0.5052  0.1662  0.0449
18815TIP3    H177936   3.086   5.623   2.080 -2.6248  1.0154 -1.8105
18815TIP3    H277937   3.150   5.749   2.027 -1.8291  0.8690 -1.2182
18816TIP3   OH277938   4.993   0.800   4.945  0.1157  0.1646 -0.1291
18816TIP3    H177939   5.004   0.816   5.039  0.8292 -1.0414 -0.0019
18816TIP3    H277940   5.030   0.878   4.903  1.9862 -0.3340  0.5314
18817TIP3   OH277941   3.014   2.762  11.330 -0.0286 -0.4273 -0.6687
18817TIP3    H177942   2.928   2.797  11.306 -0.6195 -1.4097  0.0094
18817TIP3    H277943   3.045   2.720  11.250 -1.2301 -2.1511 -0.2662
18818TIP3   OH277944   4.870   0.120   2.900 -0.6450 -0.0996 -0.0621
18818TIP3    H177945   4.779   0.124   2.931 -1.3473  1.7955 -2.2332
18818TIP3    H277946   4.873   0.042   2.845 -0.4925 -1.0955  1.3236
18819TIP3   OH277947   3.850   5.315   1.047  0.5414  0.1324  0.1905
18819TIP3    H177948   3.900   5.314   0.965 -2.1216 -0.9944 -1.4590
18819TIP3    H277949   3.769   5.361   1.026  0.5621  1.3825  2.6678
18820TIP3   OH277950   6.144   4.476   3.140  0.0707  0.1121  0.8266
18820TIP3    H177951   6.071   4.460   3.199  0.4351  0.9480  1.5219
18820TIP3    H277952   6.184   4.390   3.126  1.3252  0.1880  3.5803
18821TIP3   OH277953   3.704   6.332  16.126  0.1995  0.5689  0.5796
18821TIP3    H177954   3.650   6.356  16.051  0.2517  2.6037  1.1632
18821TIP3    H277955   3.648   6.273  16.178 -0.5348  0.6787 -0.0787
18822TIP3   OH277956   5.540   4.686  12.180 -0.1592  0.3732  0.2152
18822TIP3    H177957   5.452   4.722  12.166 -1.0426 -1.4191  0.9848
18822TIP3    H277958   5.560   4.705  12.272  0.6464  1.5491 -0.1855
18823TIP3   OH277959   2.444   0.605   4.145  0.0513  0.5165 -0.4491
18823TIP3    H177960   2.400   0.597   4.060 -0.1908 -1.2143 -0.1732
18823TIP3    H277961   2.389   0.555   4.206  1.4488 -0.2113  0.2541
18824TIP3   OH277962   1.614   6.248   3.285  0.1143 -0.1973 -0.1274
18824TIP3    H177963   1.679   6.178   3.296  1.5121  0.9698 -0.8740
18824TIP3    H277964   1.658   6.327   3.315 -1.5029  0.3813  0.8320
18825TIP3   OH277965   0.749   1.792   0.408  0.5856 -0.2843 -0.2137
18825TIP3    H177966   0.811   1.860   0.436 -0.6705  0.3211  1.2075
18825TIP3    H277967   0.714   1.824   0.325 -0.0268  0.8472  0.4670
18826TIP3   OH277968   1.602   1.876  14.616  0.1412  0.5541  0.0580
18826TIP3    H177969   1.637   1.965  14.613  0.3465  0.5092  0.9090
18826TIP3    H277970   1.672   1.824  14.656 -0.5683  0.3048  0.9962
18827TIP3   OH277971   4.106   3.004   1.183  0.3776  0.3157 -0.0325
18827TIP3    H177972   4.087   2.976   1.094 -3.0119  0.3171  0.5807
18827TIP3    H277973   4.088   3.098   1.184 -0.8582  0.0968  0.8936
18828TIP3   OH277974   0.012   0.961   4.923 -0.4224  0.4373 -0.1826
18828TIP3    H177975   0.022   0.885   4.865 -3.8900  1.0904 -1.7426
18828TIP3    H277976   0.014   0.924   5.012 -0.3483 -1.2430 -0.8696
18829TIP3   OH277977   6.523   4.748   4.896  0.4393 -0.5372 -0.4494
18829TIP3    H177978   6.592   4.811   4.877 -0.5230  0.7111  0.1105
18829TIP3    H277979   6.505   4.707   4.811  0.3682  0.6781 -1.0411
18830TIP3   OH277980   3.482   2.817   0.677  0.0683  0.4879  0.0492
18830TIP3    H177981   3.525   2.871   0.610 -0.0367 -0.3979 -0.7467
18830TIP3    H277982   3.550   2.801   0.742  1.3926 -2.0157 -1.8506
18831TIP3   OH277983   4.763   2.524   6.000  0.1140 -0.1190  0.1440
18831TIP3    H177984   4.851   2.491   5.983  0.1487 -0.5269  1.0640
18831TIP3    H277985   4.706   2.450   5.983  0.0150 -0.0808  0.3140
18832TIP3   OH277986   4.030   6.465  14.465 -0.4886 -0.3108 -0.5969
18832TIP3    H177987   4.064   6.554  14.479 -1.3875  0.0589 -0.7852
18832TIP3    H277988   3.979   6.471  14.385  2.0932 -1.7388 -2.4263
18833TIP3   OH277989   3.318   1.157  13.346  0.3017 -0.3060  0.1935
18833TIP3    H177990   3.331   1.218  13.273 -1.3115 -2.2018 -1.7733
18833TIP3    H277991   3.227   1.171  13.372  0.4136 -0.7440  0.8112
18834TIP3   OH277992   0.548   6.499   1.818 -0.0219  0.4052 -0.0351
18834TIP3    H177993   0.542   6.532   1.907  0.4192 -0.7196  0.4193
18834TIP3    H277994   0.584   6.571   1.767  0.8330  0.6565  0.9196
18835TIP3   OH277995   3.208   4.365  13.058 -0.4884  0.4838 -0.9113
18835TIP3    H177996   3.226   4.442  13.004 -0.3424  0.1444 -1.3410
18835TIP3    H277997   3.294   4.332  13.082 -0.5096  1.8400  1.2588
18836TIP3   OH277998   3.704   6.787   4.342 -0.0731 -0.3107 -0.4627
18836TIP3    H177999   3.674   6.700   4.365 -0.9603 -0.1449 -0.9868
18836TIP3    H278000   3.645   6.816   4.273  1.1714  0.0779 -1.3976
18837TIP3   OH278001   6.451   3.172  15.683 -0.1377  0.2043  0.4201
18837TIP3    H178002   6.413   3.194  15.768  0.3619  0.7820  0.5016
18837TIP3    H278003   6.516   3.105  15.702  0.4633  0.8315  0.5927
18838TIP3   OH278004   0.049   5.624   6.339  0.2167  0.1294  0.1462
18838TIP3    H178005   0.089   5.705   6.307  0.4800  0.0420  0.2514
18838TIP3    H278006  -0.041   5.627   6.307  0.3504  0.2586 -0.2178
18839TIP3   OH278007   0.700   3.465   0.462  0.1739 -0.0256 -0.8395
18839TIP3    H178008   0.748   3.396   0.508 -0.5685  1.9742  3.1876
18839TIP3    H278009   0.615   3.469   0.506 -0.9974  1.3362 -3.0978
18840TIP3   OH278010   2.680   2.345   5.897  0.4675  0.1023  0.8761
18840TIP3    H178011   2.759   2.367   5.948  0.0026  2.8006  0.5425
18840TIP3    H278012   2.648   2.264   5.936  1.7349  0.5697  2.9915
18841TIP3   OH278013   3.220   1.323   4.794  0.3581 -0.2400 -0.2327
18841TIP3    H178014   3.237   1.352   4.705  2.0205 -0.1609  0.0917
18841TIP3    H278015   3.126   1.331   4.804  0.3697  1.6121 -1.3424
18842TIP3   OH278016   4.422   6.445  13.721 -0.3604 -0.1741 -0.3173
18842TIP3    H178017   4.481   6.370  13.711  1.2303  1.2197 -1.5605
18842TIP3    H278018   4.392   6.464  13.632 -0.0637  1.2154 -0.1291
18843TIP3   OH278019   6.426   2.750  11.087 -0.5223 -0.5569 -0.0806
18843TIP3    H178020   6.421   2.843  11.064 -0.3779 -0.2728  1.0078
18843TIP3    H278021   6.416   2.704  11.004 -2.3357  0.3954 -0.3976
18844TIP3   OH278022   1.164   3.830  13.287  0.8573 -0.5795 -0.7178
18844TIP3    H178023   1.125   3.756  13.243  0.1206  0.0030 -1.0520
18844TIP3    H278024   1.151   3.904  13.228 -0.2475  0.2367  0.5045
18845TIP3   OH278025   0.959   3.387  15.608  0.1353  0.5315  0.6824
18845TIP3    H178026   0.962   3.467  15.555  0.1662 -0.0826 -0.2475
18845TIP3    H278027   0.884   3.399  15.666  0.0031  1.1379  0.3855
18846TIP3   OH278028   6.383   0.670  11.646  0.3394 -0.3248 -0.0296
18846TIP3    H178029   6.338   0.659  11.730  0.1304 -2.1188 -0.3610
18846TIP3    H278030   6.320   0.720  11.593  0.3845  0.6308  0.7955
18847TIP3   OH278031   1.391   2.833   2.164  0.8077  0.4245  0.1749
18847TIP3    H178032   1.358   2.841   2.075  1.4432  0.4234 -0.0689
18847TIP3    H278033   1.461   2.898   2.169  0.4655  0.7393  0.8195
18848TIP3   OH278034   3.974   1.817   2.069  0.4020 -0.0518 -0.0444
18848TIP3    H178035   3.896   1.837   2.018  0.6693  0.5735 -0.2149
18848TIP3    H278036   4.028   1.895   2.061  0.1989  0.2827  1.6798
18849TIP3   OH278037   6.478   4.181  11.598 -0.0892  0.2620  0.5757
18849TIP3    H178038   6.500   4.215  11.684  0.6904  0.5738  0.2634
18849TIP3    H278039   6.518   4.243  11.537  0.9392 -0.9441 -0.0016
18850TIP3   OH278040   3.255   2.879   4.280  0.4340 -0.5863 -0.1713
18850TIP3    H178041   3.279   2.918   4.364  0.4427 -0.4264 -0.2491
18850TIP3    H278042   3.238   2.787   4.300  2.8355 -1.1108 -0.4041
18851TIP3   OH278043   6.648   1.243   0.200  0.4254 -0.2548 -0.1803
18851TIP3    H178044   6.729   1.224   0.153  0.8975  0.3102  0.3876
18851TIP3    H278045   6.615   1.157   0.226  0.2083 -0.5624 -1.4453
18852TIP3   OH278046   2.385   4.651  11.399 -0.1289 -0.0226 -0.1815
18852TIP3    H178047   2.353   4.599  11.473 -0.4763 -0.7469 -0.8212
18852TIP3    H278048   2.333   4.619  11.324  0.0280  0.8847 -0.6795
18853TIP3   OH278049   4.464   3.709   6.036  0.1870 -0.3955  0.0482
18853TIP3    H178050   4.512   3.652   6.096  1.7479  1.6325  0.7629
18853TIP3    H278051   4.372   3.698   6.060  0.6995 -0.5766  1.9474
18854TIP3   OH278052   1.295   0.649   2.436 -1.1517  0.0791 -0.5811
18854TIP3    H178053   1.330   0.736   2.414 -1.3121  0.3925  0.3918
18854TIP3    H278054   1.261   0.659   2.525 -1.0480 -1.0253 -0.4184
18855TIP3   OH278055   2.413   0.665   5.727  0.0382 -0.1340 -0.0780
18855TIP3    H178056   2.458   0.581   5.719  1.6882  0.8177 -0.9105
18855TIP3    H278057   2.324   0.641   5.752  0.9529 -2.0625  1.5664
18856TIP3   OH278058   4.183   1.652   4.303  0.5322 -0.5563  0.3345
18856TIP3    H178059   4.109   1.603   4.339 -0.4134  0.4027 -0.2598
18856TIP3    H278060   4.144   1.733   4.269  1.7424 -0.3689 -0.6645
18857TIP3   OH278061   2.405   4.106   4.938 -0.1580  0.0704  0.1265
18857TIP3    H178062   2.314   4.080   4.953  0.2602 -1.4216  0.1902
18857TIP3    H278063   2.437   4.132   5.024  0.0604 -1.3740  0.5048
18858TIP3   OH278064   3.931   0.855   2.683  0.1291 -0.0659  0.2020
18858TIP3    H178065   3.951   0.828   2.593 -0.4161 -0.0125  0.0664
18858TIP3    H278066   4.017   0.863   2.724  0.4239  0.8256 -0.5790
18859TIP3   OH278067   4.131   0.670   2.021 -0.0584  0.7070  0.4930
18859TIP3    H178068   4.135   0.751   2.072 -3.2025  1.2739 -0.0748
18859TIP3    H278069   4.131   0.600   2.087  0.7561  1.2180  1.0511
18860TIP3   OH278070   1.021   4.158   5.709  0.0634  0.5732  0.7461
18860TIP3    H178071   1.069   4.124   5.634 -0.4652  0.5668  0.4152
18860TIP3    H278072   0.947   4.205   5.672 -0.5617  0.0264  1.2811
18861TIP3   OH278073   0.583   1.485   5.981 -0.0963  0.1671  0.1262
18861TIP3    H178074   0.500   1.465   6.024 -0.0714 -1.2242 -0.4599
18861TIP3    H278075   0.621   1.555   6.034 -0.5400 -0.8268  1.7775
18862TIP3   OH278076   5.390   5.342   2.002 -0.4556  0.5354 -0.2180
18862TIP3    H178077   5.454   5.271   2.006  1.3439  2.1496  0.0910
18862TIP3    H278078   5.305   5.298   2.008  0.6810 -1.4042  2.6561
18863TIP3   OH278079   0.338   2.557   5.524 -0.3199  0.4884  0.6245
18863TIP3    H178080   0.275   2.487   5.510 -0.6523  1.2145 -1.7242
18863TIP3    H278081   0.285   2.633   5.547 -0.1850  0.7518  0.0607
18864TIP3   OH278082   1.646   0.571  11.293  0.0816 -0.4502  0.6538
18864TIP3    H178083   1.648   0.664  11.315 -0.6645 -0.1769 -0.3650
18864TIP3    H278084   1.683   0.567  11.204  1.4478 -1.3075  1.2366
18865TIP3   OH278085   4.812   3.177  10.909  0.1086  0.2915 -0.2756
18865TIP3    H178086   4.772   3.161  10.995 -0.4978  0.5566 -0.5095
18865TIP3    H278087   4.903   3.200  10.929  0.1009 -0.1487  0.2663
18866TIP3   OH278088   4.265   5.959   2.301 -0.3134 -0.4031 -0.2196
18866TIP3    H178089   4.192   5.962   2.363  0.5595  0.0838  0.7793
18866TIP3    H278090   4.256   6.039   2.250  0.3637  0.3595  0.8558
18867TIP3   OH278091   5.910   4.052   3.819  0.0435  0.4553 -0.4199
18867TIP3    H178092   5.909   3.978   3.881 -1.1679 -0.4755 -1.5258
18867TIP3    H278093   5.840   4.109   3.850  0.3334  0.6650 -0.1442
18868TIP3   OH278094   4.084   1.871  14.552 -0.0158 -0.4350  0.5818
18868TIP3    H178095   4.116   1.837  14.468 -1.6324 -1.6524  0.4301
18868TIP3    H278096   4.068   1.964  14.536 -0.5949 -0.7210 -0.5464
18869TIP3   OH278097   3.282   5.606   3.315  0.1319  0.0019  0.6587
18869TIP3    H178098   3.298   5.642   3.402  1.2323  3.8636 -1.0143
18869TIP3    H278099   3.363   5.561   3.292  1.1019  1.8627  0.3441
18870TIP3   OH278100   4.295   1.905   5.059  0.4402 -0.4151 -0.2000
18870TIP3    H178101   4.321   1.947   4.977  0.1367 -1.3540 -0.7888
18870TIP3    H278102   4.244   1.972   5.105  1.0787  0.3036 -0.5324
18871TIP3   OH278103   2.973   1.234  13.724  0.0946 -0.3830 -0.5949
18871TIP3    H178104   3.048   1.213  13.669  2.7060  0.2097  2.5498
18871TIP3    H278105   2.938   1.149  13.751  2.0842 -0.7190  1.0153
18872TIP3   OH278106   3.728   1.462   4.701  0.1221  0.2713 -0.1155
18872TIP3    H178107   3.777   1.510   4.766 -0.4209  1.1228 -0.3219
18872TIP3    H278108   3.674   1.401   4.751  1.0699 -0.3626  0.1277
18873TIP3   OH278109   0.390   0.748   5.897 -0.3076 -0.1566 -0.1407
18873TIP3    H178110   0.473   0.700   5.906  0.3753  0.8819 -0.8365
18873TIP3    H278111   0.389   0.777   5.806 -1.1678  0.3372  0.0241
18874TIP3   OH278112   3.239   0.268   1.392 -0.1792  0.5411  0.0991
18874TIP3    H178113   3.213   0.228   1.309 -2.8876  0.4570  0.9297
18874TIP3    H278114   3.222   0.201   1.458 -2.8261  2.2642  1.2696
18875TIP3   OH278115   6.030   6.048   2.933 -0.1324  0.3358  0.4153
18875TIP3    H178116   6.084   6.067   3.010 -0.4090  1.6598  0.2862
18875TIP3    H278117   6.091   6.050   2.860 -0.1084  0.4074  0.4380
18876TIP3   OH278118   5.338   1.740   2.056  0.3245  0.2472 -0.2237
18876TIP3    H178119   5.306   1.760   2.144  0.2627 -0.2783 -0.1273
18876TIP3    H278120   5.423   1.785   2.051 -0.6598  2.0930 -0.6801
18877TIP3   OH278121   4.219   0.031   2.726 -0.0086  0.0057 -0.2609
18877TIP3    H178122   4.234  -0.062   2.743  0.7947  0.2710  0.5186
18877TIP3    H278123   4.144   0.054   2.781 -0.4243 -0.2585 -0.7133
18878TIP3   OH278124   4.034   2.041   4.967  0.6221  0.1296  0.1794
18878TIP3    H178125   4.015   2.129   5.001  2.1457  0.2979  0.6138
18878TIP3    H278126   4.107   2.054   4.907 -1.3629 -0.3367 -2.3982
18879TIP3   OH278127   0.888   6.692   0.115 -0.0140 -1.0517 -0.1733
18879TIP3    H178128   0.853   6.629   0.052  2.4090 -1.1951 -1.4233
18879TIP3    H278129   0.905   6.771   0.064  1.8376 -1.1243  0.2973
18880TIP3   OH278130   0.030   0.180  11.672  0.3751 -0.0819  0.5013
18880TIP3    H178131   0.113   0.217  11.640 -0.8631  0.2502 -2.4115
18880TIP3    H278132   0.042   0.085  11.666  0.5769 -0.0370  0.2121
18881TIP3   OH278133   1.753   5.775   3.141  0.4724 -0.1416 -0.6588
18881TIP3    H178134   1.680   5.749   3.085  0.3467 -0.7181 -0.2381
18881TIP3    H278135   1.809   5.698   3.145 -0.9467 -1.1104  2.2823
18882TIP3   OH278136   1.761   1.689   5.858  0.5126  0.1738 -0.2795
18882TIP3    H178137   1.678   1.736   5.857  1.6889  2.4798  2.5453
18882TIP3    H278138   1.739   1.603   5.895 -0.6463  0.7304  0.3513
18883TIP3   OH278139   3.005   1.760  15.963  0.1371  0.1351 -0.8430
18883TIP3    H178140   3.006   1.707  16.043  2.7637 -0.0705 -0.9454
18883TIP3    H278141   3.045   1.704  15.896 -0.3114  0.9699 -1.8280
18884TIP3   OH278142   0.825   4.426   3.582  0.4156 -0.0411  0.2177
18884TIP3    H178143   0.782   4.468   3.507  0.5138 -0.0615  0.1493
18884TIP3    H278144   0.867   4.498   3.629  0.1201  0.0092  0.4095
18885TIP3   OH278145   2.194   3.468   4.325 -0.3103  0.3044 -0.0050
18885TIP3    H178146   2.277   3.432   4.293 -0.4241 -0.5759  0.6692
18885TIP3    H278147   2.188   3.554   4.283  1.5804  0.9538  0.9831
18886TIP3   OH278148   5.089   2.537  13.962  0.5845 -0.3589 -0.0598
18886TIP3    H178149   5.084   2.535  14.057 -2.2082  1.0707 -0.1362
18886TIP3    H278150   5.062   2.449  13.935  0.0701 -0.3523  0.4257
18887TIP3   OH278151   0.520   3.946  11.615  0.4128 -0.2782  0.2762
18887TIP3    H178152   0.458   3.990  11.557  0.7115  1.6719  1.3545
18887TIP3    H278153   0.605   3.981  11.589  0.7856 -1.0893  0.4034
18888TIP3   OH278154   5.266   3.204   3.855 -0.1797 -0.2563 -0.5493
18888TIP3    H178155   5.263   3.211   3.951 -1.7212 -0.3280 -0.5733
18888TIP3    H278156   5.203   3.135   3.835  0.3497 -0.4324 -1.6043
18889TIP3   OH278157   3.110   2.323   1.938 -0.5056  0.3295  0.1250
18889TIP3    H178158   3.146   2.386   2.001  1.1587 -0.5158  0.0403
18889TIP3    H278159   3.116   2.239   1.984  1.0209 -0.3418 -1.2686
18890TIP3   OH278160   3.381   2.772  15.832 -0.2826  0.1064  0.2500
18890TIP3    H178161   3.403   2.680  15.849  0.2596  0.0083 -0.9098
18890TIP3    H278162   3.317   2.769  15.762 -2.7157  0.4942  2.3711
18891TIP3   OH278163   1.849   5.818   2.276 -0.0526  0.1138 -0.2922
18891TIP3    H178164   1.848   5.792   2.368 -3.4440 -0.0421 -0.3163
18891TIP3    H278165   1.846   5.913   2.278  0.8180  0.1459 -0.2586
18892TIP3   OH278166   1.602   5.303   2.108 -0.3079 -0.2777  0.2073
18892TIP3    H178167   1.601   5.396   2.085  0.1820 -0.0103  1.2028
18892TIP3    H278168   1.688   5.290   2.148  0.2076 -1.5023 -1.2679
18893TIP3   OH278169   3.802   6.803  16.068  0.8345 -0.2845 -0.1719
18893TIP3    H178170   3.727   6.819  16.125  0.5941 -0.3540 -0.4705
18893TIP3    H278171   3.764   6.779  15.984  1.1464 -2.5959  0.2903
18894TIP3   OH278172   2.015   2.670   3.113 -0.0189  0.2710 -0.4084
18894TIP3    H178173   2.013   2.620   3.195 -0.7890  1.3674  0.2506
18894TIP3    H278174   1.930   2.651   3.072  0.3580 -0.2617 -0.9476
18895TIP3   OH278175   6.461   3.495  12.358 -1.1166  0.1095 -0.0473
18895TIP3    H178176   6.475   3.536  12.443  1.2581 -0.6487 -0.0442
18895TIP3    H278177   6.497   3.558  12.295  0.9628 -1.1427 -0.1586
18896TIP3   OH278178   4.736   0.880   3.964  0.5888 -0.3377  0.1498
18896TIP3    H178179   4.804   0.926   3.915 -1.0152  1.3693 -0.5482
18896TIP3    H278180   4.720   0.935   4.041 -0.5832 -0.2782 -0.1247
18897TIP3   OH278181   0.633   5.367  11.600  0.2641 -0.4808 -0.1682
18897TIP3    H178182   0.586   5.326  11.528  1.3573 -0.6132 -0.8134
18897TIP3    H278183   0.651   5.296  11.661  1.8846 -0.9107 -1.1386
18898TIP3   OH278184   6.635   2.677  16.877 -0.1832 -0.5617  0.0090
18898TIP3    H178185   6.709   2.620  16.898  0.2900  0.3446  0.8748
18898TIP3    H278186   6.607   2.712  16.962  0.2007  1.2926 -0.5897
18899TIP3   OH278187   0.386   1.932  12.331  0.2354  0.1282 -0.1523
18899TIP3    H178188   0.368   1.872  12.403  2.8348 -0.1088  0.3369
18899TIP3    H278189   0.308   1.988  12.326 -0.7265 -1.0235  1.6526
18900TIP3   OH278190   6.092   1.996  14.622  0.0576  0.3727  0.5653
18900TIP3    H178191   6.174   2.035  14.593  0.8948 -1.4958  0.3457
18900TIP3    H278192   6.113   1.956  14.706 -0.9117  0.8058  1.0239
18901TIP3   OH278193   2.642   3.556   5.533 -0.1908 -0.6673 -0.0547
18901TIP3    H178194   2.581   3.483   5.520  1.8956 -2.3345 -0.7728
18901TIP3    H278195   2.640   3.604   5.450  0.5515 -1.5811 -0.6146
18902TIP3   OH278196   1.876   5.834  16.844  0.6661  0.1220  0.4674
18902TIP3    H178197   1.843   5.781  16.771  1.1893  2.1851 -1.3115
18902TIP3    H278198   1.864   5.925  16.815 -1.1265  1.0396  3.8588
18903TIP3   OH278199   4.194   1.527   5.775 -0.0569 -0.1576 -0.2702
18903TIP3    H178200   4.127   1.459   5.790 -1.0438  0.7309 -0.5597
18903TIP3    H278201   4.210   1.563   5.862 -0.3597  0.0007 -0.2800
18904TIP3   OH278202   0.038   6.051   1.296  0.5853  0.7410 -0.8499
18904TIP3    H178203   0.015   6.079   1.208  0.8085  2.8946 -0.2667
18904TIP3    H278204   0.094   6.121   1.329  1.7146 -0.7513  0.4748
18905TIP3   OH278205   1.386   1.896   5.067 -0.1651 -0.2011 -0.3458
18905TIP3    H178206   1.410   1.926   5.154  0.4410 -0.7510 -0.3105
18905TIP3    H278207   1.294   1.871   5.074 -0.1727 -0.0545  0.0821
18906TIP3   OH278208   0.379   5.076   0.388  0.5411 -0.1403  0.2169
18906TIP3    H178209   0.343   5.164   0.375  0.0290  0.0700  2.8719
18906TIP3    H278210   0.471   5.091   0.412  1.2519 -0.4957 -2.0946
18907TIP3   OH278211   4.639   4.258  14.770 -0.0750  0.0796 -0.8715
18907TIP3    H178212   4.560   4.204  14.770  0.0526 -0.1115 -0.4527
18907TIP3    H278213   4.708   4.199  14.801 -0.2521  0.9199  1.2135
18908TIP3   OH278214   2.674   3.721   5.289 -0.5554  0.2916 -0.0523
18908TIP3    H178215   2.700   3.743   5.199 -0.9186  0.4722 -0.1153
18908TIP3    H278216   2.737   3.766   5.345 -0.8595  0.8886 -0.1955
18909TIP3   OH278217   1.132   2.478  12.577  0.0788 -0.7959 -0.6105
18909TIP3    H178218   1.191   2.536  12.625 -0.3793 -1.7206  1.0890
18909TIP3    H278219   1.045   2.496  12.613 -0.2833 -1.4750 -1.1308
18910TIP3   OH278220   6.394   6.629   1.264  0.4217  0.0487 -0.2368
18910TIP3    H178221   6.396   6.624   1.360  0.3826 -1.9857 -0.3119
18910TIP3    H278222   6.317   6.681   1.244 -0.0128 -0.1695  0.8367
18911TIP3   OH278223   1.904   2.989   1.310 -0.5759 -0.5787 -0.2415
18911TIP3    H178224   1.973   3.035   1.357 -1.4207  0.1900  0.2642
18911TIP3    H278225   1.831   2.985   1.372 -0.8982 -1.6120 -0.6752
18912TIP3   OH278226   5.843   4.623   0.562  0.1398 -0.0189 -0.3672
18912TIP3    H178227   5.929   4.591   0.589 -0.9131 -1.1314  1.7268
18912TIP3    H278228   5.841   4.714   0.592  0.3792 -0.1466  0.0332
18913TIP3   OH278229   5.302   0.602  16.267 -0.4012 -0.1000  0.3272
18913TIP3    H178230   5.251   0.647  16.200  0.7454  0.0052 -0.4897
18913TIP3    H278231   5.369   0.666  16.293 -0.6328 -0.2620  1.3271
18914TIP3   OH278232   6.711   6.675   3.829 -0.0947  0.1900 -0.3437
18914TIP3    H178233   6.675   6.740   3.768  0.7059  0.1159 -0.8941
18914TIP3    H278234   6.783   6.634   3.781 -0.9926 -1.5722 -0.2617
18915TIP3   OH278235   5.250   2.893  15.168  0.2659  0.1746 -0.1568
18915TIP3    H178236   5.193   2.933  15.235 -2.8318 -1.7530 -1.5037
18915TIP3    H278237   5.274   2.808  15.205 -1.5211 -0.9304 -1.4459
18916TIP3   OH278238   1.549   0.475   5.997  0.4827 -0.1138 -0.6787
18916TIP3    H178239   1.554   0.390   6.042  2.9209  0.5241  0.3363
18916TIP3    H278240   1.580   0.538   6.061 -0.4675  1.4572 -1.7355
18917TIP3   OH278241   4.582   3.173   2.641 -0.5401 -0.3790  0.1606
18917TIP3    H178242   4.586   3.077   2.641  1.7618 -0.3274 -1.7157
18917TIP3    H278243   4.566   3.197   2.550 -0.0050  1.0455  0.4269
18918TIP3   OH278244   3.157   6.573   0.409 -0.2895 -0.7473  0.6894
18918TIP3    H178245   3.079   6.580   0.465  0.7816 -3.3520  2.5958
18918TIP3    H278246   3.122   6.554   0.322 -1.8335 -0.7269  1.2868
18919TIP3   OH278247   5.758   0.723   4.201  0.1398  0.1486 -0.1109
18919TIP3    H178248   5.747   0.780   4.125 -1.6684 -2.5697 -1.9555
18919TIP3    H278249   5.745   0.635   4.168  0.9101 -1.2460  3.0690
18920TIP3   OH278250   1.940   0.726   5.621 -0.4035 -0.1563  0.1339
18920TIP3    H178251   1.865   0.785   5.614 -0.4686 -0.2034  0.4627
18920TIP3    H278252   1.977   0.725   5.532 -0.2020  0.6467  0.2001
18921TIP3   OH278253   5.414   2.026  12.832 -0.0892  0.0399  0.2281
18921TIP3    H178254   5.409   1.930  12.832  1.0659 -0.0313 -1.4129
18921TIP3    H278255   5.419   2.049  12.925  0.8194 -1.5494  0.5901
18922TIP3   OH278256   5.733   0.130  14.635  0.2134 -0.5215 -0.3293
18922TIP3    H178257   5.801   0.165  14.578  1.1030  0.6361  1.3790
18922TIP3    H278258   5.651   0.156  14.594  0.8537  2.1371 -0.0265
18923TIP3   OH278259   3.805   4.094   3.164 -0.0223 -0.4042 -0.1093
18923TIP3    H178260   3.718   4.055   3.148  0.3869 -0.3407 -2.7469
18923TIP3    H278261   3.861   4.019   3.181 -0.7595 -0.3813  2.6216
18924TIP3   OH278262   1.284   0.140  15.220  0.8860 -0.3579  0.4330
18924TIP3    H178263   1.295   0.168  15.311 -1.4947  2.1290  0.0300
18924TIP3    H278264   1.217   0.071  15.224 -0.3693  0.8274  0.4639
18925TIP3   OH278265   2.955   6.006  13.837  0.1373  0.6081 -0.1058
18925TIP3    H178266   2.990   5.988  13.750 -0.6845  0.3683 -0.3825
18925TIP3    H278267   2.877   6.059  13.822  0.2837  1.0152  0.5142
18926TIP3   OH278268   3.288   0.262  14.221 -0.3570  0.1798  0.3470
18926TIP3    H178269   3.361   0.237  14.278 -0.8668  0.1274  0.9816
18926TIP3    H278270   3.236   0.323  14.273 -1.3360 -0.5824  0.2844
18927TIP3   OH278271   6.076   1.796   1.440  0.0181 -0.0353 -0.3310
18927TIP3    H178272   6.052   1.880   1.478  0.3828  0.1386 -0.4795
18927TIP3    H278273   6.017   1.786   1.365  1.4193  1.1204 -1.6341
18928TIP3   OH278274   4.430   5.857   6.616  0.1788  0.1820  0.2255
18928TIP3    H178275   4.354   5.876   6.671 -0.3034  0.1767 -0.4225
18928TIP3    H278276   4.394   5.805   6.544  1.5543 -3.7509  2.2452
18929TIP3   OH278277   0.381   2.668  13.439 -0.2152  0.0253  0.1559
18929TIP3    H178278   0.301   2.706  13.404 -0.1917  0.1159  0.2017
18929TIP3    H278279   0.352   2.586  13.479  0.0481 -1.0517 -1.7871
18930TIP3   OH278280   1.160   3.152   2.373  0.0265 -0.3877 -0.5941
18930TIP3    H178281   1.198   3.123   2.455 -1.4453  1.0746  0.6541
18930TIP3    H278282   1.068   3.172   2.394 -0.3241  0.2207 -2.5284
18931TIP3   OH278283   1.605   0.929  14.574  0.4504  0.3432  0.9039
18931TIP3    H178284   1.554   0.911  14.495 -0.3519 -0.0795  1.5104
18931TIP3    H278285   1.546   0.907  14.647  1.3607  0.2173  1.6177
18932TIP3   OH278286   1.687   3.528   1.219 -0.0790  0.0019 -0.2275
18932TIP3    H178287   1.699   3.578   1.138 -3.1584 -0.8417 -1.2689
18932TIP3    H278288   1.629   3.456   1.194 -0.4399 -0.7105  2.5609
18933TIP3   OH278289   0.175   3.074   3.997  0.2597  0.3714 -0.6121
18933TIP3    H178290   0.161   3.137   4.068 -0.2990 -0.4111 -0.0201
18933TIP3    H278291   0.236   3.009   4.034 -1.4665 -1.0534 -0.2057
18934TIP3   OH278292   1.956   5.318  12.106  0.4178 -0.4058  0.2660
18934TIP3    H178293   1.907   5.358  12.178  0.3145  0.6000 -0.3469
18934TIP3    H278294   1.889   5.296  12.042  0.8852  2.9596 -1.5298
18935TIP3   OH278295   2.581   5.954  17.090 -0.0245 -0.3495  0.5065
18935TIP3    H178296   2.486   5.947  17.097  0.0258 -1.0947  0.4467
18935TIP3    H278297   2.602   6.036  17.134 -0.5670 -0.7794  1.5861
18936TIP3   OH278298   6.739   5.788   1.499  0.4968 -0.3562  0.5749
18936TIP3    H178299   6.834   5.774   1.501  0.6159  0.4949  1.0001
18936TIP3    H278300   6.702   5.711   1.542  0.9831 -0.8289  0.1465
18937TIP3   OH278301   4.982   1.227   1.607  0.5447 -0.1696  0.2051
18937TIP3    H178302   4.972   1.155   1.544  0.1016 -0.9714  1.1730
18937TIP3    H278303   5.075   1.226   1.630  0.3054 -1.2496  1.1592
18938TIP3   OH278304   2.285   1.304   1.654  0.3186 -0.3794 -0.1356
18938TIP3    H178305   2.254   1.394   1.639 -0.4219 -0.7635 -1.0053
18938TIP3    H278306   2.347   1.288   1.583 -0.2108 -0.8400 -0.5109
18939TIP3   OH278307   5.003   5.851  15.980 -0.0618 -0.3336 -0.4066
18939TIP3    H178308   4.921   5.859  16.030 -0.8187  0.1012 -1.6897
18939TIP3    H278309   5.034   5.941  15.970 -0.6158 -0.2900 -1.8446
18940TIP3   OH278310   1.386   2.057  15.483  0.3385  0.3655  0.2545
18940TIP3    H178311   1.437   2.129  15.521 -2.9565  3.3122 -0.5933
18940TIP3    H278312   1.371   2.084  15.392 -1.2460 -1.2567  0.0148
18941TIP3   OH278313   5.300   6.533  15.062 -0.0375  0.5169 -0.4755
18941TIP3    H178314   5.288   6.606  15.122  0.8708  0.6513 -0.4509
18941TIP3    H278315   5.303   6.455  15.118 -0.0860  0.5547 -0.4212
18942TIP3   OH278316   3.181   0.089   1.627  0.3705 -0.2170  0.4190
18942TIP3    H178317   3.277   0.084   1.627  0.4232  0.7639  0.5172
18942TIP3    H278318   3.159   0.110   1.718  0.1194  0.5751  0.1774
18943TIP3   OH278319   6.166   4.491  16.028 -0.2771 -0.4006 -0.1176
18943TIP3    H178320   6.174   4.542  15.948  0.7397  1.1466  0.9312
18943TIP3    H278321   6.222   4.414  16.014  0.2134  0.0639 -0.7436
18944TIP3   OH278322   4.999   4.585  16.172 -0.2255  0.0990  0.5556
18944TIP3    H178323   5.013   4.623  16.085 -1.3096 -0.3810  0.1672
18944TIP3    H278324   5.027   4.654  16.233  0.0539  0.6255 -0.1630
18945TIP3   OH278325   2.055   1.639  12.575  0.4488  0.0684  0.5492
18945TIP3    H178326   2.101   1.691  12.509 -1.0154 -1.3517 -1.6538
18945TIP3    H278327   2.036   1.702  12.646  2.4272  1.5140 -0.1606
18946TIP3   OH278328   6.193   2.458  10.742 -0.2764  0.2245  1.3423
18946TIP3    H178329   6.179   2.403  10.665  1.6189  1.1042  0.3402
18946TIP3    H278330   6.126   2.527  10.734 -0.9187 -0.4117  1.1724
18947TIP3   OH278331   5.658   1.297  13.359 -0.1342 -0.0646  0.2914
18947TIP3    H178332   5.569   1.265  13.356 -0.2062  0.2889 -2.0993
18947TIP3    H278333   5.650   1.391  13.376 -0.3160  0.2777 -1.5827
18948TIP3   OH278334   1.796   2.481  17.172 -0.0461 -0.1854  0.6560
18948TIP3    H178335   1.826   2.535  17.246 -3.2538 -0.7132  2.4306
18948TIP3    H278336   1.835   2.522  17.095  1.3574  1.8960  2.4160
18949TIP3   OH278337   3.159   5.108  13.579 -0.3580 -0.1905  0.0587
18949TIP3    H178338   3.222   5.064  13.523 -0.9171  1.1526 -1.6804
18949TIP3    H278339   3.198   5.104  13.666  1.0983 -1.2840 -0.6157
18950TIP3   OH278340   5.649   4.518   0.204 -0.0302 -0.0200 -0.4376
18950TIP3    H178341   5.728   4.466   0.220 -0.1652 -0.0299  0.2055
18950TIP3    H278342   5.634   4.511   0.109  2.0483  1.8329 -0.9599
18951TIP3   OH278343   4.957   5.632  16.382 -0.1600 -0.4785  0.1037
18951TIP3    H178344   4.923   5.631  16.292  1.3556 -0.9977 -0.4945
18951TIP3    H278345   4.928   5.549  16.420 -0.2755 -0.5409 -0.1218
18952TIP3   OH278346   6.168   4.762   3.541 -0.3349 -0.3101 -0.3887
18952TIP3    H178347   6.263   4.755   3.532 -0.1851 -0.3416  1.0469
18952TIP3    H278348   6.134   4.729   3.458  0.8830 -1.1981 -0.5629
18953TIP3   OH278349   0.787   3.048   3.852  0.3607  0.2870 -0.2399
18953TIP3    H178350   0.700   3.084   3.872 -0.0832 -1.8588  2.0927
18953TIP3    H278351   0.769   2.973   3.796  0.5748 -0.8536  1.1882
18954TIP3   OH278352   3.276   1.902   1.289  0.1528 -0.3267 -0.9804
18954TIP3    H178353   3.228   1.907   1.206 -0.5664  0.1058 -0.5368
18954TIP3    H278354   3.214   1.863   1.350 -0.5477  2.6241  0.2566
18955TIP3   OH278355   4.222   5.104  16.316 -0.0726 -0.4953 -0.3465
18955TIP3    H178356   4.151   5.101  16.381  1.1366  0.9374  1.1156
18955TIP3    H278357   4.211   5.189  16.273  0.9438 -0.0927  0.1553
18956TIP3   OH278358   2.860   5.574  16.082 -0.0928  0.4337  0.2037
18956TIP3    H178359   2.841   5.582  15.989 -0.9345 -0.7945  0.2596
18956TIP3    H278360   2.934   5.514  16.087  1.9210  2.8504  0.1686
18957TIP3   OH278361   4.760   5.183   3.892  0.3312  0.2063  0.4298
18957TIP3    H178362   4.697   5.209   3.824  0.5032  0.7548  0.4820
18957TIP3    H278363   4.728   5.097   3.922 -0.5150  0.5700  0.6006
18958TIP3   OH278364   0.097   5.802   0.377  0.0797  0.2087  0.3567
18958TIP3    H178365   0.045   5.860   0.322  2.1391  2.4313  0.6914
18958TIP3    H278366   0.084   5.715   0.339 -1.2384  1.2035 -1.5392
18959TIP3   OH278367   4.776   4.388   3.053  0.0321 -0.6481 -0.5213
18959TIP3    H178368   4.751   4.456   3.115  0.5461 -2.2863  1.5062
18959TIP3    H278369   4.870   4.378   3.063 -0.2913 -3.0282  0.6748
18960TIP3   OH278370   3.740   4.717   4.755  0.2511  0.1854 -0.3796
18960TIP3    H178371   3.810   4.654   4.739 -1.4464 -1.7222 -0.4109
18960TIP3    H278372   3.754   4.746   4.846  0.1699 -1.3636  0.1382
18961TIP3   OH278373   1.434   4.452   0.459 -0.7573  0.1886 -0.2568
18961TIP3    H178374   1.350   4.473   0.500 -0.2957  0.9025  0.3351
18961TIP3    H278375   1.425   4.485   0.369 -0.7374  1.2244  0.1091
18962TIP3   OH278376   2.676   4.697   2.775  0.4516  0.3484 -0.3159
18962TIP3    H178377   2.712   4.685   2.687  1.1703  0.4688 -0.0400
18962TIP3    H278378   2.642   4.786   2.775 -0.9427 -0.1667 -0.9591
18963TIP3   OH278379   1.784   0.557  11.060 -0.2753  0.0376  0.3722
18963TIP3    H178380   1.855   0.579  11.000 -0.3353 -2.5816 -0.7303
18963TIP3    H278381   1.807   0.471  11.095 -2.4191 -0.4392  0.7193
18964TIP3   OH278382   5.103   1.300  14.686  0.2735 -0.5932  0.5072
18964TIP3    H178383   5.133   1.211  14.702  0.1109 -0.2778  2.7441
18964TIP3    H278384   5.041   1.292  14.613  1.7874 -1.9894 -0.6573
18965TIP3   OH278385   4.408   2.827  14.532  0.2760 -0.5413 -0.3868
18965TIP3    H178386   4.358   2.753  14.496  1.3757 -0.7863 -1.4350
18965TIP3    H278387   4.409   2.892  14.462  1.2518 -0.4588 -0.3065
18966TIP3   OH278388   0.181   3.106   2.363 -0.0492 -0.1693 -0.8440
18966TIP3    H178389   0.163   3.200   2.373  0.0064 -0.0229 -2.0984
18966TIP3    H278390   0.271   3.102   2.331 -0.1956 -0.6435 -1.1935
18967TIP3   OH278391   0.666   4.080  13.136 -0.4735 -0.5582 -0.0096
18967TIP3    H178392   0.660   3.985  13.121 -1.2696 -0.4849 -0.1627
18967TIP3    H278393   0.704   4.114  13.055  0.3368 -0.8079  0.2571
18968TIP3   OH278394   1.801   4.657  16.618  0.0389  0.5475 -0.4472
18968TIP3    H178395   1.846   4.574  16.628 -0.1982  0.5367  0.5876
18968TIP3    H278396   1.709   4.633  16.603 -0.4455  0.6416  2.1467
18969TIP3   OH278397   3.418   3.044  17.101 -0.4217 -0.1970 -1.0862
18969TIP3    H178398   3.343   3.103  17.096  0.3925  0.8933 -0.5852
18969TIP3    H278399   3.486   3.087  17.049 -0.2254 -1.3138 -1.7673
18970TIP3   OH278400   0.275   6.800   3.035 -0.1502 -0.0690 -0.0996
18970TIP3    H178401   0.254   6.788   2.942  0.1791  0.2647 -0.2168
18970TIP3    H278402   0.192   6.827   3.074 -0.4036 -0.6726 -0.2076
18971TIP3   OH278403   2.041   3.869   4.159  0.3466  0.6330  0.2580
18971TIP3    H178404   2.111   3.928   4.132 -0.2576  0.6986 -1.2145
18971TIP3    H278405   1.993   3.850   4.079  1.6220 -3.3516  0.3300
18972TIP3   OH278406   6.628   6.769   4.261  0.0423  0.5777  0.2520
18972TIP3    H178407   6.633   6.862   4.281  0.9835  0.6549 -0.3391
18972TIP3    H278408   6.695   6.728   4.316  0.7438  0.4554 -0.6804
18973TIP3   OH278409   0.341   6.697   1.133 -0.0590 -0.7585  0.1084
18973TIP3    H178410   0.414   6.655   1.088  1.5035 -0.0831  1.9466
18973TIP3    H278411   0.291   6.624   1.171  0.4209 -1.1500 -0.0159
18974TIP3   OH278412   4.665   1.667  11.462 -0.8485 -0.1119 -0.0261
18974TIP3    H178413   4.640   1.756  11.441  0.1901 -0.3315 -2.3397
18974TIP3    H278414   4.610   1.612  11.406  1.0632 -0.7527 -1.3619
18975TIP3   OH278415   3.204   2.816   0.702 -0.4565 -0.2662  0.1360
18975TIP3    H178416   3.300   2.812   0.701 -0.3964 -1.4631  3.5227
18975TIP3    H278417   3.176   2.736   0.659  0.0675 -0.3525 -0.0523
18976TIP3   OH278418   1.785   1.514  14.381  0.0990  0.4003  0.5838
18976TIP3    H178419   1.709   1.547  14.429 -1.3906 -1.3383 -0.5040
18976TIP3    H278420   1.769   1.420  14.374  2.9546 -0.2014  1.3832
18977TIP3   OH278421   5.653   5.933  13.424 -0.4329  0.1650 -0.1549
18977TIP3    H178422   5.677   6.026  13.421 -0.5818  0.1818 -1.4309
18977TIP3    H278423   5.609   5.922  13.508  1.4914  0.7664  0.9467
18978TIP3   OH278424   2.922   0.974  13.733 -0.2482  0.3710 -0.0758
18978TIP3    H178425   2.860   0.910  13.767  0.2101  0.3394  0.7259
18978TIP3    H278426   2.929   0.954  13.640 -0.1969 -0.6740  0.1446
18979TIP3   OH278427   2.429   3.124  11.835  0.7138 -0.1243  0.0372
18979TIP3    H178428   2.341   3.134  11.799  0.6440  0.7377  0.4274
18979TIP3    H278429   2.487   3.130  11.759  0.4652 -0.1205 -0.1514
18980TIP3   OH278430   1.950   0.654   4.224 -0.4684  0.2795  0.1320
18980TIP3    H178431   1.943   0.608   4.308 -2.5489  0.5101  0.1163
18980TIP3    H278432   1.859   0.664   4.195  0.2878 -1.9929 -3.3299
18981TIP3   OH278433   2.726   3.728  14.278  0.0307  0.0531 -0.0518
18981TIP3    H178434   2.668   3.747  14.205 -0.7319  0.6557  0.7010
18981TIP3    H278435   2.726   3.632  14.285 -0.2844  0.0187 -0.5155
18982TIP3   OH278436   2.474   0.598  12.684  0.0376 -0.0740 -0.4496
18982TIP3    H178437   2.447   0.663  12.619 -0.3472 -0.3208 -0.5379
18982TIP3    H278438   2.396   0.545  12.699  0.4897 -0.8420 -0.7594
18983TIP3   OH278439   2.216   3.553   1.128 -0.3227  0.1602 -0.5603
18983TIP3    H178440   2.242   3.475   1.079  1.6639 -0.6851  1.7171
18983TIP3    H278441   2.249   3.626   1.077  2.2353 -0.7250 -0.2367
18984TIP3   OH278442   2.979   3.285   2.163 -0.1800 -0.1224  0.5694
18984TIP3    H178443   2.922   3.211   2.145 -1.9706  1.2840  0.2292
18984TIP3    H278444   2.940   3.357   2.113  2.4818  0.6416 -0.4681
18985TIP3   OH278445   5.912   6.268  16.592  0.5201  0.8623 -0.6750
18985TIP3    H178446   5.959   6.298  16.670 -0.2210 -2.7497  1.2539
18985TIP3    H278447   5.981   6.257  16.526  2.3879 -3.1757  1.7519
18986TIP3   OH278448   2.722   5.786   0.621  0.8534  0.0617 -0.6929
18986TIP3    H178449   2.643   5.803   0.571  1.4407  1.3301 -1.2143
18986TIP3    H278450   2.793   5.791   0.556  1.2658 -2.3609 -0.4914
18987TIP3   OH278451   3.294   2.976   2.635 -0.2689  0.0229  0.3316
18987TIP3    H178452   3.304   3.031   2.713 -0.6587  0.2019  0.2519
18987TIP3    H278453   3.380   2.980   2.592 -0.9233  2.3610 -0.8576
18988TIP3   OH278454   5.146   1.028  16.004  0.6028  0.0222 -0.2152
18988TIP3    H178455   5.081   1.091  16.034  0.2455 -0.8466  0.8656
18988TIP3    H278456   5.230   1.071  16.021  0.3675  0.0921  0.7875
18989TIP3   OH278457   3.674   1.314   2.588  0.2241  0.2612  0.1414
18989TIP3    H178458   3.601   1.371   2.612 -1.3647 -1.6109 -0.1174
18989TIP3    H278459   3.748   1.374   2.576 -1.0984  2.1287  1.0290
18990TIP3   OH278460   1.722   3.062  16.333  0.6641 -0.1439 -0.0485
18990TIP3    H178461   1.710   2.969  16.352  1.2820 -0.2075  0.0603
18990TIP3    H278462   1.640   3.090  16.294  0.2298 -0.5765  0.5449
18991TIP3   OH278463   5.339   6.533   5.735 -0.1463  0.3717 -0.1625
18991TIP3    H178464   5.380   6.612   5.771  0.6261  0.4697 -1.2142
18991TIP3    H278465   5.329   6.475   5.810  0.8643  0.8093  0.3232
18992TIP3   OH278466   2.279   1.992   2.548 -0.3269  0.1082 -0.1378
18992TIP3    H178467   2.367   2.024   2.530 -0.5506 -0.8781 -3.2178
18992TIP3    H278468   2.280   1.901   2.520 -1.3345 -1.0142  3.2091
18993TIP3   OH278469   1.513   2.579  12.928 -0.0700  0.3689 -0.4965
18993TIP3    H178470   1.557   2.497  12.905  0.1784  0.6850 -1.1432
18993TIP3    H278471   1.562   2.647  12.882  0.7782  1.0714  1.3728
18994TIP3   OH278472   2.684   0.015   2.352  0.5364  0.7934 -0.1308
18994TIP3    H178473   2.631   0.095   2.359 -0.9745 -0.1505 -0.5222
18994TIP3    H278474   2.645  -0.034   2.280  1.5848 -0.2074 -0.0421
18995TIP3   OH278475   0.068   1.033  11.366  0.4701 -0.6640  0.0354
18995TIP3    H178476   0.150   0.997  11.330 -0.7046 -1.0387 -2.3861
18995TIP3    H278477   0.012   0.956  11.379  0.4240 -0.3897  1.5058
18996TIP3   OH278478   6.216   5.587  15.398 -0.1902  0.3581 -0.6221
18996TIP3    H178479   6.131   5.631  15.398 -0.6612 -0.4637  1.6965
18996TIP3    H278480   6.199   5.502  15.358 -0.3539  0.3657 -0.5683
18997TIP3   OH278481   6.044   0.673  13.570 -0.4266 -0.6145 -0.7109
18997TIP3    H178482   6.059   0.658  13.663 -0.0431  0.2566 -0.6281
18997TIP3    H278483   6.129   0.659  13.529 -0.5052 -0.5982 -0.8821
18998TIP3   OH278484   0.506   6.666   6.180 -0.6099  0.3648 -0.6011
18998TIP3    H178485   0.497   6.686   6.273  0.6156  0.9189 -0.5896
18998TIP3    H278486   0.585   6.611   6.175 -1.6275 -1.0735 -1.1142
18999TIP3   OH278487   2.350   4.052   4.666  0.2101 -0.5757  0.1284
18999TIP3    H178488   2.334   3.970   4.713 -3.8659  1.2111  2.1555
18999TIP3    H278489   2.379   4.113   4.734  1.1381  0.2775 -0.9967
19000TIP3   OH278490   2.096   1.109   2.105 -0.1908 -0.1687  0.1620
19000TIP3    H178491   2.009   1.076   2.128  0.0701 -2.4187 -1.7932
19000TIP3    H278492   2.079   1.190   2.057 -1.1190  0.0943  0.9050
19001TIP3   OH278493   4.447   2.740  16.276 -0.5174  0.1977 -0.3709
19001TIP3    H178494   4.490   2.726  16.192 -1.3368 -0.1973 -0.7327
19001TIP3    H278495   4.518   2.751  16.339  0.1030 -0.3300 -0.9802
19002TIP3   OH278496   1.826   3.232   4.339  0.1741 -0.1579 -0.4632
19002TIP3    H178497   1.849   3.212   4.248 -0.9726  0.6991 -0.9483
19002TIP3    H278498   1.739   3.193   4.350  0.1432  0.0918  0.1536
19003TIP3   OH278499   5.078   1.634   5.257 -0.9084 -0.5312  0.1192
19003TIP3    H178500   5.068   1.547   5.218 -0.2443 -0.0679 -1.1166
19003TIP3    H278501   5.082   1.693   5.182 -2.2535  0.6726  0.9712
19004TIP3   OH278502   4.403   1.445  16.014  0.1329  0.2843 -0.4170
19004TIP3    H178503   4.455   1.465  16.093  1.5646  0.3317 -1.3535
19004TIP3    H278504   4.329   1.505  16.019  0.2787  0.3768  0.8334
19005TIP3   OH278505   3.521   0.904  14.804 -0.2820 -0.3505  0.6913
19005TIP3    H178506   3.511   0.973  14.739 -0.9925 -1.1312 -0.0443
19005TIP3    H278507   3.470   0.934  14.879 -4.2607 -1.9865 -1.1862
19006TIP3   OH278508   2.282   5.113   1.785 -0.2810  0.2877 -0.2133
19006TIP3    H178509   2.290   5.187   1.726 -0.3714 -0.5431 -1.2839
19006TIP3    H278510   2.286   5.036   1.728 -0.0879 -0.5331  0.8881
19007TIP3   OH278511   5.429   1.864   1.766  0.2631  0.2252  0.0523
19007TIP3    H178512   5.485   1.932   1.802  1.3581  0.8721 -2.7081
19007TIP3    H278513   5.353   1.912   1.732 -0.3570 -0.2640  0.7529
19008TIP3   OH278514   5.306   6.175  13.476  0.4871 -0.3902  0.4587
19008TIP3    H178515   5.280   6.267  13.474  2.2094  0.1070  0.3072
19008TIP3    H278516   5.225   6.128  13.492 -0.5828  1.0854 -0.4862
19009TIP3   OH278517   5.327   5.390   3.052  0.2212  0.1846  0.1003
19009TIP3    H178518   5.339   5.441   2.972  0.3365  0.3668  0.2337
19009TIP3    H278519   5.379   5.311   3.038  3.4900  1.9882  1.6071
19010TIP3   OH278520   6.137   1.280   1.481 -0.1324 -0.1317 -0.1077
19010TIP3    H178521   6.107   1.209   1.539 -1.0673 -0.9242 -1.5198
19010TIP3    H278522   6.074   1.350   1.495  1.1614  0.6976  1.7715
19011TIP3   OH278523   0.420   2.902  11.240 -0.4320 -0.9332 -0.3883
19011TIP3    H178524   0.482   2.832  11.256  0.6024  0.4784  2.1440
19011TIP3    H278525   0.336   2.868  11.273  0.4184 -0.4084  2.5097
19012TIP3   OH278526   4.245   0.335   5.925  0.8679 -0.3230 -0.4966
19012TIP3    H178527   4.218   0.414   5.972  0.7525 -0.7002  0.0727
19012TIP3    H278528   4.290   0.282   5.991  0.2373 -1.0879 -0.6742
19013TIP3   OH278529   3.383   6.447   0.700  0.5357  0.9624 -0.1522
19013TIP3    H178530   3.395   6.509   0.628  1.3692  1.4571  0.3997
19013TIP3    H278531   3.371   6.502   0.777  2.2915  0.4699  0.5106
19014TIP3   OH278532   2.645   5.384  13.918 -0.5063  0.2155 -0.0207
19014TIP3    H178533   2.682   5.325  13.984  0.7662  0.3511 -0.5997
19014TIP3    H278534   2.551   5.381  13.934 -0.2184  0.2735  1.8139
19015TIP3   OH278535   5.453   1.144  10.697 -0.5949 -0.4484 -0.2652
19015TIP3    H178536   5.499   1.226  10.678 -2.6862  0.4700 -1.5342
19015TIP3    H278537   5.523   1.081  10.713  1.1063  0.9652 -1.8418
19016TIP3   OH278538   4.662   3.529  10.893 -0.2268 -0.1838 -0.0076
19016TIP3    H178539   4.659   3.483  10.977 -0.9986 -0.3270 -0.1100
19016TIP3    H278540   4.744   3.501  10.853 -0.7326 -1.5747 -0.1136
19017TIP3   OH278541   5.809   2.290  13.927  0.4471  0.3921  0.0931
19017TIP3    H178542   5.861   2.321  13.853  0.4977 -1.3388 -0.6477
19017TIP3    H278543   5.781   2.369  13.972  0.1624  1.5085 -1.9660
19018TIP3   OH278544   0.584   4.733  16.604 -0.3757 -0.7308 -0.0202
19018TIP3    H178545   0.618   4.645  16.590 -0.3950 -0.5059 -1.5457
19018TIP3    H278546   0.661   4.785  16.628  0.0504 -0.6264 -1.5980
19019TIP3   OH278547   4.300   3.929  14.097  0.2815  0.3350 -0.2771
19019TIP3    H178548   4.344   3.873  14.161 -0.5569 -1.0561 -0.8828
19019TIP3    H278549   4.361   3.934  14.024  0.8818  1.2383  0.2748
19020TIP3   OH278550   6.707   5.245   3.962 -0.0583 -0.2619  0.3343
19020TIP3    H178551   6.613   5.260   3.973 -0.2220  0.7068 -2.1422
19020TIP3    H278552   6.745   5.333   3.955  0.8346 -0.6740 -0.1742
19021TIP3   OH278553   6.773   5.220  13.560 -0.4367 -0.6053 -0.5078
19021TIP3    H178554   6.730   5.136  13.548 -1.0709 -0.3066 -0.3414
19021TIP3    H278555   6.714   5.270  13.616  0.2095 -0.2555 -0.1279
19022TIP3   OH278556   1.569   0.929   0.692  0.2833 -0.2822 -0.4839
19022TIP3    H178557   1.555   0.922   0.787  0.7633 -0.6581 -0.4346
19022TIP3    H278558   1.485   0.906   0.653  0.2917 -0.8613 -0.1620
19023TIP3   OH278559   0.249   2.709   3.179  0.1968  0.4949 -0.0194
19023TIP3    H178560   0.304   2.771   3.132 -0.4949  1.2148  0.1047
19023TIP3    H278561   0.273   2.720   3.271 -0.2867  0.9440  0.0535
19024TIP3   OH278562   6.153   4.399   3.774  0.8065 -0.4416  0.3158
19024TIP3    H178563   6.065   4.390   3.740  0.0599  1.2071  1.7407
19024TIP3    H278564   6.210   4.369   3.703 -0.9002 -2.1733 -0.3549
19025TIP3   OH278565   0.284   0.214   3.236 -0.8996  0.0829  0.4782
19025TIP3    H178566   0.200   0.181   3.267 -0.7423 -1.1244 -0.3604
19025TIP3    H278567   0.329   0.137   3.201  0.5693  0.6974  0.9369
19026TIP3   OH278568   2.634   0.690  16.358  0.1779 -0.0338  0.2962
19026TIP3    H178569   2.687   0.749  16.411  0.6342 -0.8813  0.8003
19026TIP3    H278570   2.635   0.728  16.270  1.2655  0.1844  0.4000
19027TIP3   OH278571   1.224   4.282   3.815 -0.3586  0.3277  0.7298
19027TIP3    H178572   1.227   4.187   3.821 -0.2722  0.2487 -0.5094
19027TIP3    H278573   1.164   4.309   3.885  0.4973 -0.5585  1.7965
19028TIP3   OH278574   2.452   6.648  12.845  1.1544 -0.2799 -0.4688
19028TIP3    H178575   2.386   6.658  12.776  2.9561 -0.4564 -2.2736
19028TIP3    H278576   2.462   6.737  12.881  1.3386  0.1204 -1.4965
19029TIP3   OH278577   2.769   2.760  11.217  0.3702  0.1911 -0.5993
19029TIP3    H178578   2.791   2.706  11.141  0.2763 -2.1473  0.9727
19029TIP3    H278579   2.685   2.725  11.247  0.2318  1.3284  0.3749
19030TIP3   OH278580   1.738   5.395   0.830 -0.1741  0.2804  0.4467
19030TIP3    H178581   1.759   5.331   0.899 -1.4182 -1.0048 -0.3419
19030TIP3    H278582   1.647   5.419   0.848 -0.3322  0.3342 -0.4319
19031TIP3   OH278583   6.490   2.829  12.089 -0.0271  0.3743 -0.3211
19031TIP3    H178584   6.484   2.773  12.012 -1.8956  1.4948 -1.0361
19031TIP3    H278585   6.399   2.844  12.115  0.5091  1.4360  1.0463
19032TIP3   OH278586   5.754   0.983  14.129 -0.4666  0.1773  0.0721
19032TIP3    H178587   5.673   0.931  14.121 -0.3510  0.0023  0.0313
19032TIP3    H278588   5.784   0.993  14.039 -1.3427  1.6761 -0.0637
19033TIP3   OH278589   2.895   3.655  15.543 -0.3010 -0.3958  0.7413
19033TIP3    H178590   2.812   3.632  15.584 -1.1189  2.1945  0.6311
19033TIP3    H278591   2.945   3.697  15.613 -0.8179  1.9708 -0.2373
19034TIP3   OH278592   0.785   1.850   5.565 -0.5041  0.1393 -0.1458
19034TIP3    H178593   0.754   1.936   5.536 -3.5787 -1.0162 -0.4076
19034TIP3    H278594   0.754   1.842   5.655 -1.1375 -1.1174 -0.4638
19035TIP3   OH278595   3.181   1.905   4.592  0.3932  0.4943  0.5693
19035TIP3    H178596   3.173   1.837   4.526 -0.1778 -0.1223  1.2667
19035TIP3    H278597   3.268   1.941   4.579  0.6853 -0.3452  0.1740
19036TIP3   OH278598   4.695   5.037  13.590 -0.9642 -0.1366  0.5298
19036TIP3    H178599   4.631   5.083  13.646 -0.4839  0.3900  0.6516
19036TIP3    H278600   4.646   4.963  13.554 -1.2844 -0.4901  1.6515
19037TIP3   OH278601   4.785   4.710   0.613 -0.1038  0.1375 -0.6533
19037TIP3    H178602   4.734   4.778   0.570 -0.1711  0.4099 -0.1452
19037TIP3    H278603   4.873   4.748   0.622 -0.0571  0.0343 -0.6718
19038TIP3   OH278604   5.613   0.106   4.795 -0.2378  0.3738  0.1545
19038TIP3    H178605   5.693   0.063   4.764  1.7097  2.3889  2.1754
19038TIP3    H278606   5.596   0.174   4.729  1.1862  1.5723  0.9948
19039TIP3   OH278607   3.781   5.713  12.497  0.2072 -0.0832  0.1501
19039TIP3    H178608   3.819   5.672  12.575 -0.8317 -2.0199 -0.3069
19039TIP3    H278609   3.688   5.689  12.501  0.0335  0.2688 -1.3889
19040TIP3   OH278610   5.108   3.571   4.225 -0.2414  0.4675  0.2958
19040TIP3    H178611   5.057   3.650   4.208 -0.0380  0.2065 -1.6403
19040TIP3    H278612   5.195   3.590   4.189 -0.1532 -0.5692 -0.0768
19041TIP3   OH278613   1.437   3.426   2.177 -0.4223  0.1412 -0.4582
19041TIP3    H178614   1.407   3.482   2.249 -1.0877 -0.3659 -0.3389
19041TIP3    H278615   1.509   3.475   2.138 -1.6402  1.5652 -0.9896
19042TIP3   OH278616   3.054   4.193  15.397  0.6804 -0.8693 -0.3101
19042TIP3    H178617   2.992   4.129  15.433  1.8304 -1.1198  1.2869
19042TIP3    H278618   3.054   4.265  15.461  0.8636 -0.1593 -1.1021
19043TIP3   OH278619   3.564   4.825   0.132 -0.0087 -0.1861 -0.3023
19043TIP3    H178620   3.606   4.765   0.193 -0.7363  0.1333  0.5194
19043TIP3    H278621   3.491   4.775   0.096  1.3393 -0.9118 -2.0987
19044TIP3   OH278622   1.322   2.741  15.304  0.6685  0.1845  0.4072
19044TIP3    H178623   1.411   2.769  15.280  1.1178 -1.0798  0.5780
19044TIP3    H278624   1.309   2.777  15.392  0.6199  1.2340 -0.0168
19045TIP3   OH278625   3.232   2.817   1.044 -0.1953 -0.5853 -0.3183
19045TIP3    H178626   3.216   2.885   0.979 -0.6934 -0.4056 -0.0079
19045TIP3    H278627   3.259   2.864   1.123 -2.4237 -0.6163  0.4909
19046TIP3   OH278628   2.514   2.281   6.161  0.0306  0.5962 -0.0432
19046TIP3    H178629   2.551   2.194   6.150  2.0279  1.2592  1.2614
19046TIP3    H278630   2.535   2.305   6.251 -0.7038  2.3383 -0.3166
19047TIP3   OH278631   5.424   0.156   0.035 -0.0130  0.1140  0.5238
19047TIP3    H178632   5.447   0.156  -0.057 -1.6988 -0.3143  0.0708
19047TIP3    H278633   5.435   0.246   0.064 -1.1456  0.6148 -0.5620
19048TIP3   OH278634   0.383   1.846   0.132 -0.1828  0.3117 -0.4487
19048TIP3    H178635   0.351   1.885   0.051 -1.9608 -0.4072 -0.0954
19048TIP3    H278636   0.320   1.872   0.198  0.6038 -0.1272  0.4910
19049TIP3   OH278637   3.950   0.607  14.245  0.1320 -0.1941 -0.0409
19049TIP3    H178638   3.940   0.698  14.272 -1.0732  0.0542 -1.2953
19049TIP3    H278639   3.936   0.607  14.151  2.0394 -1.4019 -0.3640
19050TIP3   OH278640   5.891   3.059   5.048 -0.6682  0.4070  0.3600
19050TIP3    H178641   5.859   3.101   5.128  0.8036  0.7505  0.7848
19050TIP3    H278642   5.983   3.041   5.066 -1.2032 -2.7959  0.0903
19051TIP3   OH278643   5.409   0.794   2.299 -0.0067  0.3986 -0.5921
19051TIP3    H178644   5.335   0.846   2.330  0.2463  1.2774 -1.4449
19051TIP3    H278645   5.368   0.715   2.263 -0.2888 -0.8880  2.3286
19052TIP3   OH278646   5.436   3.012  15.642 -0.4236  0.2669  0.4127
19052TIP3    H178647   5.525   3.040  15.622  0.3883 -0.7073  2.4341
19052TIP3    H278648   5.402   3.079  15.700 -0.1958 -0.4660  1.4108
19053TIP3   OH278649   6.262   0.298  12.902  0.2174 -0.5118  0.6195
19053TIP3    H178650   6.195   0.366  12.908  1.6224  1.0570 -0.7691
19053TIP3    H278651   6.288   0.299  12.809  0.6801 -2.5407  0.7151
19054TIP3   OH278652   5.621   3.802  14.590 -0.5423  0.0268 -0.5057
19054TIP3    H178653   5.632   3.758  14.506 -2.6246 -0.5003 -0.5390
19054TIP3    H278654   5.587   3.888  14.568  0.0034  0.3092 -0.2509
19055TIP3   OH278655   2.408   5.032  11.703  0.2877 -0.2916 -0.3431
19055TIP3    H178656   2.320   5.003  11.727 -0.6894  2.4809 -0.4271
19055TIP3    H278657   2.447   4.956  11.660 -1.7260 -1.8631  0.5141
19056TIP3   OH278658   6.275   2.006   0.017 -0.8464 -0.5745 -0.1450
19056TIP3    H178659   6.350   2.033   0.070  0.2224 -0.5988 -1.6471
19056TIP3    H278660   6.217   2.082   0.016  0.0658  0.1173 -0.6072
19057TIP3   OH278661   0.767   6.302   2.273 -0.2023 -0.1868  0.2903
19057TIP3    H178662   0.810   6.280   2.191 -0.4175  2.0707 -0.4680
19057TIP3    H278663   0.832   6.283   2.340  0.8021  0.1018 -0.5876
19058TIP3   OH278664   2.649   2.953   0.328  0.2405  0.1350 -0.1367
19058TIP3    H178665   2.563   2.935   0.366 -0.3145  0.7627 -1.0917
19058TIP3    H278666   2.708   2.957   0.403 -1.3066  4.1957  0.9603
19059TIP3   OH278667   1.230   3.057  11.591 -0.1705  0.4335 -0.3424
19059TIP3    H178668   1.166   2.986  11.587  0.2854 -0.0229  0.3653
19059TIP3    H278669   1.204   3.107  11.669 -1.1281  1.6622 -1.4308
19060TIP3   OH278670   0.912   6.306   3.945  0.5249  0.4066 -0.0497
19060TIP3    H178671   0.988   6.273   3.992  1.0836  2.7349  0.7763
19060TIP3    H278672   0.936   6.301   3.853  0.3271 -2.0388  0.0079
19061TIP3   OH278673   2.813   3.065   3.110 -0.4296  0.7428  0.4835
19061TIP3    H178674   2.848   3.020   3.033 -1.4935 -2.2123  1.6410
19061TIP3    H278675   2.891   3.097   3.156  0.3040  0.8793 -0.8173
19062TIP3   OH278676   0.286   1.226   3.827  0.4858  0.0584 -0.6239
19062TIP3    H178677   0.203   1.213   3.781  0.8250  0.7593 -1.4518
19062TIP3    H278678   0.305   1.319   3.817  0.5368  0.2427  1.0086
19063TIP3   OH278679   1.316   5.673   6.632 -0.3023 -0.2099  0.9983
19063TIP3    H178680   1.311   5.578   6.619 -2.9757 -0.1005  0.9950
19063TIP3    H278681   1.375   5.703   6.564 -0.0840 -1.7721  0.4733
19064TIP3   OH278682   5.090   1.657   3.855  0.4111  0.2365  0.4045
19064TIP3    H178683   5.053   1.676   3.941 -0.6358 -0.6299  0.1467
19064TIP3    H278684   5.026   1.600   3.812  0.2028  1.8980 -1.5484
19065TIP3   OH278685   4.502   1.700  13.865  0.2544 -0.1816 -0.2773
19065TIP3    H178686   4.547   1.661  13.789  0.8635  2.6465 -1.4350
19065TIP3    H278687   4.573   1.733  13.920 -0.2716  0.2653  0.1284
19066TIP3   OH278688   5.989   5.682   2.554  0.3606  0.2774 -0.0900
19066TIP3    H178689   5.985   5.739   2.630  1.4341 -0.0401  0.2062
19066TIP3    H278690   6.034   5.604   2.584 -0.4173 -0.4204 -0.6967
19067TIP3   OH278691   0.267   3.729   6.814  0.0817  0.3670  0.2568
19067TIP3    H178692   0.265   3.757   6.722 -2.3750 -0.9187 -0.1130
19067TIP3    H278693   0.200   3.781   6.857  0.2890  0.0025  1.0391
19068TIP3   OH278694   6.185   1.190   4.399 -0.7381  0.1763 -0.3144
19068TIP3    H178695   6.191   1.275   4.354 -1.2220 -0.5396 -1.7417
19068TIP3    H278696   6.268   1.147   4.381 -1.1046 -0.2924 -0.8915
19069TIP3   OH278697   6.077   0.055   3.873 -0.2509 -0.2148  0.4667
19069TIP3    H178698   6.169   0.082   3.870 -1.1088  2.6985 -1.5065
19069TIP3    H278699   6.067  -0.004   3.799  0.3018 -1.5638  1.4456
19070TIP3   OH278700   2.765   4.041  12.428  0.0554  0.6196 -0.4728
19070TIP3    H178701   2.814   3.979  12.374 -0.7611  0.8669 -1.5236
19070TIP3    H278702   2.809   4.125  12.414 -0.5927  0.8213 -1.3314
19071TIP3   OH278703   5.984   4.752  15.617 -0.1520  0.0047 -0.1782
19071TIP3    H178704   5.965   4.831  15.567  0.6497  0.2808 -0.0533
19071TIP3    H278705   5.929   4.759  15.695 -0.1728  0.3721 -0.2262
19072TIP3   OH278706   6.547   3.691  17.151 -0.5441 -0.1911  0.2149
19072TIP3    H178707   6.537   3.636  17.229 -2.6543  0.6999  0.6089
19072TIP3    H278708   6.587   3.771  17.184  1.8077 -1.1386 -0.2314
19073TIP3   OH278709   2.758   6.674   4.555 -0.1378  0.2993 -0.0340
19073TIP3    H178710   2.807   6.671   4.637  0.5724  0.5048 -0.4450
19073TIP3    H278711   2.760   6.767   4.529  0.4321  0.0926 -0.7525
19074TIP3   OH278712   6.252   1.400   3.703  0.7010  0.1666 -0.2325
19074TIP3    H178713   6.197   1.375   3.629 -1.1228 -0.5143  1.2871
19074TIP3    H278714   6.314   1.464   3.668 -0.8581  0.6904 -2.0849
19075TIP3   OH278715   5.561   4.158  13.750 -0.1559  0.0642 -0.3541
19075TIP3    H178716   5.633   4.119  13.800 -0.9437 -1.1410 -0.1698
19075TIP3    H278717   5.483   4.144  13.803 -0.9897 -1.1627 -1.8631
19076TIP3   OH278718   3.708   0.905  13.404 -0.5514  0.2678 -0.0089
19076TIP3    H178719   3.629   0.865  13.438  0.0974 -2.1870 -1.2865
19076TIP3    H278720   3.779   0.864  13.452 -0.0124  2.4526  1.1294
19077TIP3   OH278721   6.817   5.650  12.865  0.1847 -0.7237 -0.6068
19077TIP3    H178722   6.761   5.652  12.787  1.2714  2.6079 -1.3883
19077TIP3    H278723   6.906   5.656  12.830  0.7078  0.0553  0.8502
19078TIP3   OH278724   6.405   1.691   2.314  0.3213  0.6565 -0.1377
19078TIP3    H178725   6.410   1.606   2.271 -0.8879  0.6644 -0.3074
19078TIP3    H278726   6.338   1.739   2.266  2.5750  2.5612 -1.4845
19079TIP3   OH278727   3.995   4.273   3.821  0.4661 -0.2127  0.0467
19079TIP3    H178728   3.905   4.248   3.838  0.1712 -0.6558 -1.9759
19079TIP3    H278729   4.001   4.364   3.850 -1.3440  0.6221 -2.0677
19080TIP3   OH278730   5.647   6.579  16.693 -0.0552  0.5718  0.0055
19080TIP3    H178731   5.709   6.646  16.721 -1.4085  1.2515  1.4213
19080TIP3    H278732   5.671   6.501  16.744 -0.3997  0.8422  0.5776
19081TIP3   OH278733   6.812   5.765  14.360  0.0083  0.0954 -0.3809
19081TIP3    H178734   6.794   5.681  14.402  0.0433 -0.7507 -2.0329
19081TIP3    H278735   6.781   5.830  14.423  0.4676 -1.1331  1.1457
19082TIP3   OH278736   1.605   5.530  13.424 -0.4905  0.3297  0.1819
19082TIP3    H178737   1.577   5.600  13.483  0.6099  0.1928  0.8753
19082TIP3    H278738   1.542   5.533  13.352 -1.1559  1.2535  0.7918
19083TIP3   OH278739   5.990   2.014  13.128 -0.2045  0.2377 -0.1815
19083TIP3    H178740   6.016   1.935  13.081 -0.4864  0.4632 -0.7098
19083TIP3    H278741   5.961   2.075  13.060 -0.2217  0.7087  0.2437
19084TIP3   OH278742   4.912   6.597   3.752  0.6756 -0.0230 -0.8776
19084TIP3    H178743   4.940   6.686   3.730  0.1028 -0.0685 -1.8126
19084TIP3    H278744   4.978   6.566   3.814  1.2713  0.7978 -1.0901
19085TIP3   OH278745   6.478   6.318  12.496  0.1556  0.3151 -0.5761
19085TIP3    H178746   6.572   6.331  12.485  0.2681 -0.7471 -0.8530
19085TIP3    H278747   6.466   6.223  12.497 -0.9967  0.4383 -1.2781
19086TIP3   OH278748   3.704   1.704  13.518  0.0945  1.2785  0.1531
19086TIP3    H178749   3.685   1.720  13.610 -0.0637  1.8303  0.0266
19086TIP3    H278750   3.638   1.754  13.471 -1.2839 -0.8765 -0.2530
19087TIP3   OH278751   4.737   5.650  16.802 -0.0709 -0.1782  0.4684
19087TIP3    H178752   4.721   5.606  16.885 -1.0694  0.8934  0.8550
19087TIP3    H278753   4.720   5.742  16.821  0.7948  0.2153 -0.6417
19088TIP3   OH278754   4.335   1.231   2.142 -0.1554  0.3812  0.0339
19088TIP3    H178755   4.315   1.224   2.236 -0.3686 -4.0758 -0.2519
19088TIP3    H278756   4.250   1.218   2.099  0.3101  0.1479 -0.8195
19089TIP3   OH278757   2.979   0.150   4.536  0.2747  0.2449  0.7349
19089TIP3    H178758   2.980   0.093   4.613  1.4421 -0.5947  0.1137
19089TIP3    H278759   2.918   0.220   4.559 -2.3037 -1.9881  1.0161
19090TIP3   OH278760   5.802   0.130   5.510  0.0732  0.3591  0.6585
19090TIP3    H178761   5.863   0.059   5.532 -1.1224 -0.9254 -0.0979
19090TIP3    H278762   5.847   0.182   5.444  0.0992 -0.9723 -0.3871
19091TIP3   OH278763   0.565   0.736  12.531 -0.1536 -0.4802  0.3814
19091TIP3    H178764   0.619   0.670  12.576  1.2784 -0.9158 -1.8771
19091TIP3    H278765   0.476   0.718  12.560  0.5420 -1.7288  1.8263
19092TIP3   OH278766   0.176   5.536  15.924  0.0507 -0.2896  0.1415
19092TIP3    H178767   0.139   5.490  15.999  1.2781  0.6349  1.3493
19092TIP3    H278768   0.245   5.478  15.892  1.0798  0.3505  1.1814
19093TIP3   OH278769   2.380   0.946  13.852  0.2001 -0.0280 -0.4038
19093TIP3    H178770   2.306   0.884  13.853  0.5963 -0.5473 -1.8991
19093TIP3    H278771   2.384   0.977  13.761  2.0928 -0.3409 -0.4440
19094TIP3   OH278772   4.232   6.272   4.047  0.1311  0.0166 -0.1393
19094TIP3    H178773   4.153   6.299   4.095 -0.1071 -0.1919 -0.4096
19094TIP3    H278774   4.292   6.240   4.115 -0.2320 -0.3429  0.0173
19095TIP3   OH278775   3.655   1.967   1.009  0.4079  0.1156  0.5355
19095TIP3    H178776   3.697   2.053   1.001  0.4791  0.1909  1.5529
19095TIP3    H278777   3.719   1.913   1.056  0.1282 -0.3228  0.4194
19096TIP3   OH278778   1.292   6.480  12.683  0.0924 -0.3771  0.3932
19096TIP3    H178779   1.227   6.428  12.637 -1.1545 -0.0056  1.6801
19096TIP3    H278780   1.250   6.501  12.767  1.1810  1.3573  0.5248
19097TIP3   OH278781   5.383   4.252   2.208 -0.3929 -0.7222 -0.4932
19097TIP3    H178782   5.386   4.221   2.118  1.2491 -1.8913 -0.0567
19097TIP3    H278783   5.431   4.186   2.258  0.3107  0.8647  0.9574
19098TIP3   OH278784   1.645   3.971   3.852  0.2252  0.0213  0.1115
19098TIP3    H178785   1.650   3.947   3.760 -1.8099  2.4651 -0.6883
19098TIP3    H278786   1.610   3.894   3.895  2.5933 -1.6709 -0.8728
19099TIP3   OH278787   2.512   3.052  17.128  0.0076  0.5666  0.1965
19099TIP3    H178788   2.464   2.987  17.078  0.2104  0.9648 -0.5246
19099TIP3    H278789   2.551   3.109  17.062  0.8416  0.6955  0.7936
19100TIP3   OH278790   0.695   5.241   1.479 -0.1034 -0.3485 -0.2049
19100TIP3    H178791   0.630   5.171   1.470 -0.7014  0.0113  1.1805
19100TIP3    H278792   0.773   5.197   1.512 -0.6621 -0.3039  1.2387
19101TIP3   OH278793   0.277   0.174  15.403  0.4006  0.6435  0.2132
19101TIP3    H178794   0.280   0.140  15.492 -1.4821  0.7582  0.3321
19101TIP3    H278795   0.237   0.260  15.411  1.3696  1.1783 -0.5973
19102TIP3   OH278796   0.161   3.465  12.872  0.6112 -0.5640  0.0433
19102TIP3    H178797   0.143   3.494  12.782 -0.4301 -2.1595 -0.2853
19102TIP3    H278798   0.078   3.478  12.918 -0.2154 -3.9282 -0.3841
19103TIP3   OH278799   5.472   6.341   2.952  0.3077 -0.0073 -0.0504
19103TIP3    H178800   5.554   6.295   2.939  0.4933  0.1051  0.7152
19103TIP3    H278801   5.439   6.309   3.036  0.4857  1.3178  0.5388
19104TIP3   OH278802   2.239   2.863   0.008 -0.3284  0.2839  0.6004
19104TIP3    H178803   2.210   2.929   0.071 -0.7049  1.0461 -0.3552
19104TIP3    H278804   2.333   2.852   0.027  0.0593  2.1135 -0.1254
19105TIP3   OH278805   6.251   3.392  15.888  0.4410  0.2222  0.2959
19105TIP3    H178806   6.183   3.454  15.915  0.6571  0.1247  1.0613
19105TIP3    H278807   6.275   3.345  15.968  0.3198 -0.8190 -0.2636
19106TIP3   OH278808   0.808   0.188  11.269  0.0677 -0.1030 -0.3741
19106TIP3    H178809   0.747   0.208  11.199  0.0219 -0.2794 -0.3848
19106TIP3    H278810   0.873   0.130  11.228 -0.3696 -0.7962 -0.0806
19107TIP3   OH278811   1.755   3.722  14.476 -0.3573 -0.3575  0.0635
19107TIP3    H178812   1.776   3.795  14.418  0.4639 -0.4368  0.2604
19107TIP3    H278813   1.811   3.651  14.446 -2.2617 -1.3895 -1.1225
19108TIP3   OH278814   6.034   4.078  11.836  0.4851  0.1020  0.5461
19108TIP3    H178815   6.109   4.097  11.892  0.7173 -0.2834  0.3680
19108TIP3    H278816   6.066   4.092  11.747  0.6245 -1.0086  0.4213
19109TIP3   OH278817   0.866   1.109   3.678  0.2324 -0.3242  0.0877
19109TIP3    H178818   0.946   1.136   3.722 -0.2122  0.2681  0.5437
19109TIP3    H278819   0.796   1.150   3.728 -0.3870 -1.2181 -0.0193
19110TIP3   OH278820   4.882   0.063   1.065  0.3376  0.2022 -0.2578
19110TIP3    H178821   4.875   0.078   1.159 -1.2484  0.2748 -0.3829
19110TIP3    H278822   4.808   0.110   1.027  0.5354 -0.4480 -1.4754
19111TIP3   OH278823   3.267   5.760   4.111 -0.0585  0.0500  0.3051
19111TIP3    H178824   3.329   5.832   4.124  0.7751 -0.2209 -1.9681
19111TIP3    H278825   3.253   5.725   4.199  1.8781  1.0561  1.0580
19112TIP3   OH278826   4.386   0.772   2.368 -0.7633  0.2543  0.1539
19112TIP3    H178827   4.458   0.766   2.304 -0.1445 -0.7486  0.9267
19112TIP3    H278828   4.381   0.684   2.406 -1.4855  0.7082  1.1127
19113TIP3   OH278829   6.501   4.091  13.192 -0.2315  0.0933  0.0346
19113TIP3    H178830   6.566   4.091  13.261 -0.3134  0.6980  0.1112
19113TIP3    H278831   6.421   4.059  13.234 -0.0011 -0.6102 -0.0509
19114TIP3   OH278832   4.660   1.924  14.007  0.4607  0.4284 -0.0003
19114TIP3    H178833   4.629   2.002  14.054 -2.6432 -1.0134  0.4776
19114TIP3    H278834   4.676   1.955  13.918  1.0163  1.9995  0.6156
19115TIP3   OH278835   4.410   5.105  15.586  0.6682 -0.1425 -0.4492
19115TIP3    H178836   4.348   5.053  15.637  1.4838 -1.3520 -0.6617
19115TIP3    H278837   4.356   5.152  15.522  0.0879 -2.4373 -1.7244
19116TIP3   OH278838   3.091   4.258  14.457  0.3492 -0.6040 -0.6949
19116TIP3    H178839   3.033   4.304  14.396  0.9815  0.3542 -0.5743
19116TIP3    H278840   3.032   4.215  14.518 -0.2353  0.7372 -0.2961
19117TIP3   OH278841   1.984   3.814   3.400  0.4367  0.3438  0.3943
19117TIP3    H178842   2.049   3.785   3.335  0.4937 -0.5549  0.8496
19117TIP3    H278843   2.028   3.885   3.448  1.2045 -0.4793  0.9178
19118TIP3   OH278844   1.630   6.752  15.855 -0.2020 -0.4373  0.1852
19118TIP3    H178845   1.654   6.845  15.855 -1.9785  0.0601  1.9187
19118TIP3    H278846   1.698   6.709  15.803 -1.2969  2.3308 -3.7880
19119TIP3   OH278847   6.598   0.685  15.885 -0.3372  0.0129  0.9490
19119TIP3    H178848   6.510   0.665  15.916 -0.1999 -1.8304  0.2162
19119TIP3    H278849   6.593   0.674  15.790  0.3531  1.2360  0.7647
19120TIP3   OH278850   3.414   0.727   1.282  0.0569 -0.1877  0.3197
19120TIP3    H178851   3.500   0.693   1.307 -1.0901 -1.0540  3.2035
19120TIP3    H278852   3.364   0.649   1.257 -0.1671  0.2414 -0.6075
19121TIP3   OH278853   2.610   0.188   4.255  0.7720 -0.4584  0.0523
19121TIP3    H178854   2.537   0.229   4.207  1.7692  0.1624 -0.9583
19121TIP3    H278855   2.664   0.148   4.187  1.2151 -1.1873  0.8266
19122TIP3   OH278856   3.534   2.318  12.748  0.0037 -0.1434 -0.2849
19122TIP3    H178857   3.560   2.389  12.805 -2.1862  0.3201  0.1973
19122TIP3    H278858   3.580   2.241  12.781 -0.5990  0.2864  1.6010
19123TIP3   OH278859   5.749   6.402   0.432 -0.0891  0.4496 -0.0190
19123TIP3    H178860   5.679   6.370   0.488 -1.3701  0.4370 -1.5737
19123TIP3    H278861   5.771   6.328   0.376  0.8502  0.5857  0.1750
19124TIP3   OH278862   1.367   6.527   5.080 -0.0575 -0.1407  0.8231
19124TIP3    H178863   1.354   6.434   5.058 -0.3134  0.5734 -2.2886
19124TIP3    H278864   1.462   6.536   5.089  0.0712 -0.4641 -0.1139
19125TIP3   OH278865   3.118   1.233  11.113 -0.5585  0.4447  0.3238
19125TIP3    H178866   3.072   1.197  11.189 -1.7429  1.7235  0.2296
19125TIP3    H278867   3.085   1.322  11.105  0.5441  0.7574 -0.9045
19126TIP3   OH278868   5.654   6.798  13.981  0.2609  0.0256  0.3006
19126TIP3    H178869   5.585   6.731  13.979 -0.7556  1.0318  0.8386
19126TIP3    H278870   5.689   6.799  13.893 -1.4785  0.5742 -0.4079
19127TIP3   OH278871   0.894   3.952  15.819 -0.4116 -0.6866 -0.3254
19127TIP3    H178872   0.853   3.866  15.813 -3.7753  0.9594 -2.0039
19127TIP3    H278873   0.920   3.972  15.729 -0.8939  0.6336 -0.1695
19128TIP3   OH278874   2.602   3.426  16.340  0.2546  0.4340 -0.7373
19128TIP3    H178875   2.678   3.428  16.399 -1.0490  1.7395  0.9634
19128TIP3    H278876   2.549   3.353  16.372  0.9914 -0.7721 -2.2136
19129TIP3   OH278877   5.476   4.870   0.525  0.3508 -0.1250 -0.4965
19129TIP3    H178878   5.409   4.892   0.460  0.6908 -1.8658 -1.4632
19129TIP3    H278879   5.499   4.779   0.506  2.0331  0.0306  0.6907
19130TIP3   OH278880   0.357   2.129   3.373  0.4274  0.2190 -0.3643
19130TIP3    H178881   0.335   2.040   3.344  2.5693 -0.5933  0.3724
19130TIP3    H278882   0.313   2.186   3.311 -0.8557 -1.3576 -0.9498
19131TIP3   OH278883   2.483   1.311   5.478  0.2087 -0.9117 -0.3906
19131TIP3    H178884   2.516   1.323   5.568 -1.7245 -0.0907  0.2369
19131TIP3    H278885   2.494   1.217   5.461  0.2116 -1.1511  0.8693
19132TIP3   OH278886   1.860   4.278  14.416  0.0302 -0.0422 -0.3240
19132TIP3    H178887   1.854   4.230  14.499 -1.5463 -2.5148 -1.8064
19132TIP3    H278888   1.937   4.242  14.373 -1.1045 -1.2488 -1.4001
19133TIP3   OH278889   3.494   2.061   6.161 -0.8215  0.0154  0.5334
19133TIP3    H178890   3.414   2.095   6.199  0.7205  1.9892  2.1255
19133TIP3    H278891   3.549   2.039   6.237  0.2426 -1.0483 -0.5225
19134TIP3   OH278892   2.654   5.594   0.075  0.0302 -0.2240  0.3928
19134TIP3    H178893   2.706   5.515   0.063 -0.9480 -0.9810  1.0533
19134TIP3    H278894   2.632   5.622  -0.013 -1.3477 -1.8560  0.1918
19135TIP3   OH278895   3.657   1.624  14.629  0.8068  0.0965 -0.0738
19135TIP3    H178896   3.715   1.568  14.578 -0.1913 -0.3658 -0.7278
19135TIP3    H278897   3.611   1.677  14.563  0.1452  0.1152  0.3956
19136TIP3   OH278898   2.780   2.571  11.041 -0.1652  0.2778  0.4156
19136TIP3    H178899   2.796   2.517  10.964 -1.8284  2.3391 -1.4294
19136TIP3    H278900   2.722   2.518  11.096  0.5446 -0.9439  0.0061
19137TIP3   OH278901   3.181   4.739   0.859  0.0287 -0.2667 -0.1154
19137TIP3    H178902   3.117   4.732   0.931  0.2320  0.9113  0.1869
19137TIP3    H278903   3.130   4.719   0.780 -0.1494 -1.7918  0.3613
19138TIP3   OH278904   3.397   1.666   1.656  0.0483  0.3469 -0.1766
19138TIP3    H178905   3.474   1.624   1.692  0.2455  0.3893 -0.5473
19138TIP3    H278906   3.324   1.629   1.706  0.3075  0.3148  0.1783
19139TIP3   OH278907   1.893   6.616  16.104  0.1453  0.4137  0.1766
19139TIP3    H178908   1.822   6.575  16.054 -0.0928 -1.1730  1.7628
19139TIP3    H278909   1.852   6.641  16.187  1.1498  0.6249  0.6177
19140TIP3   OH278910   4.891   4.404   5.467 -0.3045  0.2661  0.4829
19140TIP3    H178911   4.962   4.408   5.531  1.0063 -0.1215 -0.9124
19140TIP3    H278912   4.897   4.316   5.431  0.1113  1.0491 -1.4156
19141TIP3   OH278913   4.344   3.401   4.627 -0.0212 -0.0153  0.0131
19141TIP3    H178914   4.362   3.313   4.595 -1.4164 -0.1684 -0.4019
19141TIP3    H278915   4.331   3.390   4.721  1.5738  0.0410  0.2572
19142TIP3   OH278916   1.531   6.007   2.466 -0.1564 -0.5836  0.1926
19142TIP3    H178917   1.530   5.912   2.473  2.0517 -0.7440 -1.1577
19142TIP3    H278918   1.489   6.026   2.382 -2.7447 -0.1884  1.5191
19143TIP3   OH278919   5.627   1.487   3.309 -0.1017  0.2554  0.4265
19143TIP3    H178920   5.680   1.557   3.270 -0.4587  0.3045  0.0271
19143TIP3    H278921   5.580   1.530   3.380  0.9808  0.0410  1.2798
19144TIP3   OH278922   2.744   2.534  11.620  0.5912  0.1120  0.1003
19144TIP3    H178923   2.659   2.578  11.628 -0.4758 -1.6100 -1.4819
19144TIP3    H278924   2.785   2.547  11.706 -1.6533  0.1823  1.2112
19145TIP3   OH278925   3.860   6.231  12.231  0.4256  0.3893 -0.1283
19145TIP3    H178926   3.807   6.201  12.304 -1.0326  1.8934 -0.5324
19145TIP3    H278927   3.913   6.155  12.207 -0.6932 -0.7914  1.0470
19146TIP3   OH278928   1.210   6.476  12.937  0.0485  0.1444  0.7008
19146TIP3    H178929   1.152   6.551  12.943  0.2484  0.1855  2.6582
19146TIP3    H278930   1.152   6.400  12.944  0.0767  0.1705  1.2977
19147TIP3   OH278931   6.516   4.936  15.329 -0.3687  0.0162 -0.2753
19147TIP3    H178932   6.600   4.894  15.343  0.1059  0.6586 -1.1602
19147TIP3    H278933   6.495   4.978  15.413 -0.7835 -1.8429  0.5650
19148TIP3   OH278934   5.383   1.305  16.391  0.4361  0.3432 -0.0994
19148TIP3    H178935   5.442   1.367  16.349  0.8060  0.4656  0.5930
19148TIP3    H278936   5.374   1.337  16.480  0.2626 -0.3419  0.1330
19149TIP3   OH278937   5.221   0.961  16.394 -0.5128 -0.4274 -0.5077
19149TIP3    H178938   5.261   0.890  16.343 -0.3891 -1.2585  0.7354
19149TIP3    H278939   5.239   1.040  16.342  2.2629 -0.8451 -0.2807
19150TIP3   OH278940   0.256   4.697   5.049 -0.2375 -0.1725 -0.7778
19150TIP3    H178941   0.200   4.683   4.972 -0.6458 -0.6350 -0.4036
19150TIP3    H278942   0.321   4.627   5.045 -0.8403 -0.7760 -0.1896
19151TIP3   OH278943   1.155   1.142  14.592  0.0771 -0.3180  0.5776
19151TIP3    H178944   1.068   1.168  14.622  0.5702  1.2562  0.6721
19151TIP3    H278945   1.214   1.210  14.625  1.2334 -0.9365 -0.1640
19152TIP3   OH278946   1.834   2.593  15.808  0.1590 -0.0959  0.0288
19152TIP3    H178947   1.912   2.642  15.782 -1.0505  1.4677 -0.7115
19152TIP3    H278948   1.866   2.504  15.822  1.8701  0.2568 -1.3974
19153TIP3   OH278949   5.902   3.980  12.707 -0.1686  0.2023  0.5690
19153TIP3    H178950   5.809   3.975  12.727 -0.0406 -1.9501  0.7108
19153TIP3    H278951   5.916   3.911  12.642  0.9277  1.9366 -1.1067
19154TIP3   OH278952   0.263   5.369  16.161 -0.1440  0.4143  0.5319
19154TIP3    H178953   0.326   5.387  16.231 -1.3720 -0.6711  1.9581
19154TIP3    H278954   0.276   5.276  16.142 -0.4772  0.4829 -0.0374
19155TIP3   OH278955   2.741   0.681   5.882 -0.3723 -0.1340 -0.3498
19155TIP3    H178956   2.770   0.686   5.791  0.4696 -2.4742 -0.2220
19155TIP3    H278957   2.695   0.598   5.889  0.1354 -0.2807  1.5350
19156TIP3   OH278958   0.906   4.344   4.014 -0.0617  0.0731  0.3708
19156TIP3    H178959   0.876   4.395   4.089 -0.4646  0.0727  0.2100
19156TIP3    H278960   0.850   4.373   3.941 -0.2617 -0.5611  0.2718
19157TIP3   OH278961   6.599   6.675  16.828 -0.2926  0.5664 -0.1502
19157TIP3    H178962   6.679   6.628  16.850 -0.5670 -0.3085 -0.9574
19157TIP3    H278963   6.600   6.680  16.732 -0.9176  1.0722 -0.1341
19158TIP3   OH278964   6.082   4.626   1.040  0.0012  0.2555 -0.0774
19158TIP3    H178965   6.094   4.553   0.979  0.9360  0.1538  0.2238
19158TIP3    H278966   6.019   4.684   0.995 -1.4546 -1.1685  0.1034
19159TIP3   OH278967   1.586   0.327  11.801  0.7082 -0.3970 -0.5461
19159TIP3    H178968   1.677   0.332  11.771  0.6327  2.8401 -0.4575
19159TIP3    H278969   1.539   0.385  11.741 -0.9208 -0.3396  0.7607
19160TIP3   OH278970   2.564   3.450  13.631 -0.1972  0.5343  0.1248
19160TIP3    H178971   2.538   3.371  13.679 -0.6095 -0.3731 -1.5399
19160TIP3    H278972   2.483   3.502  13.625 -0.0365  0.8642  0.8128
19161TIP3   OH278973   1.747   4.982  12.324 -0.1760 -0.2336  0.3336
19161TIP3    H178974   1.690   5.051  12.290  0.9216  0.8814  0.7571
19161TIP3    H278975   1.749   4.917  12.253  0.4825  1.1406 -0.9437
19162TIP3   OH278976   3.263   5.550  10.610  0.1794 -0.0551  0.4684
19162TIP3    H178977   3.302   5.535  10.524  1.1282  0.4976  0.7871
19162TIP3    H278978   3.225   5.466  10.634 -0.6635 -0.0363 -0.7705
19163TIP3   OH278979   2.125   0.613  17.205  0.4058 -0.3215 -0.6439
19163TIP3    H178980   2.191   0.589  17.271  1.0906 -0.6608 -1.4381
19163TIP3    H278981   2.060   0.543  17.210 -0.1085  0.2148  0.4122
19164TIP3   OH278982   5.752   6.544   2.152 -0.0144  0.1537 -0.3659
19164TIP3    H178983   5.672   6.567   2.104  0.5422  3.9369  0.3813
19164TIP3    H278984   5.756   6.608   2.223  1.8794 -2.1799  1.6720
19165TIP3   OH278985   4.943   3.644  15.620  0.0851  0.2691 -0.2963
19165TIP3    H178986   4.954   3.570  15.679 -2.3257 -0.1303 -0.3043
19165TIP3    H278987   5.032   3.667  15.592  0.9905 -1.3677  1.2258
19166TIP3   OH278988   0.171   5.971  12.720  0.5124 -0.1894 -0.2246
19166TIP3    H178989   0.111   5.978  12.645 -0.7546 -0.7647  0.7092
19166TIP3    H278990   0.211   6.057  12.727 -0.1545  0.1872 -0.9105
19167TIP3   OH278991   5.793   6.251   6.092  0.4373 -0.2966  0.0121
19167TIP3    H178992   5.758   6.338   6.109 -1.1841 -0.5421 -1.8393
19167TIP3    H278993   5.809   6.213   6.179 -0.3976  1.2162  0.8327
19168TIP3   OH278994   6.632   4.445  16.022 -0.2719 -0.8225  0.0370
19168TIP3    H178995   6.605   4.453  16.114  0.4253 -1.0425  0.2619
19168TIP3    H278996   6.570   4.383  15.984 -1.1417 -0.0206  0.1256
19169TIP3   OH278997   3.589   1.288  15.121  0.2752 -0.1322  0.4145
19169TIP3    H178998   3.591   1.194  15.134  1.7425 -0.2342 -0.4757
19169TIP3    H278999   3.630   1.302  15.035 -1.1100  1.2046 -0.0720
19170TIP3   OH279000   6.235   1.074   2.543 -0.0741  1.2715  0.0189
19170TIP3    H179001   6.162   1.101   2.598 -0.7295  3.0703 -1.6617
19170TIP3    H279002   6.305   1.137   2.564  1.4626 -1.1361  2.4726
19171TIP3   OH279003   6.009   2.681  16.661  0.2608 -0.4296  0.2259
19171TIP3    H179004   6.075   2.743  16.691 -0.5015  0.4708  0.0581
19171TIP3    H279005   5.956   2.663  16.739  0.0774 -0.3598  0.1179
19172TIP3   OH279006   6.140   3.931  12.375  0.1919  0.1894  0.2152
19172TIP3    H179007   6.231   3.907  12.357 -0.5630  0.0478 -3.7789
19172TIP3    H279008   6.144   4.023  12.400  1.4997 -0.0005  0.7303
19173TIP3   OH279009   1.364   6.522  15.266 -0.3933  0.2314  0.1349
19173TIP3    H179010   1.396   6.451  15.210  0.6381 -0.4042  1.4814
19173TIP3    H279011   1.273   6.498  15.286 -0.4608 -0.0297 -0.4782
19174TIP3   OH279012   1.924   3.511  14.625 -0.3476  0.0581 -0.2033
19174TIP3    H179013   1.908   3.489  14.533  0.7121 -2.8181  0.2676
19174TIP3    H279014   1.839   3.500  14.667 -0.8580  1.4733 -0.8070
19175TIP3   OH279015   2.372   0.397   4.408  0.0903  0.0402  0.2322
19175TIP3    H179016   2.378   0.327   4.472  1.8420 -0.2117 -0.1975
19175TIP3    H279017   2.421   0.365   4.332  0.1533  1.3552 -0.2960
19176TIP3   OH279018   5.185   4.370  12.564  0.3831 -0.4569  0.1345
19176TIP3    H179019   5.126   4.369  12.489  0.0190 -0.3166  0.4163
19176TIP3    H279020   5.261   4.420  12.534 -0.1921  0.4708  0.1828
19177TIP3   OH279021   5.134   6.035   4.034 -0.9177 -0.5259 -0.0649
19177TIP3    H179022   5.124   6.124   4.067 -2.2396 -0.4469 -0.6480
19177TIP3    H279023   5.181   5.988   4.103  0.3104  0.7603  0.0019
19178TIP3   OH279024   5.825   3.543  12.596  0.5328 -0.4453 -0.4593
19178TIP3    H179025   5.851   3.622  12.549 -0.5758  0.0436 -0.2455
19178TIP3    H279026   5.901   3.523  12.651  0.7751  0.5362 -0.4190
19179TIP3   OH279027   1.516   1.538   5.297 -0.1903  0.0292  0.6574
19179TIP3    H179028   1.461   1.587   5.358 -0.6476  0.7065 -0.2946
19179TIP3    H279029   1.590   1.507   5.351  0.1990  1.9034  1.2242
19180TIP3   OH279030   3.140   4.574   5.517 -0.0017 -0.2180 -0.4616
19180TIP3    H179031   3.230   4.561   5.546  0.3813  0.6826 -1.1883
19180TIP3    H279032   3.148   4.610   5.428 -1.1069 -1.5178 -1.1201
19181TIP3   OH279033   1.185   4.656  11.114 -0.1445 -0.3155 -0.2120
19181TIP3    H179034   1.090   4.661  11.129 -0.1989 -1.0199 -0.2982
19181TIP3    H279035   1.205   4.563  11.121  0.9805  0.0810  2.3129
19182TIP3   OH279036   4.197   4.330  17.076  0.4419  0.0629 -0.0347
19182TIP3    H179037   4.287   4.320  17.045  1.5056  1.5742  2.4426
19182TIP3    H279038   4.197   4.288  17.162 -1.3308 -0.2805 -0.1937
19183TIP3   OH279039   5.956   5.653  14.352 -0.6947 -0.0108  0.1531
19183TIP3    H179040   6.008   5.706  14.291  0.2606  0.3231  1.2483
19183TIP3    H279041   6.014   5.637  14.426 -0.9769 -2.6144 -0.1610
19184TIP3   OH279042   0.700   2.764  15.657 -0.3502  0.3254 -0.0246
19184TIP3    H179043   0.615   2.742  15.695 -1.7637  2.1435 -2.0508
19184TIP3    H279044   0.713   2.698  15.589 -1.5118  1.7218 -1.6431
19185TIP3   OH279045   4.915   4.156  10.933  0.6299  0.1667 -0.6607
19185TIP3    H179046   4.901   4.223  10.865 -2.4356  0.3074  0.0203
19185TIP3    H279047   4.832   4.109  10.937  1.8772 -1.9874  0.7198
19186TIP3   OH279048   5.370   4.633   3.001  0.2966 -0.0256  0.0354
19186TIP3    H179049   5.409   4.608   2.917  0.6468 -0.9807  0.4805
19186TIP3    H279050   5.359   4.728   2.995  2.7809  0.2824 -0.0566
19187TIP3   OH279051   0.775   6.546  15.122 -0.4397 -1.0014  0.1268
19187TIP3    H179052   0.738   6.612  15.182 -1.0372 -0.9915 -0.2488
19187TIP3    H279053   0.855   6.586  15.090 -1.0149 -0.2709 -0.4215
19188TIP3   OH279054   0.171   1.901   0.767 -0.1470 -0.0582  0.4914
19188TIP3    H179055   0.112   1.868   0.834 -1.0400 -0.0788 -0.2836
19188TIP3    H279056   0.118   1.903   0.687  0.1844  2.2745  0.3010
19189TIP3   OH279057   5.988   5.384   2.955 -0.2048  0.3975 -0.1782
19189TIP3    H179058   6.045   5.363   3.029 -0.4385 -0.9641 -0.3673
19189TIP3    H279059   5.906   5.340   2.975  0.1235 -1.0561 -1.8238
19190TIP3   OH279060   1.825   4.843  15.832  0.0549  0.1867 -0.0091
19190TIP3    H179061   1.918   4.860  15.824  0.2846 -0.9457  0.2025
19190TIP3    H279062   1.783   4.922  15.798  1.0949  1.3124  1.2645
19191TIP3   OH279063   3.105   0.171   3.247 -0.1349 -0.2125  0.5804
19191TIP3    H179064   3.063   0.091   3.278  0.8201 -0.3361  1.5901
19191TIP3    H279065   3.037   0.216   3.197 -1.2173 -0.8090  1.4831
19192TIP3   OH279066   1.840   1.648   4.770  0.2968  0.1625  0.2014
19192TIP3    H179067   1.811   1.731   4.807 -2.5470  0.0554 -1.6359
19192TIP3    H279068   1.875   1.599   4.845 -3.0630  0.8957  2.3665
19193TIP3   OH279069   1.768   0.341  11.394 -0.4675  0.5316  0.1641
19193TIP3    H179070   1.721   0.422  11.373  1.7445  1.3095 -2.1070
19193TIP3    H279071   1.795   0.306  11.309 -0.7817 -2.2559  1.1432
19194TIP3   OH279072   2.730   4.581  14.769 -0.2114  0.1835 -0.4003
19194TIP3    H179073   2.724   4.651  14.835  0.0829 -2.0339  2.0747
19194TIP3    H279074   2.656   4.597  14.711 -1.0125  1.7067  0.9838
19195TIP3   OH279075   0.164   3.172   1.681  0.6055  0.1494  0.0415
19195TIP3    H179076   0.075   3.180   1.646 -0.1970 -0.9901  1.7889
19195TIP3    H279077   0.173   3.247   1.740  1.2605  0.9629 -1.0762
19196TIP3   OH279078   2.412   6.772  14.515  0.8551  0.0219 -0.0832
19196TIP3    H179079   2.335   6.823  14.490 -0.6081 -1.6504  0.9545
19196TIP3    H279080   2.458   6.757  14.432 -0.3976  0.2582 -0.8360
19197TIP3   OH279081   2.241   3.285  12.954 -0.0005 -0.3619  0.0105
19197TIP3    H179082   2.295   3.255  12.881 -1.9215  0.2978 -1.6951
19197TIP3    H279083   2.299   3.342  13.004  0.5991  1.1701 -2.3601
19198TIP3   OH279084   5.678   5.634  11.622 -0.2475  0.0335  0.5496
19198TIP3    H179085   5.626   5.624  11.702 -2.3689  0.0483 -0.7878
19198TIP3    H279086   5.679   5.728  11.605 -1.5472 -0.1406 -0.5482
19199TIP3   OH279087   3.838   1.629   1.930  0.3610  0.0229  0.1953
19199TIP3    H179088   3.906   1.606   1.994 -1.7178 -3.6545  1.2279
19199TIP3    H279089   3.784   1.695   1.975  0.9024 -0.0301  0.9291
19200TIP3   OH279090   4.959   2.948   2.375  0.5177 -0.2988 -0.2719
19200TIP3    H179091   4.933   2.866   2.415  0.4029  0.8021  1.9872
19200TIP3    H279092   5.049   2.962   2.403  0.1927  0.8536  0.2454
19201TIP3   OH279093   3.332   6.192  16.797 -0.2595  0.2355  0.2699
19201TIP3    H179094   3.342   6.280  16.833  3.7058  0.0843 -0.1901
19201TIP3    H279095   3.257   6.198  16.738 -1.5291  2.6690  2.0645
19202TIP3   OH279096   6.216   2.298  17.248  0.4094  0.0273 -0.1277
19202TIP3    H179097   6.252   2.310  17.160 -0.1171  1.8092 -0.1070
19202TIP3    H279098   6.124   2.277  17.234  0.5196 -0.5665 -0.0168
19203TIP3   OH279099   5.505   3.011  10.304 -0.0466 -0.5862 -0.7032
19203TIP3    H179100   5.426   2.959  10.322 -1.3426  1.9902  1.3890
19203TIP3    H279101   5.576   2.961  10.345 -0.9208 -1.7621 -0.5801
19204TIP3   OH279102   1.482   3.640  14.564  0.2403 -0.3034  0.2242
19204TIP3    H179103   1.451   3.560  14.523 -0.0807  0.2619 -0.6639
19204TIP3    H279104   1.568   3.655  14.525  0.5079 -0.4849  0.7526
19205TIP3   OH279105   1.436   6.414   6.377 -0.1158 -0.0443  0.3225
19205TIP3    H179106   1.410   6.482   6.439 -1.1405  0.2985 -0.4703
19205TIP3    H279107   1.357   6.363   6.363  0.3603 -0.7021  0.0224
19206TIP3   OH279108   3.779   0.587   0.600  0.2576 -0.4359 -0.0827
19206TIP3    H179109   3.699   0.640   0.600 -0.7832 -1.9334 -2.0811
19206TIP3    H279110   3.812   0.594   0.689 -2.1315  0.1914  0.7949
19207TIP3   OH279111   4.265   6.549  11.333 -0.1918 -0.0978  0.4985
19207TIP3    H179112   4.310   6.628  11.303 -0.1775 -0.2002  0.2513
19207TIP3    H279113   4.172   6.567  11.315 -0.1621 -0.2468  0.1900
19208TIP3   OH279114   4.115   0.453  13.558  0.0706  0.4010  0.0790
19208TIP3    H179115   4.185   0.412  13.506 -0.0938 -0.2431  0.3772
19208TIP3    H279116   4.080   0.383  13.612  0.1587  1.0470  0.9867
19209TIP3   OH279117   3.665   4.439   3.013 -0.2518 -0.4954 -0.1268
19209TIP3    H179118   3.653   4.406   3.102 -1.5606 -1.1138 -0.5309
19209TIP3    H279119   3.650   4.364   2.956  1.4043 -0.3023 -0.8504
19210TIP3   OH279120   2.361   5.564   1.139  0.1090 -0.1777  0.0106
19210TIP3    H179121   2.316   5.513   1.072 -0.1245  1.0051 -0.7604
19210TIP3    H279122   2.307   5.553   1.218  0.4300 -1.6373  0.0347
19211TIP3   OH279123   4.139   6.434   0.036 -0.3043 -0.1190 -0.3664
19211TIP3    H179124   4.161   6.343   0.056 -0.1845  0.2727  1.3956
19211TIP3    H279125   4.203   6.486   0.086 -3.7053  1.0113  3.0643
19212TIP3   OH279126   4.121   0.144   3.156 -0.0004 -0.5459 -0.1484
19212TIP3    H179127   4.190   0.083   3.180 -1.5286 -2.0840  0.4425
19212TIP3    H279128   4.106   0.196   3.235  0.0975 -0.5920 -0.0989
19213TIP3   OH279129   1.765   4.760   2.790 -0.1075  0.1950 -0.0050
19213TIP3    H179130   1.678   4.777   2.826  0.5572  0.7470  1.3780
19213TIP3    H279131   1.790   4.675   2.827  0.7542  0.9595  1.1922
19214TIP3   OH279132   1.705   5.705  12.097 -0.0760 -0.5248  0.2166
19214TIP3    H179133   1.707   5.688  12.002 -1.4615 -0.6551  0.1989
19214TIP3    H279134   1.781   5.760  12.113  2.2049 -3.3844 -0.3972
19215TIP3   OH279135   5.965   5.873  13.948  0.1037 -0.2129  0.5638
19215TIP3    H179136   5.915   5.792  13.957 -1.7716  0.8795  0.1670
19215TIP3    H279137   5.929   5.915  13.871 -0.9801  2.4208  2.4455
19216TIP3   OH279138   2.923   2.135   6.552 -0.0354 -0.3233  0.3758
19216TIP3    H179139   2.958   2.140   6.463 -1.0672 -1.0073 -0.0740
19216TIP3    H279140   2.955   2.051   6.585  0.2887 -0.1016  0.6281
19217TIP3   OH279141   1.929   2.152   3.420  0.1323  0.5044  0.5702
19217TIP3    H179142   1.954   2.172   3.511 -0.0094  1.0769  0.4831
19217TIP3    H279143   1.995   2.088   3.392  0.3552  0.5459  0.9799
19218TIP3   OH279144   6.156   1.765  11.492 -0.0777  0.0219 -0.3008
19218TIP3    H179145   6.132   1.840  11.438 -0.5375  0.4707  0.5126
19218TIP3    H279146   6.213   1.802  11.560 -1.1622 -0.1684  0.7367
19219TIP3   OH279147   0.212   3.120  12.757 -0.1674  0.3508  0.0067
19219TIP3    H179148   0.186   3.116  12.849  1.1736 -0.1687  0.3710
19219TIP3    H279149   0.186   3.035  12.722 -0.3278  0.4051 -0.0087
19220TIP3   OH279150   0.675   1.690  10.795 -0.1115  0.3271 -0.5862
19220TIP3    H179151   0.679   1.700  10.700  3.8414 -2.2438 -0.8095
19220TIP3    H279152   0.766   1.678  10.822 -1.3350 -1.0249  3.2955
19221TIP3   OH279153   4.508   5.132  14.886 -0.0132 -0.7776 -0.3078
19221TIP3    H179154   4.567   5.192  14.840 -0.8858  0.5996  0.3313
19221TIP3    H279155   4.490   5.176  14.969  0.1492 -2.4187  0.6049
19222TIP3   OH279156   0.507   3.043  13.028  0.3477  0.5982  0.0157
19222TIP3    H179157   0.568   2.980  12.990  0.7732  1.0698 -0.0883
19222TIP3    H279158   0.440   2.989  13.070  1.5817  0.0664  1.3585
19223TIP3   OH279159   6.590   4.293   0.981 -0.4646  0.0483  0.0257
19223TIP3    H179160   6.663   4.241   1.014 -0.0585  0.5749 -0.0363
19223TIP3    H279161   6.533   4.306   1.057 -1.8112 -2.5383 -0.4817
19224TIP3   OH279162   4.453   0.576   4.024 -0.0420  0.2806  0.1130
19224TIP3    H179163   4.407   0.657   4.002  0.6091  0.4927 -0.4864
19224TIP3    H279164   4.479   0.539   3.939 -0.6092 -0.7163  0.3675
19225TIP3   OH279165   2.962   0.420   1.036  0.5844  0.0634 -0.1297
19225TIP3    H179166   2.889   0.422   1.098  0.7611 -0.3366  0.0918
19225TIP3    H279167   2.937   0.351   0.973  0.1207  0.8846 -0.8552
19226TIP3   OH279168   0.866   2.694  14.999  0.7454  0.5041 -0.1034
19226TIP3    H179169   0.784   2.742  15.002 -1.2997 -2.7642 -1.4833
19226TIP3    H279170   0.924   2.742  15.059 -1.8619  3.3443  0.2360
19227TIP3   OH279171   2.404   2.322  11.626 -0.3319  0.3445  0.6538
19227TIP3    H179172   2.439   2.256  11.686 -0.2175  0.0594  0.2781
19227TIP3    H279173   2.401   2.277  11.541  0.2334  0.9863  0.2903
19228TIP3   OH279174   2.994   0.864  13.419 -0.4672 -0.5263 -0.0539
19228TIP3    H179175   3.049   0.882  13.343 -0.8241  0.4402 -0.0907
19228TIP3    H279176   3.042   0.797  13.468  0.9582  0.6292  0.1616
19229TIP3   OH279177   1.616   6.388  16.362 -0.0945 -0.8798  0.0370
19229TIP3    H179178   1.644   6.440  16.287 -1.3913  0.3876  0.3770
19229TIP3    H279179   1.696   6.368  16.409  0.8759 -2.8294 -2.3770
19230TIP3   OH279180   2.321   5.194   0.085  0.1403  0.5207  0.2428
19230TIP3    H179181   2.283   5.108   0.098 -0.8271  0.9956  0.6256
19230TIP3    H279182   2.320   5.234   0.172  0.9630  0.7724  0.1469
19231TIP3   OH279183   1.300   0.082  12.181  0.1304  0.2766  0.0966
19231TIP3    H179184   1.310   0.124  12.095  1.4709 -1.1294 -0.4668
19231TIP3    H279185   1.285   0.154  12.241 -0.0290  1.3545 -1.2048
19232TIP3   OH279186   6.206   1.183  15.702 -0.2237 -0.6115 -0.2332
19232TIP3    H179187   6.136   1.177  15.637 -0.5942 -0.4590  0.1523
19232TIP3    H279188   6.282   1.215  15.653 -0.6348 -0.0293 -0.4970
19233TIP3   OH279189   0.599   4.162   1.260 -0.2595 -0.6428 -0.9478
19233TIP3    H179190   0.608   4.233   1.323 -0.7363 -0.1994 -1.3679
19233TIP3    H279191   0.662   4.096   1.288  2.4751  1.2777 -2.3466
19234TIP3   OH279192   1.707   6.803  11.297 -0.9979  0.6907  0.1849
19234TIP3    H179193   1.627   6.852  11.276 -0.8666  0.9694  0.3223
19234TIP3    H279194   1.765   6.817  11.222 -0.9038  0.8699  0.2899
19235TIP3   OH279195   1.605   5.603   0.385 -0.3231 -0.3061  0.1198
19235TIP3    H179196   1.560   5.557   0.314 -1.7525  1.4393 -0.1471
19235TIP3    H279197   1.674   5.653   0.342  0.8099 -1.6575  0.3357
19236TIP3   OH279198   5.049   4.655   5.012 -0.2930  0.3991 -0.4785
19236TIP3    H179199   5.080   4.647   5.102 -0.3936 -1.4178 -0.5824
19236TIP3    H279200   5.119   4.614   4.960 -0.5539  0.8193 -1.1527
19237TIP3   OH279201   0.417   4.391   1.784 -0.1438  0.4510 -0.3863
19237TIP3    H179202   0.343   4.331   1.780 -1.5767  2.0592  1.1207
19237TIP3    H279203   0.436   4.399   1.878 -0.0621  2.4517 -0.5631
19238TIP3   OH279204   4.814   0.464   2.112  0.3726 -0.4079 -0.2076
19238TIP3    H179205   4.778   0.524   2.048  1.1055 -1.1529 -1.3325
19238TIP3    H279206   4.847   0.520   2.182  0.9052  0.4871 -1.1716
19239TIP3   OH279207   5.850   3.062  16.319  0.0137 -0.1780  0.0243
19239TIP3    H179208   5.797   3.109  16.254 -1.2115  0.4501  1.4410
19239TIP3    H279209   5.825   2.971  16.309 -0.9319  0.0481  0.3176
19240TIP3   OH279210   1.742   0.177  15.832 -0.4415  0.0502  0.4654
19240TIP3    H179211   1.814   0.215  15.881  0.9770 -1.1837 -0.6103
19240TIP3    H279212   1.707   0.249  15.779  0.7873  0.3753  0.0953
19241TIP3   OH279213   6.697   4.522   4.698  0.9879 -0.4485  0.2039
19241TIP3    H179214   6.672   4.445   4.646 -0.2706  1.4942 -2.1586
19241TIP3    H279215   6.663   4.503   4.785  2.2519 -3.3466  0.1244
19242TIP3   OH279216   4.819   4.585  10.475 -0.0864 -0.3011 -0.0066
19242TIP3    H179217   4.858   4.599  10.388  2.3014 -0.2744  1.0363
19242TIP3    H279218   4.839   4.665  10.523 -0.3931 -0.7944  0.9458
19243TIP3   OH279219   2.678   3.238  12.755 -0.3085  0.0503 -0.0403
19243TIP3    H179220   2.669   3.201  12.844 -1.2999 -0.5360 -0.3774
19243TIP3    H279221   2.768   3.217  12.730 -0.2272 -0.3583  0.5732
19244TIP3   OH279222   5.858   6.622  13.309 -0.5837 -0.4297  0.2957
19244TIP3    H179223   5.840   6.574  13.390  0.5938 -2.8303 -0.8188
19244TIP3    H279224   5.896   6.557  13.250 -1.1680  1.3329 -2.1160
19245TIP3   OH279225   6.322   3.573  14.818  0.1802 -0.3525  0.0078
19245TIP3    H179226   6.251   3.550  14.758 -0.3708 -0.7554  0.7954
19245TIP3    H279227   6.344   3.663  14.795 -1.1532  0.0631  0.2891
19246TIP3   OH279228   1.430   0.842  16.504  0.0497 -0.0855 -0.5785
19246TIP3    H179229   1.417   0.916  16.444  1.3474  0.3723 -0.2961
19246TIP3    H279230   1.431   0.765  16.446 -1.5067  0.0793 -0.8568
19247TIP3   OH279231   3.987   4.754  15.984 -0.3334 -0.4695  0.4471
19247TIP3    H179232   4.068   4.709  16.008 -1.7034 -2.8216  0.8324
19247TIP3    H279233   4.015   4.827  15.928  2.0685 -0.9656  0.9663
19248TIP3   OH279234   3.278   2.079   3.327  0.7589 -1.1264 -0.0617
19248TIP3    H179235   3.316   2.088   3.414  1.5228 -0.3514 -0.4650
19248TIP3    H279236   3.321   2.003   3.289  0.6482 -1.2817  0.1260
19249TIP3   OH279237   4.933   1.070   5.756  0.4690  0.4541 -0.3772
19249TIP3    H179238   4.880   1.149   5.753  0.0040  0.1381 -0.5764
19249TIP3    H279239   4.928   1.035   5.667 -0.0212 -0.2512 -0.0787
19250TIP3   OH279240   3.833   6.040   4.280  0.6244  0.5401 -0.2356
19250TIP3    H179241   3.917   6.006   4.308  0.6069 -0.2440 -1.0797
19250TIP3    H279242   3.842   6.050   4.185 -0.3641  0.0161 -0.3962
19251TIP3   OH279243   3.138   3.780  16.953 -0.4869 -0.1970 -0.4140
19251TIP3    H179244   3.102   3.867  16.935 -0.4794  0.1431  1.1266
19251TIP3    H279245   3.088   3.749  17.028  1.7936 -0.0763  1.2320
19252TIP3   OH279246   3.622   5.048   5.088  0.3735 -0.2260  0.2981
19252TIP3    H179247   3.588   5.007   5.168  1.7856  0.0879  1.0827
19252TIP3    H279248   3.641   4.974   5.030 -0.7814 -0.4519  0.1990
19253TIP3   OH279249   4.221   3.384   3.935 -0.7586 -0.3103  0.6203
19253TIP3    H179250   4.200   3.345   4.020  2.2617 -0.7706  1.1832
19253TIP3    H279251   4.258   3.469   3.955 -1.6482  0.3230 -0.3491
19254TIP3   OH279252   2.221   0.884  11.960 -0.6818 -0.2717 -0.0173
19254TIP3    H179253   2.168   0.837  11.896  1.2386  1.4267 -2.9504
19254TIP3    H279254   2.161   0.948  11.998 -1.9545 -1.5791  0.2287
19255TIP3   OH279255   5.346   4.395   0.398  0.3339 -0.7347  0.4147
19255TIP3    H179256   5.360   4.372   0.306 -0.3428 -0.7667  0.3132
19255TIP3    H279257   5.316   4.313   0.439 -1.7013 -0.1661  0.1385
19256TIP3   OH279258   0.977   6.302  12.295 -0.4709 -0.5486 -0.2812
19256TIP3    H179259   0.882   6.307  12.303 -0.2939  1.5501  1.0128
19256TIP3    H279260   1.006   6.393  12.293  1.6446 -1.1337  1.3787
19257TIP3   OH279261   4.748   3.007   5.231  0.7086  0.5888  0.0314
19257TIP3    H179262   4.784   3.063   5.299  1.8321  1.3273 -1.1392
19257TIP3    H279263   4.723   2.926   5.276 -0.1458  1.7117  1.5763
19258TIP3   OH279264   4.500   4.619  10.471  0.0499  0.8037  0.2304
19258TIP3    H179265   4.585   4.636  10.431 -0.2389  0.0334 -0.7210
19258TIP3    H279266   4.500   4.525  10.490 -0.0229  1.0678  1.5477
19259TIP3   OH279267   1.287   3.546  14.923  0.3383 -0.1385  0.2876
19259TIP3    H179268   1.244   3.493  14.856 -0.5836 -0.8810  1.4512
19259TIP3    H279269   1.216   3.592  14.967  1.0199  1.0611  0.1628
19260TIP3   OH279270   6.161   6.751  17.021 -0.1319 -0.1193 -0.3263
19260TIP3    H179271   6.237   6.708  17.062  0.6302  0.2473 -1.3540
19260TIP3    H279272   6.131   6.813  17.087  1.1310  0.5163 -0.3323
19261TIP3   OH279273   2.172   5.513   4.829 -0.2488  0.3041 -0.1052
19261TIP3    H179274   2.220   5.447   4.780 -0.4079 -0.0732  0.2412
19261TIP3    H279275   2.082   5.480   4.833 -0.4455  0.7902 -0.3721
19262TIP3   OH279276   5.353   0.188  13.705 -0.3866 -0.4247 -0.4828
19262TIP3    H179277   5.321   0.218  13.790 -0.4044 -1.3409 -0.1620
19262TIP3    H279278   5.437   0.233  13.694 -0.4730 -0.1561 -0.0772
19263TIP3   OH279279   4.191   6.161  11.719  0.0058  0.1166 -0.4143
19263TIP3    H179280   4.142   6.239  11.694 -0.6894 -0.8060 -2.0110
19263TIP3    H279281   4.157   6.092  11.662  1.1478 -1.1854  0.4432
19264TIP3   OH279282   1.355   1.749   0.290  0.3555 -0.0483  0.4083
19264TIP3    H179283   1.331   1.835   0.256  2.1904  0.7403  1.0570
19264TIP3    H279284   1.271   1.710   0.317 -0.6688  0.8676 -1.3613
19265TIP3   OH279285   3.893   4.565  12.011  0.0303 -0.2256  0.1562
19265TIP3    H179286   3.818   4.610  12.048 -0.3843  0.0345 -0.9747
19265TIP3    H279287   3.965   4.628  12.020  0.0430 -0.3535  0.9567
19266TIP3   OH279288   0.835   3.482   2.820  0.0648 -0.3557  0.0603
19266TIP3    H179289   0.787   3.408   2.854 -0.1242 -0.0426  0.4754
19266TIP3    H279290   0.829   3.549   2.888  0.4448 -0.0487 -0.2019
19267TIP3   OH279291   1.505   2.063   5.837  0.1966  0.3945 -0.0428
19267TIP3    H179292   1.573   2.058   5.904 -0.7208  1.2940  0.9929
19267TIP3    H279293   1.533   2.133   5.778 -0.8453  2.2602  1.6031
19268TIP3   OH279294   3.115   6.809   6.089  0.2691 -0.0485 -0.6461
19268TIP3    H179295   3.041   6.819   6.149 -0.0789 -1.8686 -0.7247
19268TIP3    H279296   3.193   6.819   6.144 -0.0428 -0.1635 -0.1775
19269TIP3   OH279297   3.807   4.053  11.734  0.4703 -0.1233 -0.2150
19269TIP3    H179298   3.838   3.978  11.684  0.6234 -0.3672  0.2405
19269TIP3    H279299   3.779   4.117  11.668 -3.3779 -2.1047 -0.6609
19270TIP3   OH279300   6.360   5.347   5.306 -0.0622  0.5180  0.1722
19270TIP3    H179301   6.437   5.295   5.327 -0.4771 -0.0442  0.3308
19270TIP3    H279302   6.391   5.413   5.244  0.1315 -0.9795 -1.3648
19271TIP3   OH279303   6.696   0.268   6.168  0.0015 -0.3320 -0.0034
19271TIP3    H179304   6.681   0.246   6.076 -0.7476 -0.3016  0.1095
19271TIP3    H279305   6.624   0.225   6.215  1.1511 -1.4826  0.7183
19272TIP3   OH279306   2.782   5.629  12.412 -0.3574  0.7456  0.0086
19272TIP3    H179307   2.826   5.694  12.468 -0.1710  1.4462 -0.9429
19272TIP3    H279308   2.845   5.611  12.343 -1.1016  0.8781 -0.7115
19273TIP3   OH279309   0.304   1.666   5.679  0.1119 -0.0597 -0.2574
19273TIP3    H179310   0.296   1.604   5.751  0.8993 -0.7561 -0.7495
19273TIP3    H279311   0.229   1.648   5.623 -1.1202  1.2427  0.9405
19274TIP3   OH279312   2.483   2.522   3.366  0.2309  0.0996  0.3079
19274TIP3    H179313   2.535   2.471   3.305  0.5628  0.8392 -0.0377
19274TIP3    H279314   2.533   2.603   3.380 -1.2004  1.1981 -0.6969
19275TIP3   OH279315   3.134   0.296  12.551 -0.5692 -0.1875 -0.4168
19275TIP3    H179316   3.098   0.361  12.611 -1.0089  0.6554 -1.5810
19275TIP3    H279317   3.126   0.336  12.464 -0.3333 -1.5612 -1.0869
19276TIP3   OH279318   5.646   5.264   3.584 -0.2260  0.4149  0.3869
19276TIP3    H179319   5.669   5.172   3.596 -0.6192  0.4140  1.1929
19276TIP3    H279320   5.554   5.269   3.609 -1.0093  0.5081 -2.3620
19277TIP3   OH279321   4.583   0.741  15.673  0.7191  0.5676 -0.0584
19277TIP3    H179322   4.592   0.802  15.600 -2.0772 -0.2246 -1.1038
19277TIP3    H279323   4.595   0.796  15.751 -0.8980  2.2960 -1.0054
19278TIP3   OH279324   4.538   2.480  11.145 -0.2683  0.7532  0.2038
19278TIP3    H179325   4.609   2.533  11.182  1.4436  0.1897 -2.1701
19278TIP3    H279326   4.512   2.422  11.217  0.6087  2.0089  1.5800
19279TIP3   OH279327   2.648   6.047   0.338 -0.3984 -0.2332  0.1646
19279TIP3    H179328   2.591   5.970   0.345 -1.2949  0.3537 -0.6968
19279TIP3    H279329   2.707   6.026   0.266 -1.0943  0.1685 -0.5302
19280TIP3   OH279330   5.291   0.558  14.124 -0.4837 -0.4583  0.1522
19280TIP3    H179331   5.363   0.566  14.186  0.1826  0.8769 -0.7735
19280TIP3    H279332   5.212   0.572  14.177  0.1252  1.5015  0.5829
19281TIP3   OH279333   3.868   5.226  11.583 -0.2996  0.1815  0.2981
19281TIP3    H179334   3.835   5.308  11.547  0.4827  1.3381  2.1166
19281TIP3    H279335   3.814   5.158  11.543 -2.5380  1.7568  0.5917
19282TIP3   OH279336   2.904   3.208   5.798 -0.2492 -0.1424 -0.1213
19282TIP3    H179337   2.999   3.220   5.800 -0.4483  1.6445 -0.2014
19282TIP3    H279338   2.886   3.173   5.711  0.4507 -1.6731  0.3380
19283TIP3   OH279339   4.508   2.749   0.914  0.1739  0.2985 -0.0087
19283TIP3    H179340   4.535   2.738   1.005  1.8733  0.5321 -0.4657
19283TIP3    H279341   4.564   2.819   0.881  1.7183 -1.8498 -2.0719
19284TIP3   OH279342   5.253   0.009  12.206  0.7582  0.1494  0.2591
19284TIP3    H179343   5.264   0.067  12.130  1.0965  1.8447  1.5618
19284TIP3    H279344   5.182  -0.050  12.181  0.2215  1.3015 -1.0194
19285TIP3   OH279345   5.669   6.655   6.031  0.0179  0.4903 -0.1234
19285TIP3    H179346   5.642   6.746   6.042  0.3909  0.5845  0.0129
19285TIP3    H279347   5.669   6.641   5.936 -2.5464 -0.1233 -0.0774
19286TIP3   OH279348   0.384   0.387   6.273 -0.6608 -0.7579  0.4062
19286TIP3    H179349   0.442   0.445   6.322  1.2042  1.5699 -4.2272
19286TIP3    H279350   0.306   0.441   6.256 -0.7215 -1.0564 -0.2714
19287TIP3   OH279351   6.019   4.522   5.525  0.3702  0.9403  0.5600
19287TIP3    H179352   5.940   4.479   5.492  0.5577  0.7736  0.3302
19287TIP3    H279353   5.996   4.549   5.614  0.5216 -0.3553  0.9985
19288TIP3   OH279354   5.539   2.953   1.526  0.0732 -0.1270 -0.1364
19288TIP3    H179355   5.630   2.981   1.519  0.2980 -0.9329 -0.5975
19288TIP3    H279356   5.506   2.959   1.437  0.6370 -2.9187 -0.6041
19289TIP3   OH279357   2.244   2.469   3.470  0.4207 -0.6542 -0.3416
19289TIP3    H179358   2.169   2.527   3.458  0.0814 -1.1031 -0.4326
19289TIP3    H279359   2.311   2.505   3.412  1.0166  0.9795  1.3100
19290TIP3   OH279360   1.930   5.378   5.373 -0.2338  0.1149 -0.5032
19290TIP3    H179361   1.946   5.315   5.443 -1.6614  0.9414  0.5875
19290TIP3    H279362   1.866   5.439   5.409  0.3477  1.5970 -1.9105
19291TIP3   OH279363   2.260   2.009  14.713 -0.6199 -0.3729  0.3779
19291TIP3    H179364   2.302   2.005  14.799  0.3652  0.9724 -0.0083
19291TIP3    H279365   2.191   2.074  14.724 -0.7549 -0.4997  0.2700
19292TIP3   OH279366   0.865   2.587   1.140  0.7641 -0.1352 -0.3061
19292TIP3    H179367   0.954   2.554   1.127  1.0181 -0.1506  1.3675
19292TIP3    H279368   0.836   2.612   1.052  1.7221 -1.8800 -1.1506
19293TIP3   OH279369   6.132   0.893   3.555 -1.0843 -0.5032 -0.2475
19293TIP3    H179370   6.185   0.817   3.531 -2.8153 -1.8458  0.0833
19293TIP3    H279371   6.106   0.876   3.646 -1.0212  0.7530  0.0083
19294TIP3   OH279372   0.854   5.956  11.009 -0.7681  0.1035  0.3168
19294TIP3    H179373   0.890   5.950  10.921  2.3755 -0.2847  1.5820
19294TIP3    H279374   0.851   6.050  11.028  1.1491  0.0721  0.8125
19295TIP3   OH279375   5.274   5.975  15.747 -0.2259 -0.7655  0.5624
19295TIP3    H179376   5.197   6.010  15.793 -0.1626 -1.3401  1.1201
19295TIP3    H279377   5.339   5.962  15.816  0.5162  0.1004  0.0289
19296TIP3   OH279378   2.803   3.860   6.318 -0.1590 -0.3621 -1.1729
19296TIP3    H179379   2.779   3.941   6.272 -0.1286 -0.0269 -0.6016
19296TIP3    H279380   2.735   3.798   6.294 -0.0130 -0.2576 -1.8626
19297TIP3   OH279381   6.015   4.641  12.190 -0.4249 -0.0037 -0.2493
19297TIP3    H179382   6.026   4.580  12.116 -0.1078  1.2441 -1.2505
19297TIP3    H279383   6.016   4.728  12.150  0.4874  0.7266  1.3192
19298TIP3   OH279384   3.577   0.808   1.854  0.0168 -0.6013  0.3658
19298TIP3    H179385   3.570   0.734   1.794 -0.4293  0.8829 -1.4602
19298TIP3    H279386   3.653   0.857   1.824 -0.0271  0.0092  1.2195
19299TIP3   OH279387   0.629   5.962   0.362 -0.2566 -0.2670 -0.6431
19299TIP3    H179388   0.631   5.956   0.267 -0.1429  0.1523 -0.6664
19299TIP3    H279389   0.538   5.939   0.385 -0.0881 -1.0946 -0.7976
19300TIP3   OH279390   1.160   3.797   0.445 -0.7221  0.1809 -0.3278
19300TIP3    H179391   1.093   3.858   0.476  1.0658  1.5529  1.0138
19300TIP3    H279392   1.127   3.765   0.361 -2.6629  1.4486 -0.0761
19301TIP3   OH279393   1.636   1.029  13.819  0.3622 -0.0046  0.3258
19301TIP3    H179394   1.601   0.941  13.833  2.0749 -0.9330 -0.9595
19301TIP3    H279395   1.566   1.088  13.848 -2.0328 -1.7501 -1.7055
19302TIP3   OH279396   5.197   4.505  15.042 -0.2072 -0.5172 -0.3523
19302TIP3    H179397   5.239   4.550  15.116  2.7422  0.2519 -2.4134
19302TIP3    H279398   5.172   4.575  14.982  0.1710 -1.3045 -1.4508
19303TIP3   OH279399   0.588   2.683  14.572 -1.1180 -0.0155  0.0601
19303TIP3    H179400   0.560   2.597  14.605  0.1076 -0.2493  0.5358
19303TIP3    H279401   0.680   2.670  14.549 -0.6723  1.4231  1.0042
19304TIP3   OH279402   4.485   3.561   3.901 -0.0535  0.1558 -0.2077
19304TIP3    H179403   4.432   3.578   3.823  0.2063 -1.0071 -0.6507
19304TIP3    H279404   4.503   3.467   3.897  0.9229  0.3056  0.6456
19305TIP3   OH279405   5.045   1.094  11.710  0.8098 -0.1088 -0.1982
19305TIP3    H179406   5.097   1.161  11.665  0.4335 -1.2821 -2.4306
19305TIP3    H279407   5.109   1.027  11.733  0.7491 -0.2236 -0.3651
19306TIP3   OH279408   4.986   4.032  15.405  0.2478 -0.1496 -0.0600
19306TIP3    H179409   4.977   3.949  15.357  3.7132  0.3420 -1.7190
19306TIP3    H279410   4.930   4.093  15.356  0.1366 -0.7537 -0.7000
19307TIP3   OH279411   0.604   3.383  12.032  0.2550 -0.6335 -0.2094
19307TIP3    H179412   0.528   3.343  12.074  1.5714 -0.9967  1.8919
19307TIP3    H279413   0.674   3.377  12.097  2.4673 -1.4679 -2.5607
19308TIP3   OH279414   6.003   0.639  14.045  0.0651 -0.2818  1.0467
19308TIP3    H179415   6.016   0.678  14.131  0.0341  2.0430  0.0352
19308TIP3    H279416   6.008   0.544  14.060 -0.2451  0.0874  3.6254
19309TIP3   OH279417   2.331   1.183   2.968 -0.2513 -0.1782  0.4352
19309TIP3    H179418   2.258   1.239   2.941 -1.4943 -1.7554  0.4676
19309TIP3    H279419   2.360   1.220   3.051  0.5133  1.8600 -0.7181
19310TIP3   OH279420   5.933   6.570   5.404 -0.5050 -0.5261 -0.3250
19310TIP3    H179421   5.984   6.552   5.325 -0.8005 -0.5946 -0.4998
19310TIP3    H279422   5.845   6.541   5.383 -0.4006 -1.3143  0.3257
19311TIP3   OH279423   3.399   0.276  13.329  0.4450  0.0492 -0.5174
19311TIP3    H179424   3.482   0.237  13.302  0.4073 -0.7899  0.5702
19311TIP3    H279425   3.389   0.252  13.421 -0.8688  0.3804 -0.5613
19312TIP3   OH279426   3.994   5.746  14.129 -0.0033 -0.5610 -0.5199
19312TIP3    H179427   4.064   5.684  14.148  0.6404  0.2881 -0.0975
19312TIP3    H279428   3.949   5.759  14.212 -0.8287 -1.2848 -0.8389
19313TIP3   OH279429   2.124   0.081   1.012 -0.1186 -0.1008 -0.0537
19313TIP3    H179430   2.124  -0.015   1.009  0.8430 -0.0821 -1.3064
19313TIP3    H279431   2.068   0.103   1.086  0.8073 -1.6537  1.1421
19314TIP3   OH279432   4.889   3.390  16.445  0.3554 -0.3558 -0.4921
19314TIP3    H179433   4.841   3.421  16.368  0.6010  1.1377 -0.0587
19314TIP3    H279434   4.953   3.329  16.410 -2.1642 -2.7798 -1.0301
19315TIP3   OH279435   0.142   5.378   0.862  0.7050  0.2630  0.4055
19315TIP3    H179436   0.121   5.432   0.938  1.5017  1.5094 -0.2545
19315TIP3    H279437   0.088   5.299   0.873 -2.3956  2.2724  0.0562
19316TIP3   OH279438   0.394   3.634   5.200  0.3467  0.3772 -0.1647
19316TIP3    H179439   0.389   3.679   5.116 -1.6379  1.2810  0.4131
19316TIP3    H279440   0.323   3.570   5.197 -1.6658  2.4141  1.9448
19317TIP3   OH279441   4.586   6.674   3.164  0.1161  0.2362  0.2510
19317TIP3    H179442   4.552   6.615   3.231 -0.9712  0.3084 -0.2237
19317TIP3    H279443   4.652   6.623   3.119  1.7710  0.6104  2.1828
19318TIP3   OH279444   0.164   3.146  13.065 -0.4861  0.1987  0.7263
19318TIP3    H179445   0.232   3.210  13.080  0.2678  0.2620 -2.6444
19318TIP3    H279446   0.085   3.198  13.047 -0.2241  0.1996 -0.4718
19319TIP3   OH279447   1.794   1.282   2.069  0.8280 -0.0608  0.7824
19319TIP3    H179448   1.760   1.198   2.040  3.0148 -0.7788  0.1901
19319TIP3    H279449   1.779   1.282   2.164 -1.4123 -0.0303  0.4541
19320TIP3   OH279450   5.321   4.917  14.200  0.0817 -0.3239  0.4739
19320TIP3    H179451   5.332   4.973  14.124 -0.7974 -0.7420  0.0260
19320TIP3    H279452   5.244   4.952  14.245  0.5073 -0.1706  1.0817
19321TIP3   OH279453   0.086   6.563   3.657  0.6211 -0.3350 -0.5317
19321TIP3    H179454   0.008   6.517   3.626 -0.2386  0.7280  0.0289
19321TIP3    H279455   0.159   6.512   3.623 -0.3198 -1.5024 -0.8192
19322TIP3   OH279456   1.657   0.478   1.276  0.2076  0.8267 -0.7203
19322TIP3    H179457   1.633   0.545   1.341  0.1557  0.1501 -0.0278
19322TIP3    H279458   1.743   0.447   1.305  0.5823  1.1384 -1.4876
19323TIP3   OH279459   0.365   3.044  13.601  0.6649  0.2330  0.7167
19323TIP3    H179460   0.275   3.017  13.581  0.5441  0.4554  0.9528
19323TIP3    H279461   0.402   2.969  13.648  1.0188 -0.3724 -0.5016
19324TIP3   OH279462   2.996   5.725   3.197 -0.6081 -0.3087  0.0323
19324TIP3    H179463   3.022   5.637   3.224  0.2823 -0.8587 -2.5444
19324TIP3    H279464   2.911   5.713   3.155  0.9065 -0.4299 -3.0760
19325TIP3   OH279465   2.827   3.259  11.250 -0.3135 -0.5360 -0.0337
19325TIP3    H179466   2.749   3.231  11.202 -0.0761 -1.1525 -0.0573
19325TIP3    H279467   2.797   3.334  11.301 -0.6423 -0.0419 -0.9213
19326TIP3   OH279468   4.427   1.370  13.074 -0.0393 -0.1001 -0.1463
19326TIP3    H179469   4.415   1.369  13.169 -1.5883  1.4303 -0.2934
19326TIP3    H279470   4.521   1.363  13.061  0.3006  0.9525  1.5596
19327TIP3   OH279471   4.338   5.281  17.153  0.4081  0.5500  0.1940
19327TIP3    H179472   4.398   5.294  17.226 -0.7642 -0.6859  1.3938
19327TIP3    H279473   4.389   5.229  17.090  1.3201  1.3816  0.2209
19328TIP3   OH279474   3.334   4.890   5.171 -0.4521 -0.4300 -0.2221
19328TIP3    H179475   3.372   4.915   5.255 -0.0463  0.8425 -0.7812
19328TIP3    H279476   3.261   4.950   5.159  1.6528  1.7462 -2.4318
19329TIP3   OH279477   6.349   5.045  12.354  0.0900 -0.6542  0.3933
19329TIP3    H179478   6.430   4.993  12.353 -0.7983 -2.0737 -1.1591
19329TIP3    H279479   6.282   4.983  12.382 -0.8861 -0.1922 -0.8802
19330TIP3   OH279480   2.308   3.478   5.310  0.3858  0.2782  0.1365
19330TIP3    H179481   2.358   3.441   5.384 -0.0604  0.9520  0.7851
19330TIP3    H279482   2.312   3.573   5.324 -0.6580  0.3585 -0.0747
19331TIP3   OH279483   4.593   5.353   4.262 -0.2669  1.1662  0.1841
19331TIP3    H179484   4.656   5.365   4.334 -0.0128  2.2781 -0.2154
19331TIP3    H279485   4.512   5.391   4.296 -0.5496  0.3162  0.4562
19332TIP3   OH279486   1.173   1.352   4.932  0.6003 -0.1982 -0.1256
19332TIP3    H179487   1.185   1.259   4.952 -1.9676 -0.5067  0.1248
19332TIP3    H279488   1.219   1.398   5.001  1.6969 -1.2700 -0.1170
19333TIP3   OH279489   3.338   1.748  14.590 -0.4560 -0.0122  0.0811
19333TIP3    H179490   3.359   1.756  14.497 -0.7860  2.6565  0.1893
19333TIP3    H279491   3.279   1.672  14.595 -0.5367 -0.1104 -1.8940
19334TIP3   OH279492   6.387   3.330   4.852 -0.7526  0.3591  0.7738
19334TIP3    H179493   6.400   3.324   4.947  0.7271  1.6301  0.6664
19334TIP3    H279494   6.310   3.385   4.842  1.0964  3.1005  1.1922
19335TIP3   OH279495   0.804   5.879  16.155 -0.1566  0.0561  0.4302
19335TIP3    H179496   0.812   5.869  16.250 -1.6310 -0.8631  0.4661
19335TIP3    H279497   0.860   5.811  16.118 -0.8920 -0.6666  0.6472
19336TIP3   OH279498   3.289   6.615  12.188  0.2912  0.5603 -0.2570
19336TIP3    H179499   3.310   6.557  12.260 -0.9977 -1.6288 -1.5899
19336TIP3    H279500   3.196   6.634  12.199 -0.1732 -0.6364 -1.8842
19337TIP3   OH279501   1.970   0.233   0.381  0.0521  0.1433 -0.3511
19337TIP3    H179502   2.049   0.256   0.431  0.2181  0.1275 -0.6019
19337TIP3    H279503   1.954   0.310   0.326  0.2402 -0.0902 -0.7331
19338TIP3   OH279504   0.748   5.256  14.792 -0.1753 -0.2442 -0.5914
19338TIP3    H179505   0.724   5.344  14.764 -0.6034  0.0011  0.5573
19338TIP3    H279506   0.786   5.268  14.879 -2.0029 -1.4246  0.3780
19339TIP3   OH279507   4.408   6.252  15.995  0.0270 -0.3746 -0.6939
19339TIP3    H179508   4.467   6.182  15.968 -1.0979 -1.1510 -1.1789
19339TIP3    H279509   4.336   6.207  16.040  0.2788  0.6382  0.7510
19340TIP3   OH279510   6.423   5.655   3.588  0.4273  0.1299 -0.5230
19340TIP3    H179511   6.512   5.667   3.622  0.0991  0.1637  0.3222
19340TIP3    H279512   6.421   5.563   3.559 -0.2845 -0.8624  2.5194
19341TIP3   OH279513   2.814   2.418   1.678 -0.7452 -0.2056 -0.5238
19341TIP3    H179514   2.784   2.438   1.589 -3.3575 -0.6866  0.2245
19341TIP3    H279515   2.872   2.343   1.667 -0.6056  0.0903 -1.8888
19342TIP3   OH279516   4.308   1.298  11.368  0.0898 -0.5279  0.2593
19342TIP3    H179517   4.350   1.216  11.340  0.6452 -0.0273 -0.3843
19342TIP3    H279518   4.214   1.282  11.356  0.3405 -0.0950 -2.5217
19343TIP3   OH279519   2.944   6.700  14.958 -0.0372  0.3971 -0.0700
19343TIP3    H179520   2.987   6.641  14.896 -1.0944 -1.4695  0.8902
19343TIP3    H279521   2.879   6.644  15.001  0.5654  1.6591  2.5944
19344TIP3   OH279522   2.096   3.532  13.058  0.1643  0.3928 -0.1188
19344TIP3    H179523   2.130   3.444  13.045  0.2590  0.3800  0.2193
19344TIP3    H279524   2.113   3.552  13.150  2.6706  1.8613 -0.8484
19345TIP3   OH279525   2.820   2.883  13.775  0.3480 -0.2480 -0.0464
19345TIP3    H179526   2.889   2.896  13.841  0.7321 -1.0629 -0.2802
19345TIP3    H279527   2.744   2.852  13.825 -0.0527  1.2470  0.2948
19346TIP3   OH279528   6.132   2.869  12.663 -0.3895 -0.1490 -0.4044
19346TIP3    H179529   6.117   2.815  12.586 -0.2594  0.1930 -0.6718
19346TIP3    H279530   6.157   2.955  12.628 -0.3040 -0.0000  0.0168
19347TIP3   OH279531   0.766   4.298  16.891  0.2089 -0.1571  0.0208
19347TIP3    H179532   0.820   4.219  16.899  0.8081  0.3230  0.8259
19347TIP3    H279533   0.779   4.344  16.974 -1.1450  0.1576  0.0591
19348TIP3   OH279534   1.335   1.519  11.391 -0.3627 -0.0679 -0.0162
19348TIP3    H179535   1.319   1.612  11.405  0.9025  0.4777 -2.0361
19348TIP3    H279536   1.249   1.481  11.375 -0.5787  1.3032 -2.2372
19349TIP3   OH279537   3.201   6.784   2.335 -0.2152 -0.3607 -0.6541
19349TIP3    H179538   3.213   6.754   2.425  0.6845 -1.0736 -0.9998
19349TIP3    H279539   3.287   6.775   2.295 -0.4694  0.5200 -1.4232
19350TIP3   OH279540   3.179   5.781  10.681 -0.3518  0.1773  0.0150
19350TIP3    H179541   3.209   5.697  10.648 -1.5944  0.1585 -1.1189
19350TIP3    H279542   3.248   5.843  10.657 -1.0791  0.1124 -2.4168
19351TIP3   OH279543   4.159   0.985  11.395 -0.0202  0.3159  0.1908
19351TIP3    H179544   4.230   0.971  11.332  0.7714  1.3685  0.8268
19351TIP3    H279545   4.159   0.907  11.450  1.5059  0.8786  1.0065
19352TIP3   OH279546   3.383   1.149  16.492  0.8581  0.3328 -0.0589
19352TIP3    H179547   3.361   1.229  16.541 -0.5941  0.1460 -0.3853
19352TIP3    H279548   3.349   1.166  16.404  1.2619 -0.3236 -0.3350
19353TIP3   OH279549   5.548   0.682  12.914 -0.6142 -0.1451  0.0177
19353TIP3    H179550   5.591   0.663  12.998  0.8355  1.6724 -0.2823
19353TIP3    H279551   5.607   0.645  12.849 -0.7143  0.2191 -0.2799
19354TIP3   OH279552   4.661   3.799   5.593 -0.2240 -0.7251 -0.2256
19354TIP3    H179553   4.755   3.806   5.574 -0.0069  1.2357  1.3558
19354TIP3    H279554   4.656   3.801   5.688 -1.9642  0.6521 -0.3267
19355TIP3   OH279555   0.265   6.002  14.313  0.3807  0.1034  0.5284
19355TIP3    H179556   0.220   5.944  14.375 -0.9003 -0.3135 -0.7641
19355TIP3    H279557   0.351   5.961  14.300  0.7999  0.3735  2.2452
19356TIP3   OH279558   0.996   6.094   2.975 -0.1532  0.9948 -0.4342
19356TIP3    H179559   0.929   6.084   3.043 -0.6022  1.9832 -0.7050
19356TIP3    H279560   1.011   6.189   2.971 -2.1025  1.2691 -3.5297
19357TIP3   OH279561   1.249   2.714  17.168  0.4232  0.2358 -0.2871
19357TIP3    H179562   1.277   2.728  17.259 -0.5977 -2.5149  0.5079
19357TIP3    H279563   1.328   2.683  17.123  0.2745 -1.1221  0.3597
19358TIP3   OH279564   2.882   5.385  11.512 -0.5194 -0.1022  0.3256
19358TIP3    H179565   2.889   5.480  11.507 -2.8221  0.0788 -0.1601
19358TIP3    H279566   2.856   5.358  11.424 -1.1501 -1.0408  0.7890
19359TIP3   OH279567   2.553   6.263   5.690 -0.5156  0.5433 -0.5193
19359TIP3    H179568   2.636   6.232   5.654 -0.0781 -0.1918  1.0674
19359TIP3    H279569   2.509   6.306   5.617  1.6865  1.8094 -1.1509
19360TIP3   OH279570   1.179   6.719   4.151 -0.6031 -0.5256  0.0455
19360TIP3    H179571   1.095   6.695   4.113 -0.5683  0.7393 -0.8588
19360TIP3    H279572   1.158   6.772   4.227 -0.6197 -0.4754  0.0049
19361TIP3   OH279573   2.571   2.679  12.079 -0.1465  0.8864 -0.1403
19361TIP3    H179574   2.663   2.653  12.075 -0.4262 -0.0722 -0.6793
19361TIP3    H279575   2.565   2.735  12.155  0.8385  0.7452  0.0498
19362TIP3   OH279576   6.652   3.206  12.724  0.0119  0.5913 -0.0941
19362TIP3    H179577   6.652   3.168  12.636  2.3765 -1.5499  0.7597
19362TIP3    H279578   6.693   3.292  12.714  1.8696 -0.3564 -0.8483
19363TIP3   OH279579   2.840   5.548  14.069  0.4232  0.1767 -0.2967
19363TIP3    H179580   2.868   5.597  13.992  3.8289 -2.0354 -0.5715
19363TIP3    H279581   2.800   5.468  14.033  0.0811  0.1197  0.2041
19364TIP3   OH279582   4.082   3.804   3.525  0.1325 -0.1513  0.4189
19364TIP3    H179583   4.021   3.870   3.492  1.2832  1.2620  1.0798
19364TIP3    H279584   4.136   3.851   3.589  1.4073 -1.5702  0.4068
19365TIP3   OH279585   4.492   2.273  11.487 -0.2403  0.0804 -0.2334
19365TIP3    H179586   4.570   2.289  11.540  0.2175 -1.9425 -0.2575
19365TIP3    H279587   4.424   2.327  11.527  0.3158 -0.7620  1.9045
19366TIP3   OH279588   5.436   4.930  16.782 -0.4488 -0.5483 -0.2114
19366TIP3    H179589   5.364   4.888  16.829  0.5094 -2.4889 -0.4237
19366TIP3    H279590   5.403   4.944  16.693 -0.7891 -0.8467 -0.1307
19367TIP3   OH279591   0.076   2.317  13.648 -0.2620  0.0710  0.0059
19367TIP3    H179592   0.065   2.330  13.742 -0.1487  0.7962 -0.0814
19367TIP3    H279593  -0.008   2.282  13.619 -0.2698 -0.2349  0.3868
19368TIP3   OH279594   6.672   5.252   3.549 -0.1375  0.0300 -0.2740
19368TIP3    H179595   6.712   5.335   3.576 -1.9965  0.3976  1.4671
19368TIP3    H279596   6.678   5.197   3.627 -1.7254 -0.3986 -0.4416
19369TIP3   OH279597   0.425   4.812   5.247  0.1843  0.1155  0.0829
19369TIP3    H179598   0.452   4.726   5.281  0.0399 -1.3867 -3.3713
19369TIP3    H279599   0.389   4.792   5.160 -0.5791  3.6067 -0.4469
19370TIP3   OH279600   3.046   0.914  11.408 -0.2431 -0.0044  0.7480
19370TIP3    H179601   3.070   0.895  11.317 -1.7331  0.2106  0.3007
19370TIP3    H279602   3.123   0.888  11.459  0.2071 -1.1120 -0.4720
19371TIP3   OH279603   3.793   2.788   2.620 -0.2676  0.1165 -0.0236
19371TIP3    H179604   3.836   2.740   2.549 -0.6180  0.5654 -0.5343
19371TIP3    H279605   3.793   2.726   2.694 -2.3653 -1.3430 -1.2155
19372TIP3   OH279606   4.945   3.676   2.696  1.0603 -0.3666  0.6289
19372TIP3    H179607   4.992   3.594   2.710 -1.1137 -1.6199  0.8657
19372TIP3    H279608   4.862   3.664   2.742 -0.8059  0.5233 -2.3746
19373TIP3   OH279609   6.792   1.850  16.583  0.4708  0.0746 -0.0732
19373TIP3    H179610   6.813   1.927  16.530 -1.6078 -0.3740 -1.5893
19373TIP3    H279611   6.874   1.800  16.585  1.0215  0.8590 -1.5558
19374TIP3   OH279612   6.531   2.371   5.790  0.0863  0.3209  0.4499
19374TIP3    H179613   6.557   2.398   5.701 -0.3152  0.5804  0.4061
19374TIP3    H279614   6.436   2.363   5.785 -0.3439  3.6609  1.7287
19375TIP3   OH279615   6.339   2.889  12.855 -0.7670 -0.3376 -0.3041
19375TIP3    H179616   6.312   2.872  12.945 -2.2689  0.4002 -0.5954
19375TIP3    H279617   6.259   2.878  12.804  0.2966 -1.8543 -1.7164
19376TIP3   OH279618   3.382   0.419   5.457  0.7828 -0.3923  0.4046
19376TIP3    H179619   3.314   0.484   5.441 -0.1696 -1.7975 -1.5467
19376TIP3    H279620   3.459   0.469   5.483 -0.5297  1.3361  1.0045
19377TIP3   OH279621   2.024   5.432  14.726 -0.4955  0.4892 -0.2128
19377TIP3    H179622   1.936   5.468  14.719 -0.5645  0.1889 -0.9158
19377TIP3    H279623   2.079   5.507  14.749 -0.8937  0.7257 -0.0426
19378TIP3   OH279624   2.410   2.077  13.943  0.0400  0.2085 -0.3366
19378TIP3    H179625   2.451   1.998  13.909  1.2194  1.5327 -2.1000
19378TIP3    H279626   2.319   2.070  13.916  0.0943 -0.6203 -0.3266
19379TIP3   OH279627   2.392   6.714  15.553 -0.4806  0.2071  1.5960
19379TIP3    H179628   2.455   6.660  15.507 -1.2097  0.9947 -0.3989
19379TIP3    H279629   2.322   6.653  15.579 -0.9787  0.0676 -0.0409
19380TIP3   OH279630   3.369   0.562   5.801  0.3773 -0.2772  0.1859
19380TIP3    H179631   3.317   0.544   5.879  0.3106 -2.0267 -0.2489
19380TIP3    H279632   3.312   0.617   5.747  0.1137  0.2584  0.9962
19381TIP3   OH279633   0.810   4.890  15.724  1.1081 -0.5990 -0.3643
19381TIP3    H179634   0.812   4.964  15.663  0.2519  1.3469  1.8879
19381TIP3    H279635   0.727   4.846  15.705  1.6320 -1.0243 -1.7368
19382TIP3   OH279636   1.094   3.709   3.472  0.2298 -0.8515  0.1339
19382TIP3    H179637   1.120   3.692   3.563 -0.1648  1.5842  0.7548
19382TIP3    H279638   1.163   3.767   3.438 -0.4790 -0.4173 -0.5784
19383TIP3   OH279639   3.494   6.500  15.637 -0.4690 -0.0147 -0.3755
19383TIP3    H179640   3.448   6.428  15.593 -1.7822 -0.8743  2.2687
19383TIP3    H279641   3.433   6.573  15.634 -0.5247 -0.0481 -0.0460
19384TIP3   OH279642   0.586   6.359  15.815  0.4689  0.3490  0.0123
19384TIP3    H179643   0.673   6.394  15.795  0.6216 -0.3184 -0.5012
19384TIP3    H279644   0.562   6.308  15.738 -1.2461  2.1557 -0.6991
19385TIP3   OH279645   4.260   6.447  13.296  0.0755 -0.1003  0.4949
19385TIP3    H179646   4.331   6.485  13.347 -0.4669  1.7412 -0.1063
19385TIP3    H279647   4.195   6.517  13.288 -0.3956 -0.7480 -1.6565
19386TIP3   OH279648   6.268   4.432  14.822 -0.6128  0.2239  0.3607
19386TIP3    H179649   6.231   4.519  14.833 -0.3593  0.4311 -0.4176
19386TIP3    H279650   6.244   4.406  14.733  1.9510  0.7606 -0.5220
19387TIP3   OH279651   5.613   4.293   3.846 -0.6316  0.2696  0.1189
19387TIP3    H179652   5.683   4.338   3.892 -0.4954  1.8545 -1.5773
19387TIP3    H279653   5.533   4.338   3.873 -0.8611 -0.6625  1.0128
19388TIP3   OH279654   1.687   3.417   2.520 -0.1490 -0.5012  0.5359
19388TIP3    H179655   1.775   3.451   2.503  0.5073 -2.2771  0.3144
19388TIP3    H279656   1.661   3.460   2.602  0.3872  1.0060 -0.0546
19389TIP3   OH279657   0.690   5.657   5.477  0.3042 -0.0647  0.0285
19389TIP3    H179658   0.614   5.681   5.529  0.9210 -0.4041  1.0901
19389TIP3    H279659   0.658   5.590   5.417 -0.3212  0.0793  0.1961
19390TIP3   OH279660   6.114   2.088   5.208  0.1188 -0.2710  0.1016
19390TIP3    H179661   6.038   2.035   5.233  0.1073  0.3416  1.3879
19390TIP3    H279662   6.097   2.113   5.117 -1.5750  0.4770  0.6048
19391TIP3   OH279663   1.443   6.388   1.417 -0.2109  0.3470 -0.5577
19391TIP3    H179664   1.507   6.387   1.488 -0.3270 -1.6029 -0.4595
19391TIP3    H279665   1.423   6.481   1.404 -0.4767  0.7133  2.2206
19392TIP3   OH279666   6.613   1.708  13.242 -0.3240  0.5313  0.0736
19392TIP3    H179667   6.681   1.664  13.190  0.3508 -1.1173  2.3070
19392TIP3    H279668   6.534   1.656  13.227  0.1623 -0.7030  1.6400
19393TIP3   OH279669   6.310   2.524   2.553  0.4493  0.2534 -0.3451
19393TIP3    H179670   6.362   2.584   2.606  1.9645 -0.6031 -0.8500
19393TIP3    H279671   6.374   2.478   2.499 -0.6856 -1.8667  0.0810
19394TIP3   OH279672   3.273   6.379   6.592  0.1192  0.2438 -0.0379
19394TIP3    H179673   3.330   6.326   6.648 -1.2247  1.1091  2.2260
19394TIP3    H279674   3.333   6.423   6.532  1.7010 -0.1569  1.1894
19395TIP3   OH279675   1.219   0.316  12.320  0.1009  0.2906 -0.2585
19395TIP3    H179676   1.258   0.402  12.309  2.0444 -0.3384  1.4554
19395TIP3    H279677   1.132   0.324  12.282 -0.3821  3.4749  1.3931
19396TIP3   OH279678   2.932   4.091  14.626  0.0788 -0.7247 -0.0444
19396TIP3    H179679   2.848   4.137  14.621  0.3160 -0.3223 -0.3600
19396TIP3    H279680   2.911   4.001  14.600 -0.1899 -0.5374 -0.4876
19397TIP3   OH279681   0.890   0.245   4.718  0.2053 -0.5864  0.0702
19397TIP3    H179682   0.956   0.217   4.654 -1.6541 -1.4206 -1.5140
19397TIP3    H279683   0.864   0.164   4.762  1.6903  0.0161  2.1756
19398TIP3   OH279684   5.226   5.749   5.813 -0.1912  0.8371  0.0854
19398TIP3    H179685   5.215   5.721   5.722  0.7943 -1.6923  0.7272
19398TIP3    H279686   5.198   5.674   5.866 -0.6480  2.2320  1.8935
19399TIP3   OH279687   2.468   0.890  17.168  0.4042 -0.4169 -0.3262
19399TIP3    H179688   2.554   0.933  17.168  1.1503 -1.8809 -0.5577
19399TIP3    H279689   2.456   0.858  17.079 -1.1253  1.1936 -0.7203
19400TIP3   OH279690   2.395   4.636  14.036  0.2407  0.8102 -0.5854
19400TIP3    H179691   2.463   4.637  13.969 -0.5325 -1.6702 -1.4514
19400TIP3    H279692   2.404   4.551  14.078 -3.4472 -0.2888 -1.8957
19401TIP3   OH279693   4.716   2.342   2.573 -0.1107 -0.2748  0.1988
19401TIP3    H179694   4.626   2.372   2.575  0.1714  0.5541  2.4586
19401TIP3    H279695   4.727   2.291   2.654  1.2953 -0.8180 -0.2996
19402TIP3   OH279696   3.863   5.782   6.066  0.2181 -0.4199  0.0690
19402TIP3    H179697   3.870   5.690   6.094 -2.2513 -0.0469  2.0839
19402TIP3    H279698   3.928   5.828   6.119 -0.5977 -0.5730  1.2198
19403TIP3   OH279699   2.883   0.383   0.641  0.1259  0.1313  0.1975
19403TIP3    H179700   2.939   0.447   0.684  0.5641  0.1497 -0.3950
19403TIP3    H279701   2.933   0.355   0.564 -0.2441 -0.5977  0.2141
19404TIP3   OH279702   2.230   1.216  11.607  0.2624 -0.2433  0.2430
19404TIP3    H179703   2.170   1.277  11.651  2.0892  2.8761 -1.3769
19404TIP3    H279704   2.231   1.246  11.516  0.4445 -3.4115 -0.8550
19405TIP3   OH279705   1.507   1.379   2.342  0.3388 -0.2407 -0.1863
19405TIP3    H179706   1.473   1.415   2.259  1.4868  0.8059 -0.2167
19405TIP3    H279707   1.586   1.332   2.316 -0.0688 -1.1138  0.1388
19406TIP3   OH279708   0.441   5.850  16.235  0.2685 -0.1939  0.3927
19406TIP3    H179709   0.358   5.845  16.188 -0.1437  0.5827  1.0403
19406TIP3    H279710   0.506   5.815  16.173 -0.3039  0.6119 -0.6736
19407TIP3   OH279711   1.380   4.550  15.232 -0.7769  0.3398 -0.1507
19407TIP3    H179712   1.451   4.592  15.183  0.0714 -0.4487  0.3885
19407TIP3    H279713   1.307   4.612  15.226  0.8935  2.5889  1.8770
19408TIP3   OH279714   2.687   0.772   1.133 -0.3814 -0.5399  0.3767
19408TIP3    H179715   2.648   0.807   1.053  1.1184  0.5819  0.1193
19408TIP3    H279716   2.686   0.846   1.194  1.2812 -0.4992  0.3846
19409TIP3   OH279717   3.537   6.628  13.572  0.0871 -0.1168 -0.0159
19409TIP3    H179718   3.572   6.654  13.657  0.9669  1.1042 -0.7370
19409TIP3    H279719   3.486   6.549  13.590  0.6306 -0.1207  1.5662
19410TIP3   OH279720   3.335   6.409  16.050  0.1319  0.1363  0.2531
19410TIP3    H179721   3.275   6.341  16.019 -0.2274  0.5402  0.0537
19410TIP3    H279722   3.330   6.404  16.145  1.7362 -1.5450  0.2677
19411TIP3   OH279723   0.718   2.503  11.127 -0.0687 -0.3421 -0.0387
19411TIP3    H179724   0.768   2.576  11.091 -0.1274 -0.3383 -0.1169
19411TIP3    H279725   0.781   2.432  11.136  0.3237  0.1858  1.5002
19412TIP3   OH279726   4.574   4.201  12.666 -0.4331 -0.3523  0.4952
19412TIP3    H179727   4.605   4.255  12.739 -2.7305 -2.0000  2.7439
19412TIP3    H279728   4.600   4.251  12.588  0.3963  2.3960  2.4321
19413TIP3   OH279729   3.251   5.710  12.199  0.3748 -0.1317 -0.6058
19413TIP3    H179730   3.232   5.799  12.228  1.2262 -0.9278  2.5498
19413TIP3    H279731   3.334   5.718  12.152  1.2276  0.5215  0.9698
19414TIP3   OH279732   0.966   1.422   0.590  0.6379  0.3997  0.8044
19414TIP3    H179733   1.010   1.495   0.634 -0.7285  2.3977 -1.0478
19414TIP3    H279734   0.884   1.459   0.557 -0.8074 -2.3803  1.1263
19415TIP3   OH279735   2.432   6.774   5.870 -0.1318  0.1801  0.3344
19415TIP3    H179736   2.377   6.791   5.946 -0.8548 -1.5829  0.2452
19415TIP3    H279737   2.442   6.678   5.869  1.8324  0.3719 -0.4196
19416TIP3   OH279738   6.493   5.609  14.285 -0.0551  0.5459  0.6457
19416TIP3    H179739   6.449   5.674  14.339  1.1317  1.8625  0.0410
19416TIP3    H279740   6.536   5.551  14.348 -1.4392  0.0867  1.1964
19417TIP3   OH279741   3.841   2.090   1.854  0.1883  0.0284  0.4054
19417TIP3    H179742   3.924   2.138   1.845  1.2590 -1.3157  2.7665
19417TIP3    H279743   3.847   2.021   1.788 -0.0097  1.2138 -0.8889
19418TIP3   OH279744   0.714   0.031  14.881  0.5113 -0.1364  0.3309
19418TIP3    H179745   0.644  -0.029  14.905  0.7034 -0.2549  0.5964
19418TIP3    H279746   0.735   0.008  14.790  0.5438 -0.4311  0.4119
19419TIP3   OH279747   0.339   3.599   2.707 -0.0707 -0.6182  0.7848
19419TIP3    H179748   0.359   3.664   2.639  0.8258  1.6627  3.1672
19419TIP3    H279749   0.305   3.650   2.780 -2.9624 -3.2553  1.3705
19420TIP3   OH279750   3.584   3.342   0.686 -0.0395 -0.3405  0.2619
19420TIP3    H179751   3.526   3.321   0.613 -0.3461  0.4284  0.2760
19420TIP3    H279752   3.667   3.365   0.644 -0.2626  0.2538  0.1466
19421TIP3   OH279753   6.650   6.707  12.494  0.4991  0.0387 -0.5461
19421TIP3    H179754   6.571   6.730  12.543  0.4158 -0.3851 -0.4726
19421TIP3    H279755   6.635   6.742  12.406 -0.3653 -1.2099 -0.9112
19422TIP3   OH279756   0.894   4.657  12.266 -0.3913  0.1658 -0.1124
19422TIP3    H179757   0.946   4.578  12.282  0.8167  1.3484  2.1139
19422TIP3    H279758   0.864   4.685  12.353 -1.2235  1.8733 -0.9039
19423TIP3   OH279759   0.798   6.122   1.412 -0.3702 -0.0366 -0.1575
19423TIP3    H179760   0.873   6.133   1.353 -0.2095  0.2424  0.0947
19423TIP3    H279761   0.802   6.031   1.439 -1.5653 -0.6936 -2.0871
19424TIP3   OH279762   6.611   0.496  17.110  0.6574  0.3848 -0.1674
19424TIP3    H179763   6.616   0.412  17.064 -0.8063 -0.2502  0.7840
19424TIP3    H279764   6.529   0.535  17.079  0.2158  0.4493  1.0513
19425TIP3   OH279765   5.003   3.428   4.430 -0.1393 -0.1085  0.1948
19425TIP3    H179766   5.082   3.417   4.484 -0.3589 -0.1635  0.5073
19425TIP3    H279767   5.035   3.468   4.349  0.1922 -0.0080  0.3723
19426TIP3   OH279768   4.175   4.782   2.194 -0.0920  0.3322 -0.4440
19426TIP3    H179769   4.199   4.853   2.253  2.7201 -1.0360  0.1512
19426TIP3    H279770   4.247   4.778   2.131  0.6214 -2.9412  0.4744
19427TIP3   OH279771   6.335   1.647  11.995  0.1805  0.5703  0.3617
19427TIP3    H179772   6.323   1.705  11.920 -2.1921 -1.0477 -0.5829
19427TIP3    H279773   6.259   1.663  12.051 -0.5553 -1.6167  0.0581
19428TIP3   OH279774   6.497   0.812   5.870  0.1628  0.3929 -0.1757
19428TIP3    H179775   6.552   0.868   5.924  1.7123 -0.9727 -0.3058
19428TIP3    H279776   6.454   0.753   5.932 -1.0775  1.3635 -0.0876
19429TIP3   OH279777   5.247   2.606   4.513 -0.6868 -0.3889  0.1908
19429TIP3    H179778   5.201   2.535   4.558  0.7481 -1.9161 -0.6922
19429TIP3    H279779   5.191   2.627   4.438 -0.1188 -2.0514 -0.7272
19430TIP3   OH279780   0.739   1.954   0.815 -0.1326 -0.2082  0.1754
19430TIP3    H179781   0.667   1.945   0.752 -1.3270 -0.0102  1.4994
19430TIP3    H279782   0.792   2.025   0.780  0.5579 -1.6808 -1.8810
19431TIP3   OH279783   1.711   4.080   2.704  0.7842 -0.1977  0.2335
19431TIP3    H179784   1.739   4.065   2.794 -1.2442 -2.4089  0.5325
19431TIP3    H279785   1.686   4.173   2.702 -2.2772 -0.8703  2.8716
19432TIP3   OH279786   3.398   0.951  15.656 -0.5538 -0.0579  0.0153
19432TIP3    H179787   3.450   0.871  15.667 -0.5468 -0.3520 -2.0890
19432TIP3    H279788   3.404   0.995  15.741 -1.4227 -2.8184  1.5825
19433TIP3   OH279789   3.592   3.887  15.062  0.2175  0.4919  0.1378
19433TIP3    H179790   3.505   3.912  15.029 -1.2915 -1.1944  2.6592
19433TIP3    H279791   3.598   3.794  15.043  1.7283  0.7016 -0.4608
19434TIP3   OH279792   3.364   1.698   2.063  0.2397 -0.1927  0.6970
19434TIP3    H179793   3.409   1.614   2.055 -0.9132 -0.6163 -1.4583
19434TIP3    H279794   3.359   1.713   2.158  1.4372 -1.9991  1.0688
19435TIP3   OH279795   0.028   5.574   1.031 -0.2014  0.0794 -0.5832
19435TIP3    H179796   0.053   5.635   1.100 -0.6696  1.4291 -1.5721
19435TIP3    H279797  -0.002   5.630   0.959  0.8700 -1.2507 -2.1223
19436TIP3   OH279798   0.308   2.364  13.853  0.0357  0.5069  0.4245
19436TIP3    H179799   0.288   2.346  13.945 -0.0803 -0.0299  0.2945
19436TIP3    H279800   0.334   2.279  13.816  1.2530  0.9437  0.2564
19437TIP3   OH279801   3.648   5.636  14.882  0.6616 -0.5481 -0.2653
19437TIP3    H179802   3.648   5.612  14.790  2.4147 -0.4288 -0.3128
19437TIP3    H279803   3.646   5.553  14.929 -2.0169 -0.5905 -0.3727
19438TIP3   OH279804   5.403   5.746   4.852 -0.2242  0.0335 -0.2910
19438TIP3    H179805   5.325   5.801   4.864  0.1102  0.0782  2.0055
19438TIP3    H279806   5.370   5.656   4.852 -0.1281 -0.0457  2.6236
19439TIP3   OH279807   6.503   5.389  14.099 -0.5220  0.0427  0.3329
19439TIP3    H179808   6.456   5.322  14.148 -2.9397 -0.3183 -2.3351
19439TIP3    H279809   6.439   5.459  14.086  1.2000  1.7783  0.8509
19440TIP3   OH279810   4.541   0.648   3.425 -0.3365 -0.4836 -0.2744
19440TIP3    H179811   4.610   0.606   3.373 -0.1452 -0.4017 -0.0886
19440TIP3    H279812   4.588   0.710   3.481 -0.2417 -2.5359  1.9882
19441TIP3   OH279813   5.578   0.717   3.203  0.0959 -1.0669  0.4033
19441TIP3    H179814   5.487   0.709   3.175  0.3772 -0.2671 -0.7259
19441TIP3    H279815   5.614   0.629   3.191  0.2634 -0.7103 -1.9422
19442TIP3   OH279816   5.459   5.373   1.541  0.0425 -0.5575 -0.1782
19442TIP3    H179817   5.502   5.289   1.529  0.2268 -0.6514  0.9877
19442TIP3    H279818   5.522   5.438   1.508  1.0347 -0.7044  1.3496
19443TIP3   OH279819   4.457   1.825  11.088 -0.9325  0.2066 -0.6940
19443TIP3    H179820   4.419   1.754  11.036 -0.2287 -1.9855  1.6862
19443TIP3    H279821   4.535   1.851  11.039 -0.9610 -0.9707 -1.3783
19444TIP3   OH279822   3.316   4.200  13.411 -0.7157  0.2624  0.1710
19444TIP3    H179823   3.318   4.249  13.493  0.7302  0.9049 -0.2351
19444TIP3    H279824   3.304   4.267  13.344 -0.8774 -0.1669 -0.2292
19445TIP3   OH279825   5.218   1.546  14.155  0.3279 -0.4265 -0.3286
19445TIP3    H179826   5.307   1.560  14.187 -0.4312 -1.1598  2.2429
19445TIP3    H279827   5.183   1.634  14.140  0.6860 -0.0577  0.9745
19446TIP3   OH279828   5.658   1.092  16.020  0.2674  0.1284  0.0512
19446TIP3    H179829   5.718   1.042  15.964  0.8165 -0.7472  1.3835
19446TIP3    H279830   5.591   1.029  16.046 -1.4845  1.2123 -1.7492
19447TIP3   OH279831   6.428   2.272   1.537 -0.7213 -0.1713 -0.7028
19447TIP3    H179832   6.436   2.220   1.458 -1.9303 -1.8249  0.2413
19447TIP3    H279833   6.506   2.328   1.537 -0.0030 -1.1515 -2.3240
19448TIP3   OH279834   5.079   3.174  16.788 -0.2909  0.0369 -0.0540
19448TIP3    H179835   4.988   3.198  16.807 -0.2272  0.9215 -0.8468
19448TIP3    H279836   5.131   3.243  16.829  0.0214 -0.3286  0.1754
19449TIP3   OH279837   0.558   5.423  13.857  0.2288  0.2729 -0.1238
19449TIP3    H179838   0.480   5.450  13.905  1.0991 -0.4331  1.7272
19449TIP3    H279839   0.600   5.506  13.833 -0.9307  0.6518 -0.8947
19450TIP3   OH279840   5.562   5.112   2.117  0.1019  0.3666 -0.2627
19450TIP3    H179841   5.645   5.158   2.134  1.2664 -1.0066 -2.0014
19450TIP3    H279842   5.589   5.023   2.093 -2.0120 -0.6817  1.1404
19451TIP3   OH279843   0.368   3.420  11.178  0.1817 -0.2948 -0.6049
19451TIP3    H179844   0.274   3.398  11.178  0.0050  0.4256  0.4798
19451TIP3    H279845   0.412   3.336  11.167 -0.5853 -0.7301 -0.3823
19452TIP3   OH279846   6.217   0.037  13.341 -0.1424 -0.6050 -0.6312
19452TIP3    H179847   6.195   0.049  13.249 -1.4152 -0.0083 -0.2703
19452TIP3    H279848   6.168   0.106  13.386  0.9635 -0.4953  0.4280
19453TIP3   OH279849   4.078   6.673   5.436 -0.4772  0.1211  0.1428
19453TIP3    H179850   4.154   6.616   5.448 -0.1072  0.5454 -0.1643
19453TIP3    H279851   4.008   6.615   5.406  0.0949 -0.0447 -0.8699
19454TIP3   OH279852   6.715   6.484  11.257  0.1077 -0.0957  0.5638
19454TIP3    H179853   6.630   6.525  11.272 -0.3463 -0.4169 -1.0169
19454TIP3    H279854   6.755   6.535  11.187 -1.0392 -3.0668 -2.3987
19455TIP3   OH279855   0.837   3.878  14.998  0.0569 -0.3473 -0.3732
19455TIP3    H179856   0.825   3.971  15.015  1.5001  0.1006 -1.6584
19455TIP3    H279857   0.829   3.870  14.903  1.3042 -1.3054 -0.4131
19456TIP3   OH279858   1.650   0.439  14.308 -0.1788  0.3502  0.7435
19456TIP3    H179859   1.735   0.438  14.353 -0.3672 -0.1836  1.0827
19456TIP3    H279860   1.629   0.347  14.294  0.2561  0.5216 -1.1584
19457TIP3   OH279861   2.100   4.898  15.803 -0.2903 -0.3108  0.0572
19457TIP3    H179862   2.177   4.887  15.748  0.8294  0.3905  1.4245
19457TIP3    H279863   2.127   4.864  15.889 -1.0382  1.1476  0.8971
19458TIP3   OH279864   5.388   1.525  11.683  0.0260 -0.3982  0.0746
19458TIP3    H179865   5.361   1.611  11.718 -0.1492 -0.8448  1.0596
19458TIP3    H279866   5.407   1.473  11.761  2.8328 -0.4099 -0.5731
19459TIP3   OH279867   4.912   0.042   1.345  0.8697  0.9304 -0.1673
19459TIP3    H179868   5.002   0.067   1.325  1.4089 -1.5092 -1.0177
19459TIP3    H279869   4.920  -0.041   1.393 -0.8797  1.3574  0.9272
19460TIP3   OH279870   4.735   4.329  12.864 -0.1030  0.2322 -0.6996
19460TIP3    H179871   4.728   4.359  12.954  1.2133  1.3420 -0.9513
19460TIP3    H279872   4.757   4.407  12.814 -0.3374 -0.4608 -1.9184
19461TIP3   OH279873   2.742   2.037   2.111  0.4735 -0.1615  0.0235
19461TIP3    H179874   2.765   2.052   2.202  1.1536  0.2770 -0.2184
19461TIP3    H279875   2.742   1.941   2.102  1.9150 -0.1882  0.1127
19462TIP3   OH279876   1.578   2.604   3.723 -0.0628 -0.5338 -0.1457
19462TIP3    H179877   1.571   2.620   3.817  0.7483  0.6807 -0.2653
19462TIP3    H279878   1.664   2.640   3.700 -0.5754 -0.1286 -1.4738
19463TIP3   OH279879   2.658   6.540   0.652  0.2741 -0.1953 -0.2529
19463TIP3    H179880   2.568   6.513   0.670 -0.5546  1.4509 -1.7324
19463TIP3    H279881   2.684   6.589   0.730 -0.3480 -0.1237 -0.0914
19464TIP3   OH279882   5.589   0.698  12.072 -0.5918  0.0019 -0.3021
19464TIP3    H179883   5.635   0.637  12.014 -3.3819 -0.3213 -2.2668
19464TIP3    H279884   5.605   0.664  12.160  0.8315 -1.5267 -1.1192
19465TIP3   OH279885   4.075   0.284  15.119  0.2456  0.4818 -0.0095
19465TIP3    H179886   4.141   0.217  15.138  0.4613 -0.0961 -2.5694
19465TIP3    H279887   4.126   0.363  15.099  0.1579  0.2163 -1.3206
19466TIP3   OH279888   5.864   3.683  14.004  0.0045 -0.1561  0.4830
19466TIP3    H179889   5.886   3.657  13.914 -2.0753  0.5239 -0.2677
19466TIP3    H279890   5.941   3.731  14.034  0.7339 -0.3835 -0.9460
19467TIP3   OH279891   4.498   3.346   2.873 -0.0993 -0.1605 -0.8418
19467TIP3    H179892   4.412   3.311   2.848 -0.0979 -2.8279  2.4872
19467TIP3    H279893   4.561   3.287   2.833 -0.0037 -1.4099  1.0523
19468TIP3   OH279894   6.209   0.117  14.142  0.1947 -0.4113  0.0121
19468TIP3    H179895   6.232   0.059  14.214 -0.8391 -1.6070 -0.6041
19468TIP3    H279896   6.293   0.137  14.100  0.8011  0.2581  1.4928
19469TIP3   OH279897   5.806   4.300  12.074 -0.5309  0.0380  0.0459
19469TIP3    H179898   5.715   4.328  12.088 -0.0555  0.4683  2.3547
19469TIP3    H279899   5.848   4.308  12.159  2.0484  1.0590 -1.2542
19470TIP3   OH279900   0.531   6.109  16.691  0.6527  0.3730 -0.9567
19470TIP3    H179901   0.591   6.042  16.724  0.1648 -0.2604 -1.3207
19470TIP3    H279902   0.452   6.060  16.668  0.6114  0.9445 -2.0755
19471TIP3   OH279903   5.351   4.255   2.919 -0.0640  0.3198  0.5175
19471TIP3    H179904   5.285   4.191   2.946 -1.1579  1.4795  0.7099
19471TIP3    H279905   5.319   4.288   2.835  1.3607 -0.5742 -0.3894
19472TIP3   OH279906   0.420   5.384  14.943  0.1065 -0.5695  0.3348
19472TIP3    H179907   0.390   5.448  15.007  1.1563  0.2268  0.0421
19472TIP3    H279908   0.430   5.302  14.992  1.0153  0.0639  1.2095
19473TIP3   OH279909   2.559   0.823   0.895  0.2353  0.3830  0.1624
19473TIP3    H179910   2.556   0.782   0.808  0.1731 -1.6352  1.1023
19473TIP3    H279911   2.495   0.894   0.890 -1.3095 -1.0283 -0.7888
19474TIP3   OH279912   2.990   1.177  13.375 -0.3306  0.3498 -0.3750
19474TIP3    H179913   2.899   1.163  13.399  0.6346 -0.8644  2.9862
19474TIP3    H279914   3.007   1.269  13.398 -0.1141 -0.0775  1.2281
19475TIP3   OH279915   5.542   3.994   4.954 -0.1622  0.4415 -0.4958
19475TIP3    H179916   5.488   4.065   4.920  1.7632  2.3945  0.3774
19475TIP3    H279917   5.589   4.033   5.029 -0.7906 -2.4005  1.4745
19476TIP3   OH279918   5.305   4.048  11.549  0.4117 -0.2790  0.6125
19476TIP3    H179919   5.225   4.053  11.497  0.1498 -0.2538  1.0106
19476TIP3    H279920   5.356   3.978  11.509 -0.5513 -1.4327  1.3589
19477TIP3   OH279921   2.568   3.007   3.437  0.0548 -0.4588  0.0924
19477TIP3    H179922   2.580   2.914   3.420 -0.5099 -0.9424  2.2814
19477TIP3    H279923   2.572   3.047   3.350  1.0357 -2.4233 -0.7988
19478TIP3   OH279924   4.994   1.492   5.987 -0.1089  0.0578  0.3836
19478TIP3    H179925   5.002   1.486   6.082  0.0726 -1.4700  0.2837
19478TIP3    H279926   4.904   1.523   5.973 -0.1590  0.2241  1.0569
19479TIP3   OH279927   2.506   0.483  12.371  0.8605 -0.2596 -0.2317
19479TIP3    H179928   2.435   0.540  12.341 -0.9013 -2.1916  0.1841
19479TIP3    H279929   2.569   0.484  12.299  0.1040  0.9398 -0.8968
19480TIP3   OH279930   4.012   1.071   4.038 -0.1070 -0.8047  0.6483
19480TIP3    H179931   4.040   1.111   4.120  2.0801 -1.2867  0.1538
19480TIP3    H279932   4.045   1.129   3.970 -1.6103 -0.5998  0.0671
19481TIP3   OH279933   1.144   5.057  16.374 -0.1406  0.1407 -0.3301
19481TIP3    H179934   1.172   4.977  16.330 -1.8413 -0.4122 -0.4554
19481TIP3    H279935   1.150   5.125  16.307 -1.5674 -0.4728 -1.1030
19482TIP3   OH279936   4.475   3.371   0.194  0.0084  0.0000  0.0294
19482TIP3    H179937   4.394   3.321   0.201  0.5245 -0.7032  1.0187
19482TIP3    H279938   4.528   3.342   0.268  1.5109 -0.1823 -1.0917
19483TIP3   OH279939   6.050   5.737   4.380 -0.3210  0.4037  0.5300
19483TIP3    H179940   6.006   5.671   4.435  0.0500 -0.0870  0.2459
19483TIP3    H279941   6.113   5.686   4.328 -1.9060  0.5731 -1.6698
19484TIP3   OH279942   2.284   4.714   5.158  0.1632 -0.1203 -0.0068
19484TIP3    H179943   2.233   4.782   5.113  0.1059  0.4237  0.8737
19484TIP3    H279944   2.366   4.708   5.109  0.7824  1.6392  0.8061
19485TIP3   OH279945   2.726   1.779  12.719 -0.1072 -0.5731  0.4609
19485TIP3    H179946   2.804   1.756  12.669 -0.1164  1.1144 -0.3439
19485TIP3    H279947   2.685   1.694  12.740  0.7659 -1.3625 -0.9616
19486TIP3   OH279948   4.149   2.742  14.923  0.0869  0.3882 -0.0460
19486TIP3    H179949   4.120   2.763  15.012 -0.0504 -0.8562  0.2143
19486TIP3    H279950   4.241   2.715  14.934  0.3740  1.2215 -0.4199
19487TIP3   OH279951   3.850   3.553  12.402  0.3670  0.1033 -0.3538
19487TIP3    H179952   3.811   3.625  12.354  2.0508  1.4503  0.2604
19487TIP3    H279953   3.840   3.477  12.344  1.1234  1.4170 -2.2370
19488TIP3   OH279954   6.054   0.684   5.685  0.5395 -0.4122  0.3452
19488TIP3    H179955   6.126   0.747   5.679  0.2331  0.0041  0.9833
19488TIP3    H279956   6.090   0.603   5.648  1.3334 -0.2027  0.6414
19489TIP3   OH279957   2.356   1.150  12.868  0.6262  0.2765  0.0961
19489TIP3    H179958   2.406   1.213  12.815 -0.7941  0.4142 -1.1390
19489TIP3    H279959   2.286   1.120  12.809 -1.1015  0.5511  1.9518
19490TIP3   OH279960   1.849   2.328  11.667 -0.0823  0.0757 -0.4508
19490TIP3    H179961   1.803   2.396  11.617  0.4766 -0.1923 -1.3452
19490TIP3    H279962   1.780   2.281  11.713 -0.5127  0.9761 -0.1705
19491TIP3   OH279963   1.004   6.477  17.007  0.1354  0.5277 -0.3076
19491TIP3    H179964   1.079   6.494  17.063 -0.3466 -0.8258  0.7633
19491TIP3    H279965   1.027   6.518  16.924  1.1113  2.0423  0.6757
19492TIP3   OH279966   1.268   2.957   1.957 -0.4722 -0.2647  0.0336
19492TIP3    H179967   1.227   3.013   1.892 -0.2550 -0.7852 -0.5648
19492TIP3    H279968   1.253   3.001   2.040 -1.9429 -0.2788 -0.2065
19493TIP3   OH279969   0.104   4.938  11.490 -0.3126  0.2650  0.6866
19493TIP3    H179970   0.058   4.943  11.407  1.3811 -1.3899 -0.3801
19493TIP3    H279971   0.044   4.890  11.548 -0.4630 -0.7946 -0.3240
19494TIP3   OH279972   5.508   3.712   0.325 -0.3302 -0.6955 -0.4046
19494TIP3    H179973   5.427   3.676   0.362 -1.0375 -0.3828 -1.6468
19494TIP3    H279974   5.528   3.654   0.251  0.2933 -0.4505 -0.4277
19495TIP3   OH279975   2.350   5.109   5.559 -0.1792  0.1090 -0.0103
19495TIP3    H179976   2.262   5.110   5.595  0.0011  1.5611  0.4572
19495TIP3    H279977   2.345   5.053   5.482 -1.4590  0.0193  0.1356
19496TIP3   OH279978   3.408   0.643  14.761  1.4458  0.2098  0.2313
19496TIP3    H179979   3.356   0.659  14.840 -2.4010 -0.5996 -1.9972
19496TIP3    H279980   3.450   0.727  14.743  0.3702  1.1150  1.7613
19497TIP3   OH279981   4.261   1.686   6.018  0.1201  0.2429  0.2533
19497TIP3    H179982   4.232   1.777   6.011  1.8576  0.6047 -3.0700
19497TIP3    H279983   4.231   1.658   6.105 -2.1384  3.3543  0.5550
19498TIP3   OH279984   1.518   3.113  16.731 -0.1817  0.2953  0.3494
19498TIP3    H179985   1.608   3.115  16.698 -0.3124 -2.3036 -0.2376
19498TIP3    H279986   1.465   3.142  16.657 -0.0023 -0.1632  0.0408
19499TIP3   OH279987   6.373   3.508  10.891 -0.2833  0.6630 -0.1631
19499TIP3    H179988   6.315   3.571  10.849  0.0048  0.5268 -0.7692
19499TIP3    H279989   6.423   3.561  10.954  2.4723  1.7839 -3.1136
19500TIP3   OH279990   2.094   5.944  13.556 -0.5359  0.3653  0.5435
19500TIP3    H179991   2.103   6.040  13.558  1.2387  0.1951  1.3958
19500TIP3    H279992   2.079   5.920  13.648 -2.2273 -0.0748  0.1654
19501TIP3   OH279993   0.349   0.406   0.239  0.1659  0.0284  0.1522
19501TIP3    H179994   0.420   0.356   0.279  0.9412  0.5967 -0.4975
19501TIP3    H279995   0.327   0.472   0.305 -0.5266 -0.8503  0.8104
19502TIP3   OH279996   5.736   2.579   1.554  0.0651 -0.5808  0.4005
19502TIP3    H179997   5.699   2.606   1.638  2.0022 -0.5921  1.2883
19502TIP3    H279998   5.778   2.658   1.520 -1.9519 -0.1769 -1.2935
19503TIP3   OH279999   3.760   0.827  13.736 -0.8376 -0.3527  0.4552
19503TIP3    H180000   3.701   0.753  13.748  1.6047 -2.6033 -0.9238
19503TIP3    H280001   3.807   0.834  13.819 -1.4269 -0.0025  0.7625
19504TIP3   OH280002   0.032   0.344   5.345 -0.4954 -0.2740  0.7142
19504TIP3    H180003   0.080   0.290   5.282 -0.6188 -1.3839  1.5569
19504TIP3    H280004  -0.009   0.281   5.404 -0.2238  0.7683  2.0216
19505TIP3   OH280005   1.749   1.253   2.331  0.2761 -0.8738  0.1675
19505TIP3    H180006   1.689   1.182   2.353 -1.7244  1.2692  1.8527
19505TIP3    H280007   1.805   1.262   2.408  0.3868 -0.4732  0.0438
19506TIP3   OH280008   5.606   5.437  15.130 -0.1747  0.3585 -1.1707
19506TIP3    H180009   5.658   5.414  15.053 -1.4023 -1.0945 -1.5890
19506TIP3    H280010   5.627   5.370  15.195  1.5809  2.1187  0.1304
19507TIP3   OH280011   5.652   0.024  16.841  0.1153  0.2010 -0.0393
19507TIP3    H180012   5.677   0.114  16.820  4.1707 -0.8867 -0.2539
19507TIP3    H280013   5.712  -0.002  16.911 -1.0086 -2.3646  0.0455
19508TIP3   OH280014   3.763   3.652  14.801  0.0833 -0.2659  0.0184
19508TIP3    H180015   3.759   3.698  14.717  1.0832 -0.3320 -0.0743
19508TIP3    H280016   3.837   3.693  14.847 -1.3607  0.7721  1.4624
19509TIP3   OH280017   3.548   2.367   2.551 -0.3471  0.0478 -0.5641
19509TIP3    H180018   3.526   2.399   2.464  0.0082  1.4022 -0.1640
19509TIP3    H280019   3.635   2.327   2.541 -0.2599  0.2990 -0.8052
19510TIP3   OH280020   3.412   5.766  11.118 -0.2568 -0.4804  0.5753
19510TIP3    H180021   3.441   5.857  11.123 -2.9681  0.5306 -1.1525
19510TIP3    H280022   3.493   5.716  11.108  1.0788  1.9821 -1.3679
19511TIP3   OH280023   0.087   5.529   4.885 -0.1255  0.6407 -0.1486
19511TIP3    H180024   0.125   5.563   4.967 -0.5855  3.2254 -0.9568
19511TIP3    H280025   0.155   5.543   4.819  0.0587 -0.9936 -0.3219
19512TIP3   OH280026   1.558   0.164  14.360 -0.3247 -0.6956 -0.3409
19512TIP3    H180027   1.538   0.201  14.446 -0.0456  2.0236 -1.3681
19512TIP3    H280028   1.472   0.151  14.319 -0.4897 -2.7481  0.6230
19513TIP3   OH280029   0.249   2.823   5.615  0.5173  0.3778 -0.4102
19513TIP3    H180030   0.164   2.846   5.579  0.1128 -1.6230 -0.7728
19513TIP3    H280031   0.306   2.898   5.593 -0.4178  0.4440 -2.6927
19514TIP3   OH280032   2.899   3.436   2.620  0.2620 -0.4475 -0.3228
19514TIP3    H180033   2.836   3.391   2.677 -0.5135  1.1222  0.0758
19514TIP3    H280034   2.983   3.394   2.640 -0.5109 -2.0015 -0.2599
19515TIP3   OH280035   4.217   5.351   5.361 -0.8328 -0.0072  0.1644
19515TIP3    H180036   4.136   5.300   5.366 -1.8889  1.6731  0.3928
19515TIP3    H280037   4.202   5.415   5.292 -0.5554  1.7475  1.6803
19516TIP3   OH280038   5.212   4.546   4.028 -0.0470 -0.1269 -0.3097
19516TIP3    H180039   5.213   4.532   4.122 -0.3449  0.7590 -0.1644
19516TIP3    H280040   5.212   4.642   4.018 -1.6098 -0.1968 -1.1699
19517TIP3   OH280041   4.123   6.449   6.583 -0.3908  0.4482 -0.1566
19517TIP3    H180042   4.082   6.518   6.635 -1.5538  0.8514 -1.5750
19517TIP3    H280043   4.050   6.394   6.554  0.4678 -1.0739  0.4927
19518TIP3   OH280044   4.032   0.094   4.613 -0.3221  0.7343  0.0214
19518TIP3    H180045   4.000   0.082   4.523  1.2164 -0.4265 -0.3890
19518TIP3    H280046   4.114   0.143   4.603 -0.4219  1.0693  0.8372
19519TIP3   OH280047   4.744   3.628   1.887  0.3398  0.1416 -0.3641
19519TIP3    H180048   4.663   3.673   1.910  1.0302  1.9576 -1.4283
19519TIP3    H280049   4.792   3.622   1.970 -0.5992 -0.4041  0.1544
19520TIP3   OH280050   0.536   4.605  12.233  0.1547 -0.0191 -0.3442
19520TIP3    H180051   0.597   4.558  12.291 -0.5835 -1.8363 -0.9793
19520TIP3    H280052   0.549   4.564  12.147 -0.1760  1.2942 -1.0186
19521TIP3   OH280053   5.280   5.650   5.481  0.2208  0.4447 -0.0892
19521TIP3    H180054   5.364   5.636   5.438  1.2884  2.1487  1.3409
19521TIP3    H280055   5.220   5.591   5.437  1.8134  0.3678 -2.2379
19522TIP3   OH280056   2.181   5.300  14.252 -0.0493  0.4513  0.0020
19522TIP3    H180057   2.266   5.308  14.294 -1.3238  1.7138  2.4815
19522TIP3    H280058   2.142   5.221  14.289 -1.0559  1.3962  1.0186
19523TIP3   OH280059   5.000   5.638  14.658 -0.1964 -0.1554  0.1471
19523TIP3    H180060   4.936   5.634  14.729 -2.6056  1.7256 -1.8334
19523TIP3    H280061   5.058   5.711  14.682 -1.2252  0.7132  0.0216
19524TIP3   OH280062   6.255   3.395   4.392  0.2138 -0.4000 -0.3189
19524TIP3    H180063   6.205   3.414   4.471 -2.7279 -1.0604 -1.9286
19524TIP3    H280064   6.323   3.462   4.389 -0.4889  0.4541  2.0550
19525TIP3   OH280065   1.560   1.497   3.485 -0.1305  0.7482  0.3399
19525TIP3    H180066   1.490   1.436   3.507  0.5600  0.3378  1.4098
19525TIP3    H280067   1.581   1.477   3.393 -1.1365  0.6102  0.1300
19526TIP3   OH280068   4.799   5.029  14.959 -0.3729 -0.6270  0.0968
19526TIP3    H180069   4.709   5.060  14.950  0.2544  1.6950  1.3778
19526TIP3    H280070   4.852   5.091  14.908  0.4271 -2.6409 -1.6255
19527TIP3   OH280071   6.163   1.108   5.564 -0.0573 -0.6816 -0.1858
19527TIP3    H180072   6.176   1.044   5.633  1.4149  0.8001  0.9588
19527TIP3    H280073   6.096   1.070   5.507  0.4322 -2.9757  0.7426
19528TIP3   OH280074   0.338   1.854   2.230  0.2555  0.1916 -0.3148
19528TIP3    H180075   0.429   1.850   2.261  0.3148  0.5136 -0.4480
19528TIP3    H280076   0.286   1.838   2.309  0.4214  0.2373 -0.1946
19529TIP3   OH280077   2.837   2.204  14.537  0.4128  0.8583 -0.3322
19529TIP3    H180078   2.896   2.129  14.547 -0.2844  0.2368 -0.8546
19529TIP3    H280079   2.817   2.206  14.443 -0.3619  1.0946 -0.1594
19530TIP3   OH280080   5.965   6.310  16.859  0.2508  0.9715  0.0515
19530TIP3    H180081   6.023   6.385  16.848 -0.1635  1.7355  2.7981
19530TIP3    H280082   5.921   6.325  16.942 -1.1221 -1.4667 -0.1837
19531TIP3   OH280083   3.604   1.317   0.846  0.0834  0.4045  0.7886
19531TIP3    H180084   3.574   1.236   0.887 -0.6443 -0.4872 -1.4635
19531TIP3    H280085   3.700   1.310   0.846  0.0091 -0.7225  0.0976
19532TIP3   OH280086   5.367   1.190   2.201  0.0398 -0.1328  0.1658
19532TIP3    H180087   5.279   1.157   2.187 -0.5333  0.8355  1.3681
19532TIP3    H280088   5.384   1.249   2.127 -0.2226 -0.4982 -0.1854
19533TIP3   OH280089   5.298   5.505   6.069 -0.3778 -0.6047  0.1860
19533TIP3    H180090   5.365   5.573   6.080  0.9099 -2.0617  1.7471
19533TIP3    H280091   5.217   5.545   6.101 -0.3143  1.2098 -1.7994
19534TIP3   OH280092   6.272   6.653  16.670  0.2719  0.4256 -0.6160
19534TIP3    H180093   6.279   6.746  16.650  1.0730  0.4865 -0.0702
19534TIP3    H280094   6.268   6.610  16.584 -0.0920  0.9586 -0.8639
19535TIP3   OH280095   3.710   4.917  11.826 -0.0709  0.1129  0.8362
19535TIP3    H180096   3.800   4.937  11.800 -0.1028  0.1672  0.7676
19535TIP3    H280097   3.667   5.002  11.831 -0.7768 -0.0841 -1.5540
19536TIP3   OH280098   2.952   3.113   1.595 -0.0976  0.1273  0.0770
19536TIP3    H180099   2.928   3.023   1.572  0.0765  0.5010 -1.6672
19536TIP3    H280100   2.905   3.130   1.676 -1.8778 -0.8091 -0.7057
19537TIP3   OH280101   2.948   4.455   5.157  0.8031  0.1394  0.4856
19537TIP3    H180102   2.966   4.539   5.200  0.8617  1.7939 -2.5798
19537TIP3    H280103   3.034   4.417   5.141  0.8814  0.5115  0.0030
19538TIP3   OH280104   2.148   2.996  16.764  0.2225 -0.0976  0.3656
19538TIP3    H180105   2.239   3.025  16.758  0.7863 -1.9293 -0.5922
19538TIP3    H280106   2.148   2.933  16.836 -0.5434  0.7345  1.1056
19539TIP3   OH280107   2.821   4.520  13.708 -0.5529 -0.2878 -0.0758
19539TIP3    H180108   2.806   4.580  13.780  2.2326 -0.9631  1.1348
19539TIP3    H280109   2.851   4.575  13.636 -2.1340  0.2423 -0.3420
19540TIP3   OH280110   3.771   3.913  13.075 -0.0171 -0.1037 -0.2191
19540TIP3    H180111   3.683   3.913  13.039 -0.2146 -0.5198  0.2673
19540TIP3    H280112   3.827   3.885  13.002 -0.1037  1.5885 -0.9612
19541TIP3   OH280113   5.301   3.302   4.288  0.5289 -0.1130  0.2354
19541TIP3    H180114   5.309   3.381   4.235 -2.2102  1.4524  2.0145
19541TIP3    H280115   5.358   3.318   4.363  0.2498  0.0165  0.4196
19542TIP3   OH280116   6.388   4.470  15.620  0.1381 -0.0688 -0.1311
19542TIP3    H180117   6.323   4.424  15.567  1.3456  1.1888 -2.7641
19542TIP3    H280118   6.335   4.523  15.680 -1.2653  0.0309 -1.4144
19543TIP3   OH280119   4.394   5.743  14.760  0.0084 -0.2694  0.1654
19543TIP3    H180120   4.312   5.780  14.792 -0.4154 -2.1312  1.3160
19543TIP3    H280121   4.420   5.679  14.826  3.2771  1.4184  0.6435
19544TIP3   OH280122   2.721   1.720  15.639  0.9134 -0.0875  0.3073
19544TIP3    H180123   2.669   1.705  15.560  0.1209  0.3835  0.7372
19544TIP3    H280124   2.746   1.632  15.668  1.1040 -0.2668 -0.3931
19545TIP3   OH280125   5.364   1.736  14.865 -0.5111  0.6067  0.4055
19545TIP3    H180126   5.326   1.650  14.850  0.1703  0.2943  0.4160
19545TIP3    H280127   5.453   1.717  14.895 -0.1693  1.3223 -0.1361
19546TIP3   OH280128   5.747   2.511  15.004  0.4455 -0.1240  0.2754
19546TIP3    H180129   5.823   2.527  15.059  0.4176  1.3821 -0.0874
19546TIP3    H280130   5.675   2.558  15.047  0.0042 -0.5248 -0.0188
19547TIP3   OH280131   4.457   4.512   0.473  0.2370  0.2700  0.2359
19547TIP3    H180132   4.468   4.591   0.420 -0.3409 -0.5775 -1.1919
19547TIP3    H280133   4.534   4.459   0.453 -0.1427 -0.1922 -0.0151
19548TIP3   OH280134   6.731   2.786  12.145 -0.4030  0.3561 -0.5762
19548TIP3    H180135   6.642   2.821  12.145 -1.2091 -1.5879 -0.0889
19548TIP3    H280136   6.720   2.693  12.167  1.8766  0.4179  1.0502
19549TIP3   OH280137   0.238   5.252   5.622  0.3336 -0.3400 -0.2405
19549TIP3    H180138   0.302   5.273   5.690 -0.8212 -0.7041  0.9947
19549TIP3    H280139   0.159   5.227   5.671 -0.9490  0.7001 -1.7273
19550TIP3   OH280140   4.574   5.392   1.130  0.4296 -0.2254  0.3482
19550TIP3    H180141   4.511   5.419   1.197  0.7434  2.3509 -0.3720
19550TIP3    H280142   4.645   5.456   1.136  0.5843 -0.1164 -2.2713
19551TIP3   OH280143   3.752   0.245   4.147 -0.0321 -0.2963 -0.3346
19551TIP3    H180144   3.657   0.238   4.137 -0.2255 -2.0044  2.1927
19551TIP3    H280145   3.787   0.176   4.091 -0.4427 -1.5331  0.9131
19552TIP3   OH280146   5.818   0.192   5.789 -0.2507 -0.1342 -0.0451
19552TIP3    H180147   5.908   0.162   5.775 -0.4311  0.1238 -1.9321
19552TIP3    H280148   5.772   0.165   5.709 -1.4272  1.2746  0.1465
19553TIP3   OH280149   0.521   6.745   1.672 -0.0000  0.6125  0.0480
19553TIP3    H180150   0.524   6.837   1.645 -1.1482  1.0086  1.1985
19553TIP3    H280151   0.428   6.727   1.682  0.2653 -0.4577  0.5950
19554TIP3   OH280152   3.458   4.991   3.011 -0.0649  0.1732  0.5973
19554TIP3    H180153   3.447   5.054   2.940  0.4766 -0.9651 -0.5122
19554TIP3    H280154   3.528   5.028   3.065  0.3681  0.4545 -0.1475
19555TIP3   OH280155   1.511   3.421  11.168 -0.1700  0.2982  0.5692
19555TIP3    H180156   1.547   3.457  11.087 -0.1989 -0.3003  0.2904
19555TIP3    H280157   1.516   3.326  11.156 -0.2689  0.2117  1.2269
19556TIP3   OH280158   6.170   5.369  13.097 -0.0576  0.0688  0.3918
19556TIP3    H180159   6.124   5.341  13.018 -2.1069 -0.8464  1.8801
19556TIP3    H280160   6.259   5.335  13.085 -0.4606 -0.4272 -1.3390
19557TIP3   OH280161   4.865   3.690   3.642  0.0054  0.3900  0.0892
19557TIP3    H180162   4.949   3.723   3.673 -0.0489  0.7379 -0.1311
19557TIP3    H280163   4.871   3.695   3.546 -0.6609  1.4024  0.0927
19558TIP3   OH280164   6.289   4.790  15.248  0.3322  0.5548  0.1268
19558TIP3    H180165   6.351   4.858  15.273  0.2428  0.6811  0.0079
19558TIP3    H280166   6.266   4.811  15.157 -0.0893  0.6688  0.2564
19559TIP3   OH280167   5.293   2.575   3.161  0.1805  0.0265  0.2977
19559TIP3    H180168   5.380   2.550   3.189  0.1353 -0.6577 -0.1469
19559TIP3    H280169   5.281   2.530   3.077  0.6025  2.5967 -1.2130
19560TIP3   OH280170   3.378   2.662  16.991  0.0991  0.4647  0.5580
19560TIP3    H180171   3.346   2.593  17.049  0.8030  0.0875  0.4962
19560TIP3    H280172   3.460   2.628  16.955  1.4787  2.1226  2.0326
19561TIP3   OH280173   0.606   5.910  16.874  0.1667 -0.2992  0.1758
19561TIP3    H180174   0.590   5.838  16.814 -0.7653  0.5234 -0.5728
19561TIP3    H280175   0.521   5.927  16.915  0.0321  1.3392 -0.7414
19562TIP3   OH280176   2.478   6.340   3.058 -0.1819  0.5604  0.0289
19562TIP3    H180177   2.561   6.321   3.013 -0.8867 -1.8880 -0.3112
19562TIP3    H280178   2.466   6.434   3.046  2.3715  0.9022 -0.2185
19563TIP3   OH280179   3.180   4.194   1.848  0.9289 -0.1359 -0.0295
19563TIP3    H180180   3.191   4.206   1.943  2.3018  0.1681 -0.2068
19563TIP3    H280181   3.155   4.102   1.838  0.5211 -0.0998  0.6544
19564TIP3   OH280182   5.608   4.738  16.428  0.0131 -0.3476  0.9081
19564TIP3    H180183   5.646   4.656  16.461 -0.0826 -0.7109  0.1182
19564TIP3    H280184   5.655   4.806  16.476  3.6383 -0.6751 -2.0132
19565TIP3   OH280185   2.141   0.684   0.460 -0.5382 -0.5763  0.0248
19565TIP3    H180186   2.119   0.778   0.458 -2.6006 -1.0473 -2.8900
19565TIP3    H280187   2.184   0.672   0.545  0.2699  3.1048  0.2502
19566TIP3   OH280188   4.791   4.940  12.939 -0.0034  0.4089  0.3280
19566TIP3    H180189   4.750   4.870  12.888 -1.5246  0.4567  1.4296
19566TIP3    H280190   4.853   4.981  12.879 -1.8881  0.5938 -1.5543
19567TIP3   OH280191   2.233   4.543  15.235 -0.9689 -0.4761  0.0495
19567TIP3    H180192   2.172   4.593  15.181 -1.4544 -0.7887  0.3081
19567TIP3    H280193   2.280   4.488  15.173  0.3696  1.1045 -0.3869
19568TIP3   OH280194   5.002   6.537  10.911  0.0654  0.0409 -0.4171
19568TIP3    H180195   5.054   6.458  10.923 -0.9994 -0.5363  0.5177
19568TIP3    H280196   4.915   6.505  10.887 -0.3289  0.9407 -0.2128
19569TIP3   OH280197   1.916   3.571  16.636  1.0602  0.4941 -0.4781
19569TIP3    H180198   1.946   3.656  16.605 -0.3528  0.5368 -1.7788
19569TIP3    H280199   1.838   3.552  16.584  2.1782 -2.2751 -1.2263
19570TIP3   OH280200   5.510   0.239   5.794 -0.1814  0.0252 -0.3713
19570TIP3    H180201   5.605   0.230   5.804 -0.3347 -1.2466 -0.0265
19570TIP3    H280202   5.489   0.321   5.839  0.5842 -0.3662  0.7339
19571TIP3   OH280203   4.114   4.527  11.060 -0.0812  0.3313 -0.0461
19571TIP3    H180204   4.062   4.563  10.988  2.3877  1.5268 -1.2891
19571TIP3    H280205   4.090   4.435  11.064  0.4236  0.0424 -3.0404
19572TIP3   OH280206   1.008   3.705   0.168 -0.0413  0.0863  0.4714
19572TIP3    H180207   0.943   3.746   0.112  0.5955 -0.0064 -0.3499
19572TIP3    H280208   0.967   3.624   0.197 -0.3475  0.0903  0.0589
19573TIP3   OH280209   5.521   3.516  10.589  0.0194 -0.6139 -0.1600
19573TIP3    H180210   5.578   3.450  10.551  1.3194  0.1564  0.4173
19573TIP3    H280211   5.518   3.494  10.683  0.7489  0.3484  0.0946
19574TIP3   OH280212   4.033   4.815  14.865  0.0721  0.2261  0.0558
19574TIP3    H180213   4.128   4.808  14.876 -0.0173 -0.1384  0.6094
19574TIP3    H280214   3.999   4.819  14.954 -0.4022  0.8349 -0.1434
19575TIP3   OH280215   3.771   2.627  12.270 -0.4801 -0.1115  0.4957
19575TIP3    H180216   3.855   2.663  12.298 -1.9502  0.8660  3.9694
19575TIP3    H280217   3.752   2.672  12.188  1.3124  1.4162  0.8800
19576TIP3   OH280218   4.202   1.999  15.827  0.1915 -0.6429  0.2495
19576TIP3    H180219   4.207   1.928  15.763  1.2595 -0.2297 -0.1477
19576TIP3    H280220   4.147   2.065  15.785  0.8613 -0.3861 -0.2423
19577TIP3   OH280221   0.944   4.954   0.268  0.3426 -1.0020  0.6670
19577TIP3    H180222   0.916   4.892   0.201 -0.7424 -0.5581  0.7086
19577TIP3    H280223   0.931   5.040   0.228  0.9445 -0.7710  0.9608
19578TIP3   OH280224   0.779   2.868  12.469  0.0773 -0.0976  0.1124
19578TIP3    H180225   0.697   2.885  12.516 -0.0686 -0.7851  0.1065
19578TIP3    H280226   0.770   2.917  12.387 -0.2700 -0.0576  0.1755
19579TIP3   OH280227   3.525   0.637  16.913  0.2399 -0.3484  0.3728
19579TIP3    H180228   3.599   0.680  16.871  1.8854 -1.3067  2.2026
19579TIP3    H280229   3.562   0.556  16.948 -1.4882 -0.4454  2.0338
19580TIP3   OH280230   5.698   1.586  10.460 -0.3329 -0.2816 -0.3406
19580TIP3    H180231   5.763   1.643  10.502  0.2725 -0.8444 -0.5082
19580TIP3    H280232   5.648   1.645  10.404 -1.8300  0.6731  1.9128
19581TIP3   OH280233   6.330   1.459   6.290  0.0080 -0.8197  0.0419
19581TIP3    H180234   6.355   1.367   6.283 -1.9939 -1.3319 -0.4787
19581TIP3    H280235   6.281   1.477   6.210  1.9325  1.2145 -0.7235
19582TIP3   OH280236   0.944   2.578  15.752 -0.1391  0.2349 -0.0980
19582TIP3    H180237   0.943   2.625  15.668  0.2002  1.2543  0.4531
19582TIP3    H280238   1.027   2.603  15.792 -0.5268  0.1575  0.7553
19583TIP3   OH280239   5.626   5.878   3.588  0.4840 -0.0276  0.0137
19583TIP3    H180240   5.552   5.857   3.644 -1.1180  1.2952 -1.5431
19583TIP3    H280241   5.667   5.793   3.569 -0.9680 -0.8309  0.4514
19584TIP3   OH280242   0.539   6.023   4.764  0.2320  0.2276  0.8765
19584TIP3    H180243   0.634   6.029   4.778  0.5698 -0.3237 -0.9729
19584TIP3    H280244   0.509   5.961   4.830  1.3302 -0.3517  0.8535
19585TIP3   OH280245   4.764   3.965   0.970 -0.1851 -0.0933 -0.4281
19585TIP3    H180246   4.738   3.997   1.057  0.4684  1.6178 -0.8347
19585TIP3    H280247   4.860   3.967   0.972 -0.1518 -0.9499 -0.8753
19586TIP3   OH280248   2.261   3.889   0.890  0.5513  0.2615  0.1700
19586TIP3    H180249   2.308   3.960   0.847  0.9269 -0.1157 -0.0458
19586TIP3    H280250   2.296   3.887   0.979  1.5992 -0.5946 -0.2445
19587TIP3   OH280251   6.427   1.756  14.483  0.3854  0.1895 -0.7060
19587TIP3    H180252   6.470   1.814  14.547 -2.1327  1.8592 -0.4518
19587TIP3    H280253   6.350   1.722  14.529  1.1232 -2.3944 -1.3067
19588TIP3   OH280254   4.947   4.368   4.908  0.0121  0.1157 -0.2160
19588TIP3    H180255   4.891   4.331   4.977 -1.1838  0.4010 -1.0112
19588TIP3    H280256   4.977   4.292   4.859 -0.1934 -0.0004 -0.1645
19589TIP3   OH280257   4.138   5.153   3.924 -0.1344  0.6376  0.8846
19589TIP3    H180258   4.194   5.114   3.991  1.0375  1.5762  0.4480
19589TIP3    H280259   4.158   5.246   3.925  0.8528  0.4947 -1.6575
19590TIP3   OH280260   1.074   1.945   0.725 -0.2033  0.1709 -0.1029
19590TIP3    H180261   1.082   2.022   0.782 -2.0892  0.5709 -0.3624
19590TIP3    H280262   1.060   1.872   0.785  2.7022 -0.2037  0.2225
19591TIP3   OH280263   2.637   3.994  14.807 -0.0213 -0.7748  0.0522
19591TIP3    H180264   2.662   4.058  14.740  0.3268  0.4122  1.2991
19591TIP3    H280265   2.661   3.910  14.769  1.9838  0.0252 -0.5376
19592TIP3   OH280266   5.487   6.292  12.444  0.3459  0.3096  0.2235
19592TIP3    H180267   5.540   6.347  12.387  0.3666 -1.2428 -1.3056
19592TIP3    H280268   5.490   6.205  12.403 -0.1848 -0.6933  2.2283
19593TIP3   OH280269   2.841   2.826   3.258 -0.4367  0.6721 -0.5439
19593TIP3    H180270   2.885   2.771   3.192 -0.1844  1.1175 -0.7504
19593TIP3    H280271   2.813   2.904   3.209  0.2956  1.2840 -0.0066
19594TIP3   OH280272   2.934   6.031   3.284 -0.4729 -0.4321  0.8288
19594TIP3    H180273   3.023   6.050   3.255 -0.3562 -0.2324  1.3062
19594TIP3    H280274   2.917   5.942   3.252 -0.7499  0.1878 -0.7464
19595TIP3   OH280275   0.240   3.536  12.601  0.6909  0.4602  0.2235
19595TIP3    H180276   0.303   3.577  12.542 -0.1243  1.0776 -0.2206
19595TIP3    H280277   0.256   3.442  12.591  2.0185  0.6181  0.6487
19596TIP3   OH280278   2.916   2.483   2.056 -0.7855  0.2497 -0.1818
19596TIP3    H180279   2.929   2.431   2.135 -1.3358  0.4987  0.0771
19596TIP3    H280280   2.967   2.438   1.989 -0.2192  0.0989  0.3373
19597TIP3   OH280281   4.366   3.665   0.205  0.4282  0.0475 -0.0188
19597TIP3    H180282   4.347   3.739   0.263 -1.7364 -0.2958 -0.2667
19597TIP3    H280283   4.416   3.604   0.259 -0.2157  0.4336  1.0260
19598TIP3   OH280284   3.863   0.530  15.070 -0.2304  0.3303 -0.3261
19598TIP3    H180285   3.924   0.468  15.109 -2.0681  0.4943  2.9660
19598TIP3    H280286   3.886   0.614  15.110 -0.5742  0.9813 -1.4791
19599TIP3   OH280287   1.383   2.120   0.407 -0.6634  0.1881  0.2042
19599TIP3    H180288   1.474   2.147   0.423 -1.4697  2.9469  0.3193
19599TIP3    H280289   1.346   2.106   0.494 -1.3301  2.5011  0.3150
19600TIP3   OH280290   1.421   3.681   3.249 -0.3869 -0.3782 -0.3764
19600TIP3    H180291   1.430   3.672   3.344  0.6434  1.0360 -0.3291
19600TIP3    H280292   1.336   3.641   3.229 -0.4685 -0.9522  1.0948
19601TIP3   OH280293   4.022   1.252  11.329 -0.2070 -0.4185  0.0571
19601TIP3    H180294   3.992   1.174  11.281 -1.1506  0.3376 -0.6126
19601TIP3    H280295   3.948   1.275  11.385 -1.1885  1.8190 -2.0443
19602TIP3   OH280296   1.147   0.817  14.935 -0.0429 -0.2865 -0.2014
19602TIP3    H180297   1.185   0.759  15.001 -0.0131 -0.1817 -0.1262
19602TIP3    H280298   1.092   0.760  14.882 -1.1416 -0.1152  0.7465
19603TIP3   OH280299   6.239   1.769  16.612  0.0105  0.7175 -0.2309
19603TIP3    H180300   6.155   1.762  16.657  0.6780  0.1009  0.9410
19603TIP3    H280301   6.288   1.834  16.662  0.9498 -0.3425  0.2364
19604TIP3   OH280302   6.652   3.093   2.454 -0.3373 -0.1699  0.2716
19604TIP3    H180303   6.585   3.102   2.522  0.8425  0.6012  1.3624
19604TIP3    H280304   6.652   3.177   2.409  1.1002  0.4721  1.4295
19605TIP3   OH280305   5.395   4.902   3.131 -0.0141  0.2527 -0.7637
19605TIP3    H180306   5.307   4.891   3.165  0.5996 -2.4429  0.0971
19605TIP3    H280307   5.444   4.944   3.202 -0.6893  2.1509 -1.4046
19606TIP3   OH280308   1.728   5.030   0.505 -0.3449  0.3844 -0.5954
19606TIP3    H180309   1.661   5.097   0.514 -1.6147 -0.9591  0.3352
19606TIP3    H280310   1.790   5.048   0.576 -1.4837 -0.2864  0.6068
19607TIP3   OH280311   1.903   2.350  13.291 -0.0646 -0.1738  0.3697
19607TIP3    H180312   1.883   2.312  13.376  0.6965  2.8087  1.9744
19607TIP3    H280313   1.817   2.361  13.249 -0.3098 -3.3500 -0.0883
19608TIP3   OH280314   5.793   0.032   3.512  0.1710  0.4116 -0.3103
19608TIP3    H180315   5.760   0.121   3.526 -0.4163 -0.1824  2.4492
19608TIP3    H280316   5.861   0.021   3.578  0.2655 -1.1831 -0.6548
19609TIP3   OH280317   5.986   3.530  11.918  0.6233  0.1739 -0.2167
19609TIP3    H180318   6.058   3.522  11.856  2.3332 -1.1697  1.8679
19609TIP3    H280319   6.004   3.610  11.967  0.1271  0.3863 -0.3728
19610TIP3   OH280320   5.485   4.782   1.876  1.0858 -0.2148  0.0633
19610TIP3    H180321   5.407   4.736   1.910 -0.5057  1.9975 -0.4654
19610TIP3    H280322   5.513   4.729   1.802  0.2049 -1.1699  0.3925
19611TIP3   OH280323   0.059   0.845   5.193  0.3992 -0.2534  0.2204
19611TIP3    H180324   0.054   0.929   5.239  0.3073  0.7427 -1.6040
19611TIP3    H280325  -0.030   0.809   5.199  0.4300 -0.2281  0.9658
19612TIP3   OH280326   1.936   4.734   3.829 -0.0902 -0.4575 -0.0837
19612TIP3    H180327   1.911   4.676   3.757  0.4750  1.1646 -1.6051
19612TIP3    H280328   2.030   4.721   3.839  0.3720  1.5298 -1.6533
19613TIP3   OH280329   4.054   1.994   3.634  0.4092  0.0662  0.2169
19613TIP3    H180330   3.971   1.960   3.602 -0.5036  1.5212  1.0010
19613TIP3    H280331   4.106   2.009   3.554 -0.7620  0.9081 -0.4018
19614TIP3   OH280332   0.445   6.033  13.208 -0.0746  0.3956  0.2069
19614TIP3    H180333   0.391   5.961  13.241  0.0838  0.4701  0.6409
19614TIP3    H280334   0.455   6.015  13.115 -0.4560  0.1271  0.2159
19615TIP3   OH280335   2.952   4.966  13.278  0.0364  0.2476  0.3175
19615TIP3    H180336   3.002   4.885  13.270  1.4677  1.2096 -0.5358
19615TIP3    H280337   2.895   4.967  13.201  1.0965  0.7885 -0.4600
19616TIP3   OH280338   3.736   2.972   3.031 -0.4612 -0.0580  0.0723
19616TIP3    H180339   3.752   2.878   3.038  0.3912  0.1125  0.5121
19616TIP3    H280340   3.746   3.005   3.120 -0.1855  0.5337 -0.1748
19617TIP3   OH280341   0.790   3.932  16.335 -0.0245  0.0290  0.4332
19617TIP3    H180342   0.850   4.000  16.306 -0.9918 -0.0967 -1.9544
19617TIP3    H280343   0.716   3.938  16.276 -1.2093 -1.5307  1.7092
19618TIP3   OH280344   4.401   4.167   0.006 -0.1267  0.8291  0.1910
19618TIP3    H180345   4.328   4.127  -0.041  0.1393 -0.3280  0.7442
19618TIP3    H280346   4.446   4.220  -0.059  0.5308 -1.1449 -0.9955
19619TIP3   OH280347   6.671   3.242   1.889 -0.4004 -0.4232  0.0568
19619TIP3    H180348   6.691   3.156   1.853  0.0164 -0.2032 -0.2463
19619TIP3    H280349   6.742   3.258   1.952 -0.7534 -0.5160  0.4796
19620TIP3   OH280350   2.774   5.552   4.843  0.1504  0.4668 -0.2911
19620TIP3    H180351   2.842   5.542   4.777 -0.2878 -2.4489 -0.3913
19620TIP3    H280352   2.795   5.486   4.909 -1.0226  1.3978  1.0395
19621TIP3   OH280353   6.362   5.706   4.320  0.4388  0.3088  0.3137
19621TIP3    H180354   6.434   5.688   4.380  0.9624 -2.0389 -0.9559
19621TIP3    H280355   6.329   5.620   4.296 -1.5175  1.3063 -0.6641
19622TIP3   OH280356   5.722   2.350  16.398  0.0649 -0.1234 -0.8870
19622TIP3    H180357   5.751   2.401  16.322 -2.4503  2.3129 -0.2924
19622TIP3    H280358   5.775   2.383  16.470  1.0206 -0.9940 -1.1791
19623TIP3   OH280359   4.449   0.899  11.799 -0.4302 -0.1722  0.7750
19623TIP3    H180360   4.456   0.815  11.754  1.6826  0.6339 -0.4685
19623TIP3    H280361   4.471   0.880  11.891  3.7340 -0.4348 -0.1578
19624TIP3   OH280362   0.326   5.092  15.695 -0.3771 -0.2979  0.1701
19624TIP3    H180363   0.419   5.069  15.690 -0.0872  0.8090  0.3704
19624TIP3    H280364   0.293   5.074  15.607  0.0745 -0.4615  0.0280
19625TIP3   OH280365   5.484   3.393  11.825  0.0309  0.3995  0.3458
19625TIP3    H180366   5.551   3.457  11.847 -0.4292  1.2870 -0.7938
19625TIP3    H280367   5.532   3.319  11.788  0.4448  0.6729  0.3437
19626TIP3   OH280368   5.319   4.842  12.195  0.3976 -0.3307  0.0191
19626TIP3    H180369   5.267   4.764  12.175  0.9644 -0.7840  0.2876
19626TIP3    H280370   5.271   4.886  12.265  0.0764 -0.4415 -0.1307
19627TIP3   OH280371   0.011   5.340   6.323 -0.6424  0.2115  0.1354
19627TIP3    H180372  -0.005   5.259   6.372  1.1726 -0.0040  0.3946
19627TIP3    H280373  -0.001   5.410   6.387  1.2454 -0.0451  0.8059
19628TIP3   OH280374   3.455   1.882  12.491 -0.1121  0.0524 -0.5480
19628TIP3    H180375   3.380   1.904  12.437 -1.7017 -1.0659  1.1145
19628TIP3    H280376   3.421   1.881  12.581  1.0759 -3.6237 -0.0289
19629TIP3   OH280377   4.431   0.448   4.579 -0.2372  0.0860 -0.1844
19629TIP3    H180378   4.493   0.512   4.615 -0.6353  0.1137  0.4732
19629TIP3    H280379   4.428   0.378   4.645  0.8704 -1.0409 -1.3270
19630TIP3   OH280380   0.242   2.936  16.057 -0.0632  0.3853  0.3994
19630TIP3    H180381   0.279   3.020  16.031 -0.3645  0.3987  0.0106
19630TIP3    H280382   0.318   2.883  16.081  0.3234  0.0448 -1.4515
19631TIP3   OH280383   6.447   3.497  13.981 -0.3067  0.0451 -0.1587
19631TIP3    H180384   6.379   3.506  14.047  1.1966 -1.5355  1.6918
19631TIP3    H280385   6.504   3.427  14.015  2.8798  2.0711 -1.0486
19632TIP3   OH280386   4.928   4.881  14.455  0.4930  0.3299  0.0353
19632TIP3    H180387   4.967   4.884  14.542  2.7790 -1.2149 -0.9068
19632TIP3    H280388   4.910   4.788  14.440  1.2290  0.4477 -1.6219
19633TIP3   OH280389   4.158   4.655   4.816  0.1848  0.4265 -0.0937
19633TIP3    H180390   4.102   4.577   4.819 -0.5831  0.9302 -0.9058
19633TIP3    H280391   4.246   4.622   4.798 -0.1720 -0.2290 -0.6072
19634TIP3   OH280392   1.840   3.892   0.728 -0.1607  0.0230  0.0988
19634TIP3    H180393   1.747   3.879   0.711 -0.4812  1.1398  0.9151
19634TIP3    H280394   1.842   3.938   0.812  1.1739 -0.9792  0.6346
19635TIP3   OH280395   1.386   5.765  15.818 -0.5307 -0.2475  0.1494
19635TIP3    H180396   1.326   5.821  15.867 -0.7790  0.8336 -1.3726
19635TIP3    H280397   1.470   5.777  15.861 -0.6978  0.8641  0.1700
19636TIP3   OH280398   1.860   1.243   0.064  0.2165  0.0332 -0.2628
19636TIP3    H180399   1.944   1.276   0.033 -0.5232  2.4969  0.2699
19636TIP3    H280400   1.814   1.320   0.097 -1.7587 -1.4679  0.6193
19637TIP3   OH280401   4.648   3.403   0.590 -0.9851  0.5895  0.1496
19637TIP3    H180402   4.554   3.411   0.574 -1.2093 -0.3512  0.9613
19637TIP3    H280403   4.682   3.359   0.512 -1.2597  0.6856 -0.0251
19638TIP3   OH280404   5.696   5.671  13.659 -0.0413 -0.2412  0.2178
19638TIP3    H180405   5.638   5.739  13.621  1.4138  0.7613 -0.2536
19638TIP3    H280406   5.719   5.616  13.584  0.3493 -0.1016  0.2376
19639TIP3   OH280407   4.632   5.961  14.381 -0.5429 -0.0285 -0.1722
19639TIP3    H180408   4.656   5.905  14.307 -0.4967  1.3554 -1.2274
19639TIP3    H280409   4.653   6.050  14.351 -0.1530  0.5049  1.6609
19640TIP3   OH280410   4.226   2.270   2.217  0.0116 -0.2660  0.8378
19640TIP3    H180411   4.185   2.293   2.134  1.4209  1.1465  0.5233
19640TIP3    H280412   4.306   2.322   2.220  0.2204 -0.6653  2.8646
19641TIP3   OH280413   1.996   6.218  15.582  0.1279 -0.1520 -0.1612
19641TIP3    H180414   1.930   6.150  15.572  1.1531 -1.0019 -1.2893
19641TIP3    H280415   2.034   6.227  15.494  0.3127  1.5577  0.0750
19642TIP3   OH280416   4.304   0.844  13.189 -0.1915 -0.2635  0.4719
19642TIP3    H180417   4.222   0.874  13.228  0.9136  0.4632  2.3264
19642TIP3    H280418   4.326   0.910  13.123 -0.7047 -0.0650  0.4968
19643TIP3   OH280419   0.909   0.089   5.042  0.0780 -0.5375 -0.1907
19643TIP3    H180420   1.001   0.068   5.025  0.1038  1.4986 -2.9713
19643TIP3    H280421   0.911   0.160   5.105  0.2844 -2.3409  1.8836
19644TIP3   OH280422   5.015   3.759  14.852 -0.7695  0.1803  0.2154
19644TIP3    H180423   4.986   3.834  14.800 -0.0977  0.6794  0.5522
19644TIP3    H280424   5.049   3.798  14.933  1.7105 -0.3184 -0.5671
19645TIP3   OH280425   2.531   0.027   2.124  0.0314 -0.1450 -0.0227
19645TIP3    H180426   2.487  -0.054   2.098 -0.0317 -0.0133 -0.3262
19645TIP3    H280427   2.506   0.091   2.057  0.3561  0.0364  0.0274
19646TIP3   OH280428   5.192   5.195  12.118  0.3943 -0.1171 -0.2990
19646TIP3    H180429   5.202   5.209  12.212  0.1655  1.4593 -0.4970
19646TIP3    H280430   5.097   5.190  12.105  0.3117  2.0647 -0.7529
19647TIP3   OH280431   4.725   2.258   1.284 -0.0796 -0.0711 -0.5348
19647TIP3    H180432   4.736   2.250   1.379 -0.9414  0.1443 -0.4132
19647TIP3    H280433   4.790   2.198   1.247  0.1475 -0.2778  0.1980
19648TIP3   OH280434   6.074   3.202  13.577  0.1317  0.2658  0.1216
19648TIP3    H180435   6.024   3.145  13.519  1.3838 -1.6447  0.8802
19648TIP3    H280436   6.146   3.235  13.523  0.6470 -0.6083  0.2694
19649TIP3   OH280437   4.426   5.955   5.813 -0.3041 -0.0475 -0.0902
19649TIP3    H180438   4.512   5.914   5.822  0.6932  2.4242  2.1956
19649TIP3    H280439   4.371   5.908   5.876 -0.2200 -0.5255 -0.3654
19650TIP3   OH280440   5.488   3.446  14.904  0.1570  0.2634 -0.7691
19650TIP3    H180441   5.570   3.432  14.953 -0.1795  2.8645  0.6415
19650TIP3    H280442   5.509   3.515  14.842 -1.2008  1.6324  0.2540
19651TIP3   OH280443   2.490   2.124   5.324  0.3139 -0.2368 -0.0860
19651TIP3    H180444   2.552   2.064   5.365 -0.1804 -0.2848  0.6071
19651TIP3    H280445   2.455   2.176   5.396 -0.0452  0.1666 -0.5418
19652TIP3   OH280446   1.178   1.694  16.487 -0.1778 -0.1468  0.4419
19652TIP3    H180447   1.092   1.657  16.507 -0.2762 -0.3042 -0.2862
19652TIP3    H280448   1.169   1.787  16.510 -0.9788  0.1321 -0.9523
19653TIP3   OH280449   1.366   3.360   4.526  0.0716  0.0811 -0.6769
19653TIP3    H180450   1.386   3.429   4.589  1.5437 -0.0054 -1.0380
19653TIP3    H280451   1.399   3.393   4.443  1.1549 -1.2279 -0.7743
19654TIP3   OH280452   0.879   0.850   3.921 -0.2493  0.5206  0.6549
19654TIP3    H180453   0.867   0.942   3.946 -1.0959  0.1229  1.7687
19654TIP3    H280454   0.847   0.846   3.831  1.0417  1.5886  0.1391
19655TIP3   OH280455   6.272   4.939  14.124  0.5792 -0.4419  0.3294
19655TIP3    H180456   6.210   4.896  14.183 -2.4365  1.8760 -0.9575
19655TIP3    H280457   6.311   5.008  14.177 -1.6694  1.2381 -0.1022
19656TIP3   OH280458   2.523   3.680   0.936  0.1680  0.0511 -0.2972
19656TIP3    H180459   2.557   3.592   0.951 -0.0005 -0.1478 -1.0368
19656TIP3    H280460   2.588   3.720   0.878  0.8933  0.8506  1.0571
19657TIP3   OH280461   2.607   0.543   4.878 -0.3919 -0.4602 -0.1034
19657TIP3    H180462   2.645   0.480   4.940  1.2111 -0.3965 -1.0011
19657TIP3    H280463   2.551   0.490   4.821 -0.4048 -0.8065  0.2275
19658TIP3   OH280464   5.196   1.918   3.769  0.2155  0.1045  0.1895
19658TIP3    H180465   5.154   1.938   3.686 -1.6002  1.3664  1.3677
19658TIP3    H280466   5.151   1.840   3.801 -1.1752  1.3678  1.3806
19659TIP3   OH280467   3.165   4.556  15.515 -0.2229  0.5448 -0.4535
19659TIP3    H180468   3.251   4.522  15.490 -0.7751 -0.6233 -0.8360
19659TIP3    H280469   3.137   4.609  15.441  0.3332  1.2423 -0.1652
19660TIP3   OH280470   5.971   3.696  12.974  0.1856 -0.0421 -0.1259
19660TIP3    H180471   5.909   3.648  13.029  0.4597  0.9069  1.0306
19660TIP3    H280472   5.917   3.746  12.914 -0.1736  0.3624  0.5225
19661TIP3   OH280473   5.840   5.044   0.282 -0.2758 -0.0631  0.5623
19661TIP3    H180474   5.806   4.957   0.263 -2.1356  0.6554  0.5205
19661TIP3    H280475   5.897   5.064   0.207  0.5329 -1.4204  0.8080
19662TIP3   OH280476   6.195   1.712  16.335 -0.7316  0.4069 -0.0039
19662TIP3    H180477   6.259   1.765  16.288  0.5640 -0.3934  0.8396
19662TIP3    H280478   6.208   1.734  16.427 -0.8586 -0.6218  0.2721
19663TIP3   OH280479   4.089   5.660   2.043  0.1377  0.4288 -0.5128
19663TIP3    H180480   4.141   5.706   1.979  0.9818 -0.3210 -0.3762
19663TIP3    H280481   4.145   5.654   2.120 -0.8286  1.2290  0.2625
19664TIP3   OH280482   1.265   6.438  15.645 -0.0229 -0.3863 -0.7133
19664TIP3    H180483   1.352   6.398  15.655 -0.3537 -0.8740  0.3594
19664TIP3    H280484   1.231   6.403  15.563  1.1488  0.4966 -1.5932
19665TIP3   OH280485   0.354   3.204   0.319  0.0064 -0.3151 -0.3682
19665TIP3    H180486   0.334   3.281   0.265 -0.8568  0.3056  0.8021
19665TIP3    H280487   0.361   3.132   0.257 -3.2485 -0.0591 -1.1096
19666TIP3   OH280488   0.512   3.778  16.974  0.3533  0.7966 -0.4596
19666TIP3    H180489   0.481   3.839  16.908 -0.0720  0.3101 -0.7115
19666TIP3    H280490   0.513   3.828  17.056 -1.9262  0.5688 -0.2726
19667TIP3   OH280491   1.509   4.152  16.338  0.2587  0.1413 -0.1302
19667TIP3    H180492   1.451   4.193  16.274  0.3751  1.7681  0.7844
19667TIP3    H280493   1.594   4.147  16.295 -0.1929 -0.8855 -0.9293
19668TIP3   OH280494   4.307   3.401  11.540 -0.1500  0.2833  0.2496
19668TIP3    H180495   4.307   3.427  11.633  1.3582  1.9708 -0.1889
19668TIP3    H280496   4.373   3.332  11.535 -0.5968 -0.1649  0.5246
19669TIP3   OH280497   5.060   6.135   5.743 -0.4554  0.4921 -0.3231
19669TIP3    H180498   5.056   6.133   5.839 -2.4117  0.1787 -0.3766
19669TIP3    H280499   5.146   6.099   5.722  1.2393  3.3269  1.3773
19670TIP3   OH280500   3.392   4.131   4.538 -0.5351 -0.1964  0.0771
19670TIP3    H180501   3.450   4.183   4.482  1.1584 -1.2807  0.7656
19670TIP3    H280502   3.405   4.041   4.509 -0.5498 -0.6415  1.3898
19671TIP3   OH280503   5.848   3.828  11.668  0.2180 -0.1282 -0.0785
19671TIP3    H180504   5.934   3.788  11.681 -0.0993 -0.6863  0.3194
19671TIP3    H280505   5.802   3.813  11.751 -1.1437 -1.9769 -1.1490
19672TIP3   OH280506   2.389   1.021  15.289  0.1270 -0.3974  0.2908
19672TIP3    H180507   2.446   0.946  15.269 -0.6508 -0.8018 -0.4218
19672TIP3    H280508   2.405   1.082  15.216  1.7275  0.7131  1.5265
19673TIP3   OH280509   0.681   1.253   1.634  0.1519  0.0430  0.8198
19673TIP3    H180510   0.719   1.171   1.602  1.3374  1.3044 -1.1534
19673TIP3    H280511   0.682   1.311   1.557 -1.3003  1.6845  1.9998
19674TIP3   OH280512   3.400   1.227  15.836  0.5470  0.0115  0.0700
19674TIP3    H180513   3.460   1.290  15.795  0.3144 -0.1863 -0.5691
19674TIP3    H280514   3.441   1.207  15.921  1.6397 -0.4774 -0.5590
19675TIP3   OH280515   0.953   1.613  11.126 -0.0985  0.9698 -0.1997
19675TIP3    H180516   0.983   1.701  11.102  1.6132  0.4542  0.0084
19675TIP3    H280517   1.033   1.560  11.126 -1.1720 -0.6644 -0.6739
19676TIP3   OH280518   0.744   0.099   2.274 -0.0363  0.1542  0.3602
19676TIP3    H180519   0.754   0.146   2.191  0.9650 -1.0891 -0.2400
19676TIP3    H280520   0.827   0.051   2.285 -0.5460 -0.4785  1.5802
19677TIP3   OH280521   2.928   3.098  14.864 -0.1693 -0.1453  0.1990
19677TIP3    H180522   3.019   3.127  14.867  0.0127 -0.8089  1.3247
19677TIP3    H280523   2.904   3.086  14.956 -1.5751  0.5933 -0.0642
19678TIP3   OH280524   1.156   6.229   1.301 -0.0366  0.2110 -0.0255
19678TIP3    H180525   1.190   6.150   1.342  0.1517 -0.6029 -1.7171
19678TIP3    H280526   1.162   6.296   1.369  0.6413 -1.0142  1.1331
19679TIP3   OH280527   3.417   6.777   0.633  0.3835  0.0547  0.3015
19679TIP3    H180528   3.460   6.785   0.548 -1.8396 -1.3609 -0.9944
19679TIP3    H280529   3.329   6.810   0.619 -0.3044 -1.0702  1.8272
19680TIP3   OH280530   5.981   6.776  15.702 -0.3345  0.6174  0.0027
19680TIP3    H180531   6.028   6.729  15.771 -0.6223 -0.8547 -0.7757
19680TIP3    H280532   6.050   6.816  15.649 -0.0757  0.8085  0.4772
19681TIP3   OH280533   1.302   0.649   5.091  0.7902 -0.4457 -0.2447
19681TIP3    H180534   1.352   0.730   5.082  1.2592 -0.8770 -1.5922
19681TIP3    H280535   1.253   0.642   5.009 -1.2556 -0.1982  0.9133
19682TIP3   OH280536   4.292   3.854   4.391  0.0906  0.1513 -0.0258
19682TIP3    H180537   4.358   3.862   4.459 -0.4191  0.2034  0.4633
19682TIP3    H280538   4.277   3.759   4.383 -1.0232  0.2175  1.0765
19683TIP3   OH280539   1.849   2.535  13.551 -0.2494 -0.4718 -0.0598
19683TIP3    H180540   1.908   2.571  13.485 -0.7302 -0.0361 -0.2604
19683TIP3    H280541   1.907   2.496  13.617  0.3960  2.2108  1.0582
19684TIP3   OH280542   2.481   4.348  11.168  0.1114  0.0024  0.3842
19684TIP3    H180543   2.504   4.438  11.145 -0.3392 -0.1221 -0.5650
19684TIP3    H280544   2.506   4.297  11.092  1.6376 -0.8823  1.4472
19685TIP3   OH280545   4.030   4.844   2.821  0.6463  0.0406 -0.3415
19685TIP3    H180546   3.946   4.801   2.803  1.3487 -1.1250 -0.9394
19685TIP3    H280547   4.076   4.782   2.878  1.6134  0.0507 -1.0906
19686TIP3   OH280548   3.684   3.018   3.302  0.0093  0.6864  0.1059
19686TIP3    H180549   3.593   3.048   3.304 -0.3064 -0.3122  1.0480
19686TIP3    H280550   3.707   3.008   3.394  0.4101 -1.0812 -0.1843
19687TIP3   OH280551   2.791   4.485   4.561  0.1038 -0.8864  0.4392
19687TIP3    H180552   2.873   4.461   4.518  1.3384  0.1205  2.1700
19687TIP3    H280553   2.817   4.548   4.628 -2.1426 -0.2877  0.7780
19688TIP3   OH280554   6.078   5.471   1.940 -0.5875  0.1499  0.0644
19688TIP3    H180555   6.128   5.469   2.022  0.1762  1.2890 -0.3715
19688TIP3    H280556   6.091   5.383   1.903  0.7636  0.2877  0.1582
19689TIP3   OH280557   1.573   4.585  14.760 -0.3181 -0.3885 -0.1746
19689TIP3    H180558   1.547   4.675  14.739 -0.5545 -0.7390 -1.4366
19689TIP3    H280559   1.528   4.531  14.695 -1.1888 -1.5509  1.3340
19690TIP3   OH280560   4.743   2.583  11.563 -0.2216 -0.7254  0.5295
19690TIP3    H180561   4.838   2.597  11.563 -0.3924  0.7067 -1.6204
19690TIP3    H280562   4.707   2.662  11.604 -0.7386  1.5061 -3.9253
19691TIP3   OH280563   3.231   3.276   3.893  0.1835  0.1038 -0.3740
19691TIP3    H180564   3.192   3.337   3.956  1.8884  0.7131  0.1370
19691TIP3    H280565   3.291   3.223   3.945 -2.3596 -3.0653 -0.5554
19692TIP3   OH280566   2.042   4.156  11.362 -0.2152  0.5126 -0.5453
19692TIP3    H180567   1.962   4.141  11.312 -0.6874 -1.3419  0.7176
19692TIP3    H280568   2.013   4.202  11.441  0.3339  2.1687 -1.2929
19693TIP3   OH280569   1.985   1.923   0.156 -0.2152 -0.2829 -0.3982
19693TIP3    H180570   1.893   1.898   0.169  0.1318 -1.1361  0.4399
19693TIP3    H280571   2.018   1.942   0.243  0.3473  0.2407 -0.7234
19694TIP3   OH280572   4.498   2.604   6.134 -0.8633 -0.3536 -0.2823
19694TIP3    H180573   4.454   2.671   6.083  1.3276  1.3625  0.0149
19694TIP3    H280574   4.573   2.578   6.081  1.1824  1.1187  1.7573
19695TIP3   OH280575   6.044   0.367  12.472  0.4908 -0.1181 -0.0701
19695TIP3    H180576   6.038   0.287  12.420  1.0064 -1.3259  1.7282
19695TIP3    H280577   5.955   0.380  12.507  0.2479  0.4702 -0.8733
19696TIP3   OH280578   0.277   4.303   3.084  0.3791 -0.1865 -0.7241
19696TIP3    H180579   0.199   4.250   3.066 -0.1842  0.2766  0.2910
19696TIP3    H280580   0.342   4.274   3.020  0.1953 -2.3370  0.0391
19697TIP3   OH280581   1.911   6.165   0.157 -0.1568 -0.0740 -0.2741
19697TIP3    H180582   1.922   6.089   0.215 -1.6088 -0.2725 -0.2303
19697TIP3    H280583   1.817   6.167   0.139 -0.0649  1.4829 -0.6068
19698TIP3   OH280584   6.602   2.221  11.311 -0.4367 -0.4448 -0.1128
19698TIP3    H180585   6.539   2.279  11.270  0.7874  1.9088  1.2519
19698TIP3    H280586   6.664   2.200  11.240 -0.1641  0.9675 -0.3109
19699TIP3   OH280587   1.088   0.974  16.067 -0.3252  0.3919 -0.8209
19699TIP3    H180588   1.004   1.006  16.100 -0.6194  1.3230 -2.4138
19699TIP3    H280589   1.065   0.900  16.011 -0.0169  0.2082 -0.7060
19700TIP3   OH280590   1.901   5.041   3.839 -0.4864 -0.3601 -0.2622
19700TIP3    H180591   1.897   4.947   3.821 -1.9921 -0.7335  1.8003
19700TIP3    H280592   1.990   5.056   3.870 -0.0151 -0.9594 -1.2873
19701TIP3   OH280593   4.935   2.121  14.857  0.2924 -0.1246  0.3276
19701TIP3    H180594   4.856   2.111  14.804  0.9652 -1.7851 -0.3839
19701TIP3    H280595   4.919   2.065  14.934  0.7310 -0.3888  0.2277
19702TIP3   OH280596   4.369   6.315  14.993 -0.1000  0.6748  0.0199
19702TIP3    H180597   4.380   6.250  14.924 -1.6639  1.6371 -1.1828
19702TIP3    H280598   4.397   6.271  15.073  0.9280 -0.7451 -1.0982
19703TIP3   OH280599   5.406   1.871   2.587  0.4786 -0.2818  0.4200
19703TIP3    H180600   5.348   1.810   2.632  1.7954 -2.0084 -0.1519
19703TIP3    H280601   5.490   1.863   2.634  1.3188 -0.6782 -1.1158
19704TIP3   OH280602   2.481   4.052   4.269 -0.2446  0.0649 -0.3922
19704TIP3    H180603   2.396   4.088   4.244  0.2447  0.8404 -0.9616
19704TIP3    H280604   2.505   3.993   4.197 -0.5600 -0.6063  0.0428
19705TIP3   OH280605   2.445   4.688   6.122  0.6532  0.3224 -0.1711
19705TIP3    H180606   2.400   4.609   6.151  1.3488  0.3811  1.1539
19705TIP3    H280607   2.434   4.750   6.195  1.6643  0.8085 -0.4115
19706TIP3   OH280608   0.916   3.319   3.429 -0.3369 -0.3101  0.0175
19706TIP3    H180609   0.900   3.290   3.519 -1.4275 -0.1757 -0.1314
19706TIP3    H280610   1.010   3.304   3.416  0.0609  0.7304  1.5508
19707TIP3   OH280611   6.617   2.928  15.724 -0.2609  0.0737 -0.3768
19707TIP3    H180612   6.659   2.878  15.654  0.9917  0.7067 -0.0797
19707TIP3    H280613   6.680   2.928  15.796 -1.3351 -0.1457  0.5866
19708TIP3   OH280614   4.746   4.653  16.438  0.8667 -0.2186  0.3953
19708TIP3    H180615   4.688   4.670  16.513  0.9560 -0.0123  0.4165
19708TIP3    H280616   4.800   4.731  16.432  0.8404 -0.2220  0.0930
19709TIP3   OH280617   3.167   0.071   0.610 -0.5908  0.2643 -0.5370
19709TIP3    H180618   3.176   0.165   0.591 -0.8174  0.4291  0.1293
19709TIP3    H280619   3.075   0.052   0.591 -0.6628  0.2884 -0.2194
19710TIP3   OH280620   5.975   5.055   0.522  0.3274  0.1304  0.0433
19710TIP3    H180621   5.918   4.985   0.553  1.8899 -0.9408  0.5982
19710TIP3    H280622   5.942   5.078   0.435 -0.4889 -0.9683  0.0682
19711TIP3   OH280623   0.685   2.092  16.355 -0.1166  0.0418 -0.3882
19711TIP3    H180624   0.761   2.099  16.297  1.1035 -1.2134  1.0315
19711TIP3    H280625   0.722   2.094  16.443 -1.7629 -0.3930  0.3196
19712TIP3   OH280626   0.155   4.210  15.430  0.2019 -0.0218  0.1057
19712TIP3    H180627   0.224   4.248  15.376  1.1221 -0.4925  0.9274
19712TIP3    H280628   0.144   4.121  15.395  0.1188  0.0058  0.0621
19713TIP3   OH280629   0.855   4.444   5.908  0.3434  0.0776  0.1422
19713TIP3    H180630   0.902   4.467   5.989  0.8957 -0.9525  0.1148
19713TIP3    H280631   0.905   4.486   5.838  0.5729 -0.0821  0.2128
19714TIP3   OH280632   2.277   1.252  12.366 -0.4807 -0.6307  0.2261
19714TIP3    H180633   2.322   1.260  12.282  0.5127 -2.8747  0.5104
19714TIP3    H280634   2.189   1.287  12.350 -0.2258 -0.8370 -1.6961
19715TIP3   OH280635   6.570   1.379  14.367 -0.6794  0.1156 -0.4127
19715TIP3    H180636   6.511   1.439  14.322  0.3139  1.2486 -0.2272
19715TIP3    H280637   6.563   1.402  14.459  2.1014  2.1817 -0.6316
19716TIP3   OH280638   2.925   1.048  12.802  0.1698  0.1015  0.3646
19716TIP3    H180639   2.853   0.986  12.808  1.4070 -1.3564  0.3699
19716TIP3    H280640   2.883   1.134  12.800 -1.5368 -0.7128  0.7773
19717TIP3   OH280641   5.264   3.000  14.726 -0.6201  0.3521 -0.0807
19717TIP3    H180642   5.242   3.011  14.633  0.4164 -0.0308 -0.3705
19717TIP3    H280643   5.328   2.929  14.728 -0.1199  0.8200  0.8589
19718TIP3   OH280644   5.668   0.297  11.136  0.1582 -0.2990 -0.4417
19718TIP3    H180645   5.625   0.295  11.050  0.4504 -1.6927 -0.5664
19718TIP3    H280646   5.701   0.208  11.148  0.6681  0.0582  0.8444
19719TIP3   OH280647   6.803   4.617   1.514  0.4832  0.4937 -0.2954
19719TIP3    H180648   6.848   4.576   1.440 -1.2297  0.3909 -1.3131
19719TIP3    H280649   6.820   4.558   1.587 -1.1391 -1.5960 -1.5268
19720TIP3   OH280650   5.473   6.453   1.582 -0.2383 -0.1135 -0.0467
19720TIP3    H180651   5.414   6.449   1.657 -1.1396  1.5590 -0.6355
19720TIP3    H280652   5.507   6.543   1.583  0.8311 -0.4975 -0.8293
19721TIP3   OH280653   3.843   1.467  14.445  0.1957  0.2518  0.3784
19721TIP3    H180654   3.781   1.505  14.382  0.9667  2.7989  1.0988
19721TIP3    H280655   3.910   1.426  14.390 -0.8592 -0.4735 -0.4127
19722TIP3   OH280656   3.831   3.787  11.385  0.2081 -0.6190 -0.0246
19722TIP3    H180657   3.904   3.810  11.327  0.1781 -1.0974 -0.2540
19722TIP3    H280658   3.784   3.718  11.339  1.4488 -2.5751  1.5155
19723TIP3   OH280659   2.538   2.139  11.979 -0.1725 -0.9178 -0.3080
19723TIP3    H180660   2.617   2.117  11.929  0.7664  1.4070  0.1204
19723TIP3    H280661   2.469   2.144  11.913 -0.1979 -3.7962 -0.5866
19724TIP3   OH280662   5.255   6.617  13.238  0.0942  0.5951  0.4573
19724TIP3    H180663   5.228   6.526  13.244  1.7036 -0.0801 -1.6602
19724TIP3    H280664   5.182   6.661  13.195  0.5234 -0.3525 -1.3164
19725TIP3   OH280665   4.109   3.629  12.489  0.3616 -1.0033  0.4396
19725TIP3    H180666   4.166   3.624  12.412 -1.1594  0.0996 -0.7844
19725TIP3    H280667   4.034   3.573  12.466 -1.3409  1.3708 -0.0037
19726TIP3   OH280668   6.266   4.652  13.378  0.2530  0.5979 -0.4994
19726TIP3    H180669   6.203   4.701  13.325 -0.2424  2.2216  1.4904
19726TIP3    H280670   6.318   4.720  13.420  0.3419 -0.6159  1.4011
19727TIP3   OH280671   2.179   1.546   1.752  0.1239  0.0113 -0.1320
19727TIP3    H180672   2.209   1.604   1.822 -0.1622  0.7747 -0.6348
19727TIP3    H280673   2.135   1.604   1.690 -1.0223 -0.8820 -0.1744
19728TIP3   OH280674   6.247   3.437  12.197  0.2071  0.0639  0.3487
19728TIP3    H180675   6.318   3.452  12.259  0.3526  0.3298  0.1207
19728TIP3    H280676   6.251   3.512  12.139 -0.6787  0.4084  0.7326
19729TIP3   OH280677   1.724   2.984   0.416 -0.0189  0.2944 -0.2156
19729TIP3    H180678   1.711   2.917   0.484 -0.1606 -0.3731 -0.8898
19729TIP3    H280679   1.819   2.998   0.415 -0.1706  1.5957  1.3232
19730TIP3   OH280680   0.390   3.337   4.055  0.0482  0.1685 -0.3356
19730TIP3    H180681   0.438   3.352   4.136  1.1498  0.8762 -1.1161
19730TIP3    H280682   0.345   3.420   4.038  1.7432  0.8124 -1.7259
19731TIP3   OH280683   4.253   2.334   1.166  0.6545  0.0721  0.5372
19731TIP3    H180684   4.200   2.340   1.087  1.0976  0.8193  0.2914
19731TIP3    H280685   4.191   2.311   1.235  0.3334 -1.0210 -0.1000
19732TIP3   OH280686   3.774   6.347  11.979  0.2667  0.1543 -0.1914
19732TIP3    H180687   3.793   6.302  12.061 -0.7562  0.1911  0.0788
19732TIP3    H280688   3.757   6.438  12.004 -3.0715 -0.4630 -0.0373
19733TIP3   OH280689   1.543   3.309   1.382 -0.4064  0.1109 -0.0750
19733TIP3    H180690   1.526   3.298   1.289 -2.3777  1.8255  0.0397
19733TIP3    H280691   1.463   3.278   1.425 -1.4372  3.6777  0.7643
19734TIP3   OH280692   4.621   0.042  16.696 -1.1360 -0.2444  0.1575
19734TIP3    H180693   4.638  -0.052  16.703 -3.4474 -0.5852  1.4502
19734TIP3    H280694   4.643   0.077  16.783  1.1785  0.7095 -0.7448
19735TIP3   OH280695   2.103   5.905   3.360 -0.2887  0.0573 -0.3652
19735TIP3    H180696   2.093   5.971   3.291 -1.1523  0.2433 -0.0754
19735TIP3    H280697   2.085   5.953   3.441  0.4900 -0.2127 -0.0309
19736TIP3   OH280698   3.577   2.189   5.195  0.2881 -0.0658  0.2867
19736TIP3    H180699   3.535   2.214   5.278  0.7357  1.9201 -0.0694
19736TIP3    H280700   3.622   2.268   5.166 -1.5740 -0.0790 -2.9038
19737TIP3   OH280701   4.711   4.693  14.950 -0.2329  0.2758 -0.3802
19737TIP3    H180702   4.739   4.735  15.032  0.1031  0.4050 -0.5642
19737TIP3    H280703   4.616   4.705  14.949 -0.4068 -0.8319  0.6149
19738TIP3   OH280704   2.385   4.027   5.618 -1.0714  0.0012 -0.1016
19738TIP3    H180705   2.423   4.111   5.642  0.3152 -0.6083 -0.1190
19738TIP3    H280706   2.442   3.962   5.659 -1.5580 -0.9549 -0.9049
19739TIP3   OH280707   0.158   4.099   3.707  0.0779 -0.0811 -0.2438
19739TIP3    H180708   0.204   4.094   3.790  1.3326  0.3019 -0.9094
19739TIP3    H280709   0.119   4.187   3.706 -0.6890 -0.4142  0.3293
19740TIP3   OH280710   4.693   1.143   0.527 -0.3766 -0.1441  0.0576
19740TIP3    H180711   4.754   1.122   0.457  0.3595 -0.9269  0.9132
19740TIP3    H280712   4.721   1.228   0.559 -0.1176 -0.2179  0.0300
19741TIP3   OH280713   3.868   2.724  11.818 -0.1197 -0.7469 -0.2516
19741TIP3    H180714   3.923   2.802  11.826 -0.2000 -0.8365  1.2022
19741TIP3    H280715   3.927   2.654  11.792  0.6067 -1.0014  1.9765
19742TIP3   OH280716   3.858   1.470   2.741 -0.8658  0.2859 -0.5173
19742TIP3    H180717   3.892   1.439   2.825 -0.5958  0.1452 -0.6754
19742TIP3    H280718   3.786   1.529   2.764  0.3420  1.6345 -0.1411
19743TIP3   OH280719   3.737   2.904   1.116  1.1072  0.0027  0.1661
19743TIP3    H180720   3.654   2.949   1.097  1.3708 -0.2675 -1.7667
19743TIP3    H280721   3.725   2.869   1.204 -0.8817 -0.1046 -0.1061
19744TIP3   OH280722   4.773   6.496   2.587  0.1985 -0.1317 -0.0183
19744TIP3    H180723   4.748   6.550   2.512 -0.6262 -0.9853 -0.3596
19744TIP3    H280724   4.841   6.438   2.553 -1.4496 -1.7613 -0.5919
19745TIP3   OH280725   6.191   1.697  15.378 -0.1449  0.4056  0.4472
19745TIP3    H180726   6.159   1.687  15.288 -2.0624 -1.6525  1.2889
19745TIP3    H280727   6.230   1.612  15.399 -0.5228  0.5686  1.8501
19746TIP3   OH280728   1.578   5.490   2.848 -0.6744  0.5263  0.6283
19746TIP3    H180729   1.645   5.460   2.908 -1.4067 -0.7654  0.8192
19746TIP3    H280730   1.605   5.457   2.762 -1.0053  0.1117  0.6840
19747TIP3   OH280731   6.008   1.207   3.654 -0.0065 -0.1181 -0.1913
19747TIP3    H180732   5.915   1.227   3.640  0.3548  0.4875 -1.9076
19747TIP3    H280733   6.029   1.143   3.586  0.6264 -0.9354  0.7568
19748TIP3   OH280734   4.503   3.951  14.474  0.0495 -0.8010  0.0653
19748TIP3    H180735   4.558   3.913  14.405  1.3690  0.1699  0.5736
19748TIP3    H280736   4.555   3.941  14.554 -0.2287  0.7191  0.4427
19749TIP3   OH280737   3.613   5.135   1.495 -0.3443 -0.2949  0.0305
19749TIP3    H180738   3.622   5.225   1.525 -0.7652 -0.6227  1.1618
19749TIP3    H280739   3.566   5.090   1.566 -1.0966 -1.1520 -0.9797
19750TIP3   OH280740   0.050   3.988   1.911  0.4194 -0.5300 -0.6179
19750TIP3    H180741   0.103   3.947   1.843  0.7329 -1.1946  0.0231
19750TIP3    H280742  -0.036   3.998   1.871  0.7801 -0.2849 -1.3496
19751TIP3   OH280743   2.480   2.177  12.390  0.0635 -0.2243  0.0748
19751TIP3    H180744   2.542   2.126  12.442 -0.9242 -0.5097  0.9842
19751TIP3    H280745   2.495   2.268  12.416  0.4985 -0.2322 -0.1406
19752TIP3   OH280746   5.683   0.465  14.236 -0.0544 -0.6881 -0.3568
19752TIP3    H180747   5.642   0.425  14.159 -0.0218  1.3660 -1.4648
19752TIP3    H280748   5.613   0.517  14.275 -0.2308 -2.1605  1.3683
19753TIP3   OH280749   1.036   6.766   5.580 -0.3935 -0.1941 -0.6970
19753TIP3    H180750   0.966   6.766   5.515 -1.0251  1.7201 -0.0646
19753TIP3    H280751   0.992   6.788   5.662  0.8801  0.6729 -0.2326
19754TIP3   OH280752   2.760   2.765   4.673 -0.4431  0.4338  0.4739
19754TIP3    H180753   2.740   2.700   4.739  0.1287 -0.9537 -0.6801
19754TIP3    H280754   2.840   2.807   4.704 -0.3229 -0.0343  0.7994
19755TIP3   OH280755   5.769   4.177   2.224 -0.0318 -0.8220 -0.6845
19755TIP3    H180756   5.724   4.181   2.140  0.8035  1.3735 -1.0672
19755TIP3    H280757   5.807   4.090   2.226 -1.0208 -1.3158 -2.0685
19756TIP3   OH280758   1.527   4.334   2.425 -0.5756 -0.5045  0.1912
19756TIP3    H180759   1.556   4.338   2.334  1.5433 -1.5419  0.7922
19756TIP3    H280760   1.444   4.286   2.422  0.0355 -1.4959 -1.0682
19757TIP3   OH280761   5.658   2.127  15.829  0.8637 -0.2691  0.8643
19757TIP3    H180762   5.712   2.084  15.895  3.7060 -0.8587 -1.7262
19757TIP3    H280763   5.687   2.089  15.746 -0.9431  2.1558 -0.9449
19758TIP3   OH280764   6.666   4.729  12.847 -0.0556 -0.3939  0.4945
19758TIP3    H180765   6.643   4.709  12.756 -0.7406  0.5286  0.4454
19758TIP3    H280766   6.658   4.646  12.893 -0.6512 -0.6794 -0.1102
19759TIP3   OH280767   6.147   4.911   6.115  0.3593 -0.0267 -0.4734
19759TIP3    H180768   6.196   4.870   6.044  0.4638 -0.5957 -0.0779
19759TIP3    H280769   6.076   4.958   6.071 -0.5129 -1.6701 -0.8693
19760TIP3   OH280770   3.906   3.280  15.626 -0.4676  0.0473  0.3014
19760TIP3    H180771   4.001   3.291  15.631 -0.5698  0.3820  1.8567
19760TIP3    H280772   3.892   3.188  15.605  0.2163  0.3656 -1.6836
19761TIP3   OH280773   3.245   0.051  11.826 -0.4379  0.3105  0.2316
19761TIP3    H180774   3.244   0.074  11.918  1.1852 -0.6925  0.5215
19761TIP3    H280775   3.170  -0.008  11.814 -0.4440  0.1750  0.9669
19762TIP3   OH280776   2.828   6.524  11.971  0.7250  0.0351  0.6656
19762TIP3    H180777   2.820   6.470  12.050 -0.5474  0.9805  1.2002
19762TIP3    H280778   2.798   6.467  11.900  2.1400 -0.9117  0.8152
19763TIP3   OH280779   4.779   5.304   2.984 -0.2287 -0.2903  0.0501
19763TIP3    H180780   4.824   5.387   2.966  1.4228 -0.8565  1.4536
19763TIP3    H280781   4.752   5.311   3.075  1.6503 -2.0520  0.7818
19764TIP3   OH280782   5.312   0.270  16.146  0.1402 -0.0735 -0.5918
19764TIP3    H180783   5.342   0.322  16.221  0.1809 -0.6333 -0.2118
19764TIP3    H280784   5.347   0.182  16.163 -0.8860 -0.5016 -0.6413
19765TIP3   OH280785   6.176   0.704   1.909  0.6920  0.2881  0.2406
19765TIP3    H180786   6.171   0.798   1.893  1.9321  0.3112 -0.0926
19765TIP3    H280787   6.112   0.665   1.849  0.5666  0.8782 -0.0058
19766TIP3   OH280788   6.764   1.722  14.931 -0.2731 -0.0803  0.2373
19766TIP3    H180789   6.810   1.750  14.852 -3.1617  1.0561 -1.1307
19766TIP3    H280790   6.812   1.645  14.961  0.1598 -1.2953 -3.3334
19767TIP3   OH280791   3.277   3.326   0.975 -0.1854  0.6469  0.3534
19767TIP3    H180792   3.319   3.295   1.055 -1.0434 -2.6647 -0.4011
19767TIP3    H280793   3.326   3.284   0.904 -2.0512  0.1761 -0.6817
19768TIP3   OH280794   6.473   0.141  12.973  0.7868  0.1769 -0.8221
19768TIP3    H180795   6.565   0.157  12.994  0.0837  2.0331  1.0549
19768TIP3    H280796   6.434   0.228  12.966 -1.0242 -0.5939 -0.6853
19769TIP3   OH280797   5.262   5.065   3.716 -0.1719 -0.7633  0.0246
19769TIP3    H180798   5.182   5.039   3.670 -0.4920  0.5905 -0.2172
19769TIP3    H280799   5.244   5.048   3.808 -0.4034 -1.3031 -0.1182
19770TIP3   OH280800   6.451   1.839  12.681  0.2769 -0.4629 -0.2688
19770TIP3    H180801   6.515   1.787  12.729  0.3730  0.2337  0.3548
19770TIP3    H280802   6.492   1.924  12.669 -0.4460 -0.0762 -0.0463
19771TIP3   OH280803   6.523   5.476   1.109 -0.5470  0.5386  0.2202
19771TIP3    H180804   6.433   5.506   1.123 -0.2669  1.0327  0.9654
19771TIP3    H280805   6.577   5.536   1.159 -0.0552 -2.0124  2.8773
19772TIP3   OH280806   2.701   4.028  13.532 -0.2846  0.5926 -0.1377
19772TIP3    H180807   2.766   4.098  13.533  1.0874 -0.6672  1.8260
19772TIP3    H280808   2.624   4.066  13.573  0.0787  1.2866 -0.0967
19773TIP3   OH280809   5.521   2.204  10.343 -0.3845  0.3336  0.4663
19773TIP3    H180810   5.517   2.237  10.254  0.3296 -2.0304 -0.4718
19773TIP3    H280811   5.609   2.169  10.352 -0.9117 -0.7175  1.6312
19774TIP3   OH280812   3.965   3.887   0.763  0.2731 -0.2305  0.1586
19774TIP3    H180813   3.946   3.802   0.802  0.3634 -0.4636 -0.3043
19774TIP3    H280814   3.902   3.947   0.803 -0.3175 -0.6699 -0.1137
19775TIP3   OH280815   0.243   5.209  11.043 -0.2992  0.3136  0.5159
19775TIP3    H180816   0.256   5.164  10.960  0.5541  0.4793  0.5604
19775TIP3    H280817   0.256   5.301  11.023  0.1221  0.3323  0.8791
19776TIP3   OH280818   2.448   5.228  11.889 -0.1612  0.2104 -0.0959
19776TIP3    H180819   2.364   5.258  11.925 -0.1741 -0.0658  0.1041
19776TIP3    H280820   2.423   5.172  11.815 -0.2262 -1.8357  1.4348
19777TIP3   OH280821   4.133   6.753  14.477 -0.0940 -0.1523  0.0128
19777TIP3    H180822   4.143   6.764  14.383  1.4766 -1.5655 -0.0047
19777TIP3    H280823   4.221   6.763  14.513 -0.6114 -0.0534  1.2858
19778TIP3   OH280824   4.000   0.616   5.070  0.1096  0.4168 -0.0547
19778TIP3    H180825   3.935   0.637   5.003 -2.1114 -1.5002  1.3663
19778TIP3    H280826   4.000   0.692   5.128 -0.0786  0.8845 -0.6661
19779TIP3   OH280827   5.363   5.509   4.545 -0.1486  0.0942 -0.1444
19779TIP3    H180828   5.410   5.588   4.573  1.2448  0.1550 -2.5162
19779TIP3    H280829   5.409   5.437   4.588  0.4554  0.3762 -0.3041
19780TIP3   OH280830   0.532   5.158   1.201 -0.1241 -0.5825 -0.4672
19780TIP3    H180831   0.601   5.223   1.212 -1.2800  0.4931  0.6329
19780TIP3    H280832   0.543   5.099   1.275 -1.3886  0.5521  0.6482
19781TIP3   OH280833   2.847   3.845  12.254  0.2326  0.1158  0.3007
19781TIP3    H180834   2.765   3.813  12.219 -0.2886  0.6985  0.9807
19781TIP3    H280835   2.864   3.792  12.332  1.0937 -0.7836 -0.4850
19782TIP3   OH280836   4.214   4.302   3.130  0.2949  0.4881  0.4432
19782TIP3    H180837   4.261   4.362   3.187  1.4689  1.3564 -1.3946
19782TIP3    H280838   4.173   4.359   3.064 -0.1841 -0.5738 -0.1867
19783TIP3   OH280839   6.583   1.231  14.125 -0.9864  0.1925  0.4216
19783TIP3    H180840   6.573   1.288  14.202 -0.1837  0.3566  0.4003
19783TIP3    H280841   6.551   1.284  14.052  0.7780  1.0319  0.2307
19784TIP3   OH280842   1.484   5.155  13.462  0.0929 -0.0377  0.0881
19784TIP3    H180843   1.493   5.121  13.550  2.6063 -0.5278 -0.3152
19784TIP3    H280844   1.571   5.188  13.439 -1.2840  3.1660 -0.9828
19785TIP3   OH280845   2.860   2.673  16.318  0.1249 -0.0198  0.3520
19785TIP3    H180846   2.800   2.728  16.267 -1.8204 -0.0148  2.5501
19785TIP3    H280847   2.855   2.587  16.276 -1.5376 -0.0518  0.5755
19786TIP3   OH280848   2.814   4.663   6.236  0.6717  0.1138 -0.2923
19786TIP3    H180849   2.745   4.627   6.292  0.4943 -1.2654 -1.3783
19786TIP3    H280850   2.867   4.716   6.295 -0.2548 -0.2922  0.9234
19787TIP3   OH280851   4.156   4.631  13.088  0.2151 -0.3640 -0.5727
19787TIP3    H180852   4.130   4.663  13.001  1.6210 -0.1143 -0.9164
19787TIP3    H280853   4.244   4.666  13.101 -0.9716  1.7177  2.0584
19788TIP3   OH280854   4.602   6.594  11.105 -0.2600 -0.7271 -0.6932
19788TIP3    H180855   4.633   6.545  11.029  1.7921  0.7052 -0.8249
19788TIP3    H280856   4.585   6.682  11.071  1.0862  0.0381  0.5574
19789TIP3   OH280857   4.603   0.533  16.414 -0.5816  0.1281  0.2555
19789TIP3    H180858   4.640   0.451  16.383  0.7931  1.0741 -0.6955
19789TIP3    H280859   4.509   0.520  16.409 -0.3794 -1.2617 -0.2447
19790TIP3   OH280860   5.919   5.664  13.378  0.5227  0.2671  0.1708
19790TIP3    H180861   5.914   5.663  13.282  0.3334  0.4361  0.1794
19790TIP3    H280862   5.925   5.572  13.402  1.4279  0.2585 -0.0521
19791TIP3   OH280863   0.202   1.635   3.322 -0.2893  0.5242  0.0256
19791TIP3    H180864   0.279   1.578   3.318 -0.4880  0.0209  2.3165
19791TIP3    H280865   0.140   1.597   3.260  0.3696 -0.5610  0.0132
19792TIP3   OH280866   5.250   0.585  14.459 -0.2207  0.0321  0.1485
19792TIP3    H180867   5.267   0.639  14.536  1.2834  0.3392 -0.3779
19792TIP3    H280868   5.196   0.640  14.403  0.4796  0.6275  0.0485
19793TIP3   OH280869   3.667   6.416   0.329 -0.3010  0.0406  0.5775
19793TIP3    H180870   3.580   6.433   0.364 -1.6512 -1.4199 -1.9614
19793TIP3    H280871   3.662   6.441   0.237  2.3248  1.0803  0.6699
19794TIP3   OH280872   0.252   1.541  14.165 -0.1545 -0.2238  0.4089
19794TIP3    H180873   0.255   1.583  14.251  0.6831 -2.5968  1.5903
19794TIP3    H280874   0.161   1.549  14.137 -0.0442  2.2033  0.6500
19795TIP3   OH280875   5.019   2.680  15.650  0.1806  0.3502 -0.5812
19795TIP3    H180876   5.078   2.755  15.655  0.9289 -0.4025  4.1726
19795TIP3    H280877   5.077   2.604  15.657 -0.7167 -0.7042 -3.7430
19796TIP3   OH280878   2.058   1.291  12.064 -0.3728 -0.4124 -0.9130
19796TIP3    H180879   2.029   1.356  12.000  1.1557  0.6159 -0.5621
19796TIP3    H280880   2.023   1.322  12.147 -2.9764 -2.1283 -1.3065
19797TIP3   OH280881   6.301   4.540   5.479 -0.2998 -0.2560 -0.3433
19797TIP3    H180882   6.215   4.534   5.522 -0.0373  3.0991  0.7699
19797TIP3    H280883   6.288   4.602   5.407  0.3721 -2.4398 -2.3963
19798TIP3   OH280884   1.124   5.116  15.629 -0.0148 -0.3672 -0.6737
19798TIP3    H180885   1.148   5.196  15.583  0.3970 -0.2500 -0.2653
19798TIP3    H280886   1.208   5.073  15.647 -0.1152 -0.1284  0.4558
19799TIP3   OH280887   0.937   1.650  17.245 -0.5706 -0.0425  0.0974
19799TIP3    H180888   0.846   1.676  17.238 -0.2568  1.0736  0.0303
19799TIP3    H280889   0.977   1.717  17.300 -0.1223 -1.3909  1.4395
19800TIP3   OH280890   5.001   6.606   3.008  0.3300 -0.5244 -0.5897
19800TIP3    H180891   5.057   6.532   3.034 -1.1574 -1.3899  0.2009
19800TIP3    H280892   5.015   6.671   3.078  2.2054  0.2919 -1.6638
19801TIP3   OH280893   2.197   1.292   4.743  0.7838  0.5174 -0.6094
19801TIP3    H180894   2.204   1.218   4.683  0.4340 -0.0847  0.0947
19801TIP3    H280895   2.277   1.288   4.796  1.1266  1.0908 -1.0787
19802TIP3   OH280896   5.933   5.516   2.342 -0.1819 -0.5168  0.3013
19802TIP3    H180897   6.024   5.501   2.315 -0.2815 -2.5584  1.0198
19802TIP3    H280898   5.941   5.559   2.427  0.1172 -1.0992  0.5706
19803TIP3   OH280899   3.209   4.228   2.793  0.9986 -0.1041 -0.1496
19803TIP3    H180900   3.217   4.289   2.719  1.2347  0.3770  0.2676
19803TIP3    H280901   3.294   4.183   2.796  1.0497 -0.0030 -0.0685
19804TIP3   OH280902   4.693   3.040   4.952 -0.5938 -0.1126 -0.4733
19804TIP3    H180903   4.667   2.959   4.908 -1.5666  0.1451 -0.3824
19804TIP3    H280904   4.730   3.012   5.035 -0.4790 -0.4904 -0.6537
19805TIP3   OH280905   5.595   5.346   1.164 -0.1684 -0.1867 -0.6079
19805TIP3    H180906   5.627   5.272   1.216  0.8537 -0.9853 -2.3309
19805TIP3    H280907   5.634   5.423   1.206 -0.8435 -0.6541  0.9051
19806TIP3   OH280908   0.405   3.159   5.303  0.0024  0.2505 -0.4315
19806TIP3    H180909   0.318   3.150   5.342  0.2633  1.2628  0.3919
19806TIP3    H280910   0.388   3.175   5.210 -0.6790  0.2070 -0.3154
19807TIP3   OH280911   3.565   3.481   3.991  0.1473 -0.4237 -0.6293
19807TIP3    H180912   3.554   3.564   4.038 -1.1677 -0.7455 -0.3594
19807TIP3    H280913   3.659   3.463   3.995 -0.0117 -0.7400  2.3547
19808TIP3   OH280914   2.192   1.891  15.918 -0.0013  0.1915 -0.1552
19808TIP3    H180915   2.107   1.881  15.960 -0.1760  1.0061 -0.2921
19808TIP3    H280916   2.251   1.836  15.969 -0.2671  0.9583  0.9900
19809TIP3   OH280917   4.772   3.362  13.232  0.4187  0.0424  0.0480
19809TIP3    H180918   4.775   3.335  13.140  2.7404  1.0418 -0.1982
19809TIP3    H280919   4.698   3.423  13.237  1.4693  1.4773 -1.5786
19810TIP3   OH280920   4.185   6.154  12.192  0.0489 -0.0371 -0.3512
19810TIP3    H180921   4.196   6.250  12.193  0.3712 -0.0742 -0.3597
19810TIP3    H280922   4.211   6.128  12.103 -1.4315  0.0299 -0.8238
19811TIP3   OH280923   3.679   2.429   3.536  0.6128 -0.4527 -0.2800
19811TIP3    H180924   3.589   2.424   3.569  0.2893  0.6336 -0.9871
19811TIP3    H280925   3.707   2.519   3.555  1.3914 -0.6495 -0.4772
19812TIP3   OH280926   0.734   3.853   6.622 -0.1168  0.2378 -0.3930
19812TIP3    H180927   0.641   3.829   6.618 -0.1011  0.2788 -1.0039
19812TIP3    H280928   0.733   3.949   6.619 -0.0424  0.2313 -0.5922
19813TIP3   OH280929   6.145   1.237  12.495 -0.3872 -0.2351 -0.4062
19813TIP3    H180930   6.124   1.304  12.430 -0.4061  2.6801  2.4878
19813TIP3    H280931   6.137   1.155  12.447 -3.9700  1.5598 -3.1895
19814TIP3   OH280932   0.453   3.997  11.884 -0.2367  0.2123  0.5204
19814TIP3    H180933   0.543   3.999  11.917 -0.4286 -0.1634  1.0831
19814TIP3    H280934   0.461   4.000  11.789  0.3656  0.2802  0.5769
19815TIP3   OH280935   6.203   0.127  15.283 -0.4942  0.0936  0.1938
19815TIP3    H180936   6.281   0.103  15.232 -1.4639  0.7676 -1.6644
19815TIP3    H280937   6.212   0.221  15.296 -1.6617  0.4218 -1.2334
19816TIP3   OH280938   1.151   0.440   2.831 -0.0983  0.2000  0.3640
19816TIP3    H180939   1.133   0.420   2.739 -2.9069  1.5806  0.5537
19816TIP3    H280940   1.209   0.370   2.859  1.1370 -0.0427 -2.5513
19817TIP3   OH280941   1.416   4.555  12.648 -0.7495 -0.0202 -0.0420
19817TIP3    H180942   1.460   4.605  12.716 -2.0804  0.5019  0.4563
19817TIP3    H280943   1.464   4.575  12.568  0.4133 -0.1138  0.6271
19818TIP3   OH280944   2.750   1.101   0.194 -0.2971  0.3214 -0.1481
19818TIP3    H180945   2.739   1.194   0.216 -0.8842  0.2270 -0.0427
19818TIP3    H280946   2.739   1.055   0.277 -1.6047  0.0368 -0.4642
19819TIP3   OH280947   2.933   1.327  16.031 -0.2950  0.0108  0.2235
19819TIP3    H180948   2.945   1.380  16.110 -0.7329 -0.0462  0.3316
19819TIP3    H280949   3.022   1.300  16.006 -0.0271  1.1120 -0.0525
19820TIP3   OH280950   2.107   1.294   0.076  0.5335 -0.5875  0.6014
19820TIP3    H180951   2.146   1.218   0.034  0.2786 -0.2196 -0.3244
19820TIP3    H280952   2.120   1.280   0.169  1.2151 -1.3666  0.3923
19821TIP3   OH280953   4.924   6.711  14.075 -0.0111  0.3246 -0.0479
19821TIP3    H180954   4.879   6.687  13.994 -0.3318 -1.8909  0.7564
19821TIP3    H280955   4.899   6.802  14.091 -2.6852 -0.2885 -0.6071
19822TIP3   OH280956   2.761   4.248   0.728  0.4122  0.1447  0.2176
19822TIP3    H180957   2.805   4.228   0.646  1.0767  3.1202 -0.2231
19822TIP3    H280958   2.716   4.167   0.752  0.7853 -0.9858 -2.6956
19823TIP3   OH280959   6.819   6.524   2.920 -0.0540 -0.6087  0.2837
19823TIP3    H180960   6.796   6.478   3.001 -0.7064  0.2007  0.5572
19823TIP3    H280961   6.757   6.596   2.915  0.5078 -0.1817 -0.5281
19824TIP3   OH280962   4.931   4.145   4.002 -0.1193  0.4438  0.0272
19824TIP3    H180963   4.956   4.118   4.090 -1.3472 -1.5498 -0.2031
19824TIP3    H280964   5.013   4.171   3.960  0.9064 -1.4466  0.8143
19825TIP3   OH280965   6.658   4.244  11.173  0.3472  0.9271  0.1888
19825TIP3    H180966   6.706   4.310  11.123  1.5156  0.1793  0.3285
19825TIP3    H280967   6.591   4.212  11.112  0.6843  1.2185 -0.3352
19826TIP3   OH280968   1.432   4.417  14.597  0.5259 -0.0489 -0.0771
19826TIP3    H180969   1.375   4.470  14.541  0.0339 -0.4282  0.0560
19826TIP3    H280970   1.376   4.345  14.626  1.0679 -0.4068  0.0840
19827TIP3   OH280971   4.704   1.496  16.529 -0.6098  0.6260 -0.5595
19827TIP3    H180972   4.706   1.448  16.447  1.0392 -1.0685  0.4549
19827TIP3    H280973   4.624   1.466  16.573  0.0401 -0.6507 -0.2508
19828TIP3   OH280974   5.390   5.206  15.511  0.3497  0.2517 -0.2226
19828TIP3    H180975   5.297   5.225  15.505  0.2661  0.3051  1.2115
19828TIP3    H280976   5.428   5.285  15.550  0.9703  0.1371 -0.5814
19829TIP3   OH280977   5.898   6.040  16.867  0.0624  0.6221 -0.0198
19829TIP3    H180978   5.920   6.128  16.838  0.6658  0.3870 -0.2823
19829TIP3    H280979   5.853   6.001  16.792 -0.9987  0.9979  0.4045
19830TIP3   OH280980   5.806   3.269   2.725  0.3808  0.0345  0.5757
19830TIP3    H180981   5.764   3.212   2.660 -0.3347  2.0759 -0.7873
19830TIP3    H280982   5.789   3.225   2.809  0.4559 -2.1156 -0.4854
19831TIP3   OH280983   0.974   2.019  15.557  0.3739  0.2563  0.3441
19831TIP3    H180984   0.901   2.066  15.516  0.7926 -0.0950 -0.8047
19831TIP3    H280985   0.958   1.927  15.538  0.4058  0.0622  1.2394
19832TIP3   OH280986   5.479   2.277  14.342  0.1182 -0.1960  0.2477
19832TIP3    H180987   5.517   2.289  14.429 -1.0211 -0.6265  0.8228
19832TIP3    H280988   5.428   2.196  14.350 -0.6542  0.2056 -0.5781
19833TIP3   OH280989   2.948   1.904  14.615  0.5234  0.1423 -0.0051
19833TIP3    H180990   3.022   1.958  14.588  0.9996 -0.2018  0.6148
19833TIP3    H280991   2.987   1.825  14.653 -0.1570 -0.9140 -1.4056
19834TIP3   OH280992   1.547   6.434   6.106 -0.2388  0.0792  0.6183
19834TIP3    H180993   1.489   6.428   6.182 -0.8983  0.7100  0.1642
19834TIP3    H280994   1.532   6.353   6.058 -0.1478 -0.1181  0.9167
19835TIP3   OH280995   1.325   2.197   0.702 -0.0637 -0.0866 -0.6916
19835TIP3    H180996   1.415   2.227   0.690 -0.2317  0.4740 -0.5945
19835TIP3    H280997   1.271   2.266   0.664 -0.4498 -0.4896 -0.8826
19836TIP3   OH280998   4.046   0.581  11.132  0.2211  0.5929 -0.4808
19836TIP3    H180999   4.005   0.654  11.087 -1.9253  0.2664  0.8418
19836TIP3    H281000   4.130   0.570  11.089 -0.1125  2.7851 -1.7672
19837TIP3   OH281001   3.510   3.549  15.735  0.4705  0.1336  0.2891
19837TIP3    H181002   3.517   3.516  15.825 -1.5276 -2.3262 -0.3716
19837TIP3    H281003   3.416   3.559  15.721  0.8341  1.7626 -1.1212
19838TIP3   OH281004   3.703   0.242   0.347  0.0142  0.0570  0.3091
19838TIP3    H181005   3.747   0.172   0.396  3.0114  0.9052 -1.0586
19838TIP3    H281006   3.773   0.304   0.325 -2.0459  1.9429 -1.1660
19839TIP3   OH281007   3.377   5.368   1.714 -0.8353 -0.2177  0.2100
19839TIP3    H181008   3.363   5.408   1.628  0.2420 -1.1536 -0.4253
19839TIP3    H281009   3.295   5.324   1.735 -0.9342 -0.4118 -0.5816
19840TIP3   OH281010   2.601   2.870  15.708 -0.3344  0.3885 -0.0033
19840TIP3    H181011   2.659   2.942  15.684  0.3200 -0.7136 -1.7583
19840TIP3    H281012   2.550   2.852  15.629 -0.9472 -0.6520  0.6132
19841TIP3   OH281013   4.487   0.325  16.669 -0.1397 -0.4310  0.1104
19841TIP3    H181014   4.547   0.397  16.688 -2.1991  0.7612  2.3517
19841TIP3    H281015   4.539   0.246  16.686  1.5352  0.5288 -0.4557
19842TIP3   OH281016   0.841   3.461   1.252 -0.1430 -0.4146  0.1784
19842TIP3    H181017   0.859   3.532   1.314 -1.2900  1.8788 -2.0338
19842TIP3    H281018   0.925   3.442   1.211 -0.0731  0.5048 -0.0992
19843TIP3   OH281019   4.109   3.572   2.892  0.0654  0.1914  0.1373
19843TIP3    H181020   4.155   3.611   2.818  0.6088 -0.1461  0.2903
19843TIP3    H281021   4.059   3.643   2.930  0.6763  0.6309  0.1302
19844TIP3   OH281022   1.325   6.654   1.268  0.1202  0.5997 -0.1105
19844TIP3    H181023   1.416   6.646   1.240  0.0263  1.4340 -0.6968
19844TIP3    H281024   1.274   6.632   1.190 -0.1628  1.0140 -0.0492
19845TIP3   OH281025   0.493   2.481  15.598  0.4623 -0.0417  0.0232
19845TIP3    H181026   0.554   2.494  15.524 -1.1176  0.7031 -1.1750
19845TIP3    H281027   0.484   2.568  15.637 -1.1820  0.2129 -0.8889
19846TIP3   OH281028   3.085   2.057   0.088  0.0212  0.2136  0.1932
19846TIP3    H181029   3.091   2.151   0.073 -0.4030  0.2720  0.4033
19846TIP3    H281030   3.053   2.048   0.178 -1.8187 -0.1177 -0.4813
19847TIP3   OH281031   0.269   2.384   4.058 -0.3368  0.1150 -0.7810
19847TIP3    H181032   0.313   2.340   3.986  0.7081 -0.1769  0.0180
19847TIP3    H281033   0.295   2.476   4.050 -0.3876  0.1187 -0.9014
19848TIP3   OH281034   1.301   0.569  12.212 -0.0399 -0.0852 -0.4143
19848TIP3    H181035   1.213   0.608  12.205  0.4023  1.2929  1.3050
19848TIP3    H281036   1.357   0.630  12.163  0.0142 -0.7952 -1.2403
19849TIP3   OH281037   3.378   5.087   4.032  0.2015 -0.2226 -0.4241
19849TIP3    H181038   3.310   5.055   3.974  1.8397 -1.7502 -1.5445
19849TIP3    H281039   3.454   5.032   4.014  1.3844  0.6411  1.6647
19850TIP3   OH281040   5.040   6.768   4.819 -0.4499  0.5578 -0.0982
19850TIP3    H181041   5.069   6.806   4.736 -2.1884  1.2933 -0.3915
19850TIP3    H281042   5.068   6.832   4.885 -1.4210  1.2983 -0.3843
19851TIP3   OH281043   5.111   4.083   1.770  0.4321 -0.5564 -0.6453
19851TIP3    H181044   5.052   4.145   1.728  1.2378 -0.3776 -1.5375
19851TIP3    H281045   5.157   4.040   1.697  2.1007  0.0121  0.0410
19852TIP3   OH281046   3.382   1.848  15.188 -0.0088 -0.1738 -0.6161
19852TIP3    H181047   3.299   1.801  15.201  0.0199  0.3983  1.8148
19852TIP3    H281048   3.449   1.780  15.191  0.0306 -0.0688  2.8726
19853TIP3   OH281049   5.781   4.190   6.022 -0.1919  0.5210  0.2818
19853TIP3    H181050   5.691   4.207   6.052  0.8376  2.7209  2.2951
19853TIP3    H281051   5.820   4.137   6.092  0.8260  1.7845  0.7055
19854TIP3   OH281052   5.850   6.133   0.511  0.0450 -0.0072  0.2972
19854TIP3    H181053   5.901   6.053   0.521  0.4034  0.0324 -1.2165
19854TIP3    H281054   5.816   6.150   0.599 -0.6965 -2.2524  0.4737
19855TIP3   OH281055   0.411   2.147  16.508  0.2645 -0.2134 -0.9682
19855TIP3    H181056   0.432   2.169  16.417  1.4933 -1.4312 -0.9951
19855TIP3    H281057   0.494   2.155  16.555 -0.3543  0.3604  0.0468
19856TIP3   OH281058   0.110   3.100  13.881  0.0920 -0.0527  0.8229
19856TIP3    H181059   0.204   3.082  13.881  0.0846 -0.1158  1.8199
19856TIP3    H281060   0.082   3.081  13.791  1.0652  0.1681  0.4694
19857TIP3   OH281061   1.653   3.498  16.553  0.2089  0.0113  0.0765
19857TIP3    H181062   1.563   3.527  16.571  1.0352  4.3117 -1.9618
19857TIP3    H281063   1.645   3.442  16.476 -1.0333 -2.3175  1.8342
19858TIP3   OH281064   1.859   3.551   3.160 -0.7247 -0.1603  0.5007
19858TIP3    H181065   1.950   3.555   3.192 -0.3746 -0.5190 -0.4449
19858TIP3    H281066   1.809   3.601   3.225 -0.0024 -0.7827  1.5519
19859TIP3   OH281067   2.229   5.432   0.939 -0.0344 -0.5871  0.6375
19859TIP3    H181068   2.191   5.345   0.950  0.0306 -0.8175 -0.7978
19859TIP3    H281069   2.192   5.464   0.857  0.3721  0.5178  0.8721
19860TIP3   OH281070   4.952   6.331   6.036  0.5681  0.3475  0.1634
19860TIP3    H181071   4.969   6.378   6.117  1.0224  0.4700  0.0004
19860TIP3    H281072   5.021   6.266   6.031 -0.1415 -0.4332  0.4593
19861TIP3   OH281073   1.562   5.251   1.493  0.7097  0.5673 -0.0530
19861TIP3    H181074   1.488   5.211   1.446 -0.3500  1.1963  1.0388
19861TIP3    H281075   1.586   5.327   1.439 -0.1170  0.9426  0.0941
19862TIP3   OH281076   2.517   3.502   4.051 -0.0192 -0.0942  0.1460
19862TIP3    H181077   2.603   3.503   4.094 -0.4343 -2.0800  1.0924
19862TIP3    H281078   2.523   3.429   3.988 -0.7542  0.2539 -0.3336
19863TIP3   OH281079   6.743   2.751   4.787  0.2915  0.3816 -0.5358
19863TIP3    H181080   6.715   2.842   4.776 -0.2475  0.1689 -0.9280
19863TIP3    H281081   6.670   2.699   4.755  0.7638 -0.1928 -0.6927
19864TIP3   OH281082   3.732   3.131   3.936  0.0762 -0.8097  0.3739
19864TIP3    H181083   3.786   3.052   3.941  0.7734 -0.3406  0.3461
19864TIP3    H281084   3.792   3.199   3.905 -0.5824 -0.3262  0.1488
19865TIP3   OH281085   5.220   6.279   6.387  0.3494 -0.2482 -0.0955
19865TIP3    H181086   5.201   6.197   6.341  0.3007  0.9345 -2.2461
19865TIP3    H281087   5.299   6.261   6.437  0.1375 -1.7184 -0.2723
19866TIP3   OH281088   5.358   1.294   5.841  0.3134  0.1976  0.5222
19866TIP3    H181089   5.349   1.201   5.819  1.6049 -0.1255  1.3190
19866TIP3    H281090   5.364   1.295   5.937  1.1662  1.0223  0.4657
19867TIP3   OH281091   1.210   2.873   5.910  0.4456 -0.1197 -0.3198
19867TIP3    H181092   1.114   2.875   5.902  0.4011 -1.8366 -0.4093
19867TIP3    H281093   1.231   2.944   5.970 -0.8870  0.3413 -0.3906
19868TIP3   OH281094   0.603   3.732   2.749 -0.2546 -0.0491 -0.3004
19868TIP3    H181095   0.554   3.722   2.831  0.6173 -0.1635  0.2079
19868TIP3    H281096   0.545   3.695   2.683 -1.0467  0.2060  0.2339
19869TIP3   OH281097   4.007   1.832  10.578 -0.2332  0.6035  0.2509
19869TIP3    H181098   4.045   1.764  10.634  1.5212  1.1051 -0.3020
19869TIP3    H281099   3.919   1.846  10.613  0.4666  0.1536  2.2369
19870TIP3   OH281100   4.928   2.623  16.467 -0.6522  0.0382  0.5009
19870TIP3    H181101   4.984   2.562  16.420 -2.3184 -0.6483 -0.6574
19870TIP3    H281102   4.931   2.704  16.417 -1.1459 -0.1842  0.1068
19871TIP3   OH281103   6.784   3.982   4.282 -0.0493 -0.5448  0.3093
19871TIP3    H181104   6.734   3.917   4.332  0.2164  0.1072  1.4373
19871TIP3    H281105   6.864   3.995   4.332  0.7693 -0.7671 -0.9199
19872TIP3   OH281106   2.660   1.028  10.876  0.1450  0.1504 -0.4288
19872TIP3    H181107   2.637   1.120  10.883 -0.1337  0.0783 -0.4054
19872TIP3    H281108   2.577   0.981  10.884  0.2431 -0.0873 -0.7828
19873TIP3   OH281109   1.388   1.690  15.317 -0.7118 -0.1651  0.5119
19873TIP3    H181110   1.293   1.695  15.332 -0.8853  1.1405 -0.9033
19873TIP3    H281111   1.427   1.710  15.402 -1.7091 -0.8974  1.1501
19874TIP3   OH281112   0.767   5.699  13.447  0.5879 -0.1746 -0.4431
19874TIP3    H181113   0.763   5.784  13.491  0.9300 -0.9514  1.0974
19874TIP3    H281114   0.823   5.715  13.371  2.4277  0.4935  1.0041
19875TIP3   OH281115   4.319   1.515   2.137 -0.2264  0.2910  0.1762
19875TIP3    H181116   4.326   1.419   2.131  0.3065  0.3010  0.6163
19875TIP3    H281117   4.270   1.540   2.059 -1.7680 -0.4951  0.8588
19876TIP3   OH281118   1.390   4.710   4.979  0.2820 -0.4991  0.6876
19876TIP3    H181119   1.448   4.711   5.056 -0.3954  2.4826  1.1989
19876TIP3    H281120   1.304   4.732   5.014 -0.0537  0.7621 -0.8963
19877TIP3   OH281121   5.402   3.694   4.927 -0.0976 -1.1061  0.3122
19877TIP3    H181122   5.364   3.701   4.840 -0.2930  3.7729  0.6542
19877TIP3    H281123   5.482   3.642   4.915  0.7821  0.9292 -3.0902
19878TIP3   OH281124   4.226   5.085  15.968  0.1147  0.2088 -0.0456
19878TIP3    H181125   4.244   5.167  16.014 -0.3450  0.3109 -0.0409
19878TIP3    H281126   4.275   5.019  16.017 -0.2649  0.3351  0.5209
19879TIP3   OH281127   5.479   4.489   2.736 -0.3040  0.0759  0.1667
19879TIP3    H181128   5.507   4.482   2.645  0.1097 -0.8746  0.3606
19879TIP3    H281129   5.552   4.453   2.787 -1.0360 -0.5535  0.7973
19880TIP3   OH281130   2.694   1.143   4.831 -0.4595 -0.1968 -0.2241
19880TIP3    H181131   2.667   1.150   4.740  4.0060 -2.4876 -1.9158
19880TIP3    H281132   2.690   1.049   4.851  0.5014  0.0461  1.2540
19881TIP3   OH281133   0.150   3.690   4.312  0.3034  0.2400 -0.3894
19881TIP3    H181134   0.069   3.726   4.349  1.0569  0.5969  0.9520
19881TIP3    H281135   0.146   3.596   4.332  1.1457  0.5786  1.4905
19882TIP3   OH281136   6.742   4.707   3.224  0.1295 -0.3930 -0.5989
19882TIP3    H181137   6.775   4.765   3.293  0.6166 -1.3953  0.0197
19882TIP3    H281138   6.793   4.627   3.233 -0.4176 -0.8622 -1.5624
19883TIP3   OH281139   2.339   2.307  11.023  0.7286  0.4074 -0.0277
19883TIP3    H181140   2.417   2.323  11.076  0.1509 -1.0749  1.3165
19883TIP3    H281141   2.301   2.393  11.007  2.3322  1.0835 -0.2221
19884TIP3   OH281142   2.502   6.432   3.745 -0.2084  0.8058 -0.5094
19884TIP3    H181143   2.591   6.398   3.752 -0.1650  1.4852  2.7681
19884TIP3    H281144   2.507   6.497   3.674  1.6994  0.2804 -0.8847
19885TIP3   OH281145   2.244   0.117   6.364 -0.4810 -0.4462  0.2363
19885TIP3    H181146   2.311   0.053   6.391 -0.4255 -0.7277 -0.5600
19885TIP3    H281147   2.294   0.191   6.330 -0.5303  0.3001  1.7387
19886TIP3   OH281148   3.993   2.511   2.659 -0.1081 -0.0782 -0.3226
19886TIP3    H181149   4.018   2.428   2.618 -1.2149 -1.3625  1.5114
19886TIP3    H281150   3.922   2.487   2.719 -1.0328  2.3564 -0.4013
19887TIP3   OH281151   6.326   6.263   0.079 -0.3571 -0.6534 -0.4069
19887TIP3    H181152   6.327   6.277   0.173  1.3763 -2.0360 -0.1879
19887TIP3    H281153   6.233   6.259   0.056 -0.7925  0.7396  1.0566
19888TIP3   OH281154   4.793   3.182   1.937  0.1291  0.1040 -0.3191
19888TIP3    H181155   4.828   3.189   2.026 -3.0267  0.3863  0.9713
19888TIP3    H281156   4.848   3.240   1.885  1.8582  0.1502  1.5041
19889TIP3   OH281157   0.137   2.610   4.872 -0.6391  0.7223  0.4045
19889TIP3    H181158   0.203   2.599   4.804 -0.9222  0.4704  0.1693
19889TIP3    H281159   0.066   2.659   4.830 -1.6541 -1.0875 -0.0455
19890TIP3   OH281160   5.086   4.527  13.964 -0.0905 -0.3570  0.3911
19890TIP3    H181161   5.089   4.614  13.926  0.4793  0.3413  1.9920
19890TIP3    H281162   5.113   4.468  13.893 -2.3165  0.5374 -1.2841
19891TIP3   OH281163   3.645   0.712   1.024  0.3906  0.0147  0.0655
19891TIP3    H181164   3.562   0.707   0.978  0.8188 -1.9967 -0.5190
19891TIP3    H281165   3.630   0.667   1.107  0.5863  0.6394  0.4485
19892TIP3   OH281166   6.026   5.899   4.583 -0.3327  0.2598  0.8127
19892TIP3    H181167   6.034   5.861   4.496  0.1118 -0.6783  1.2510
19892TIP3    H281168   6.007   5.991   4.568  0.5947  0.2789 -0.2751
19893TIP3   OH281169   1.011   6.141   2.342  0.3022  0.0291  0.2410
19893TIP3    H181170   1.088   6.150   2.400  0.6259 -2.3429  0.2211
19893TIP3    H281171   1.027   6.060   2.294 -2.0555 -0.2857 -0.0463
19894TIP3   OH281172   1.470   6.199   3.887 -0.3407 -0.3167 -0.1318
19894TIP3    H181173   1.406   6.266   3.911 -0.0453 -0.6230  1.5206
19894TIP3    H281174   1.509   6.232   3.805 -2.5706 -0.1367 -1.1481
19895TIP3   OH281175   3.601   1.737  15.365 -1.0360  0.2268 -0.4262
19895TIP3    H181176   3.618   1.645  15.344 -1.6992 -0.3055  1.3268
19895TIP3    H281177   3.623   1.784  15.284 -1.2384 -1.5197 -1.5263
19896TIP3   OH281178   0.519   1.288  15.090  0.2131  0.1106 -0.2740
19896TIP3    H181179   0.599   1.286  15.143  0.5470 -0.2555 -0.7922
19896TIP3    H281180   0.550   1.296  15.000 -0.2967 -1.4150 -0.5887
19897TIP3   OH281181   4.943   0.065   0.692 -0.9571  0.2616 -0.3970
19897TIP3    H181182   4.877   0.026   0.749 -1.2448  0.6351 -0.4750
19897TIP3    H281183   4.992   0.124   0.749 -0.7557  0.0660 -0.3644
19898TIP3   OH281184   3.607   0.397   2.368 -0.3330  1.1135  0.3647
19898TIP3    H181185   3.556   0.466   2.326 -0.6465  1.5906  1.5151
19898TIP3    H281186   3.544   0.351   2.422 -0.3607 -0.7716 -1.2031
19899TIP3   OH281187   0.360   3.035   4.934  0.4599 -0.2773 -0.0312
19899TIP3    H181188   0.349   3.056   4.841  2.7571  0.7693 -0.0935
19899TIP3    H281189   0.369   2.939   4.936 -1.1034 -0.4582 -0.6962
19900TIP3   OH281190   0.169   3.813  16.039  0.0472  0.2120  0.4461
19900TIP3    H181191   0.164   3.878  15.969  0.3705  0.4246  0.6228
19900TIP3    H281192   0.113   3.847  16.108 -0.9777 -0.4280 -0.0565
19901TIP3   OH281193   3.632   1.593   1.746 -0.7423 -0.3314 -0.2518
19901TIP3    H181194   3.672   1.533   1.683 -1.6650 -2.0790  0.7934
19901TIP3    H281195   3.700   1.606   1.813 -0.7071 -0.5831 -0.2382
19902TIP3   OH281196   1.504   0.427  15.836  0.0808 -0.1991 -0.0227
19902TIP3    H181197   1.424   0.397  15.879  0.5666 -2.9344 -0.8647
19902TIP3    H281198   1.498   0.391  15.747  0.0468  3.5867 -1.6507
19903TIP3   OH281199   2.430   1.589   4.046 -0.0926  0.8146 -0.1842
19903TIP3    H181200   2.408   1.682   4.053  0.6011  0.9697 -0.0268
19903TIP3    H281201   2.485   1.584   3.968  1.9856  0.9492  1.2259
19904TIP3   OH281202   1.464   6.031  13.426 -0.5518 -0.0732  0.0175
19904TIP3    H181203   1.507   6.006  13.508 -0.6938 -1.7506 -0.4043
19904TIP3    H281204   1.471   6.126  13.424  1.7703 -0.1886  0.7303
19905TIP3   OH281205   3.888   0.593   3.598 -0.3764  0.2402  0.0357
19905TIP3    H181206   3.973   0.634   3.585 -0.4610  0.2677 -0.4266
19905TIP3    H281207   3.892   0.557   3.687  0.3072 -0.2271 -0.1888
19906TIP3   OH281208   3.093   2.338   4.975  0.2233 -0.8592  0.3800
19906TIP3    H181209   3.004   2.306   4.985  0.5173 -1.7549  0.1261
19906TIP3    H281210   3.148   2.273   5.019  0.7973 -0.6052  0.0502
19907TIP3   OH281211   1.479   1.597   6.146  0.4325  0.1114  0.7123
19907TIP3    H181212   1.547   1.608   6.213  0.7320 -1.6706  0.7303
19907TIP3    H281213   1.399   1.584   6.197  0.5848 -0.7686  0.7498
19908TIP3   OH281214   4.011   2.676  16.422 -0.3899  0.4495 -0.2872
19908TIP3    H181215   4.084   2.677  16.484 -1.3427  1.2690  0.8584
19908TIP3    H281216   3.964   2.758  16.440 -1.1499  0.3034 -1.5415
19909TIP3   OH281217   2.164   6.515   2.098  0.3043  0.5697 -0.2813
19909TIP3    H181218   2.176   6.592   2.154 -1.0465  0.0867  0.6946
19909TIP3    H281219   2.093   6.466   2.139  1.2416 -1.2856 -0.8280
19910TIP3   OH281220   4.195   1.672   3.964 -0.2640 -0.5907  0.3657
19910TIP3    H181221   4.175   1.747   4.019  2.9583  0.0458  0.7454
19910TIP3    H281222   4.154   1.693   3.880  0.4808  1.5622  0.5048
19911TIP3   OH281223   3.374   1.478   3.776  0.1399 -0.2918  0.3783
19911TIP3    H181224   3.453   1.498   3.726 -0.6426  0.2676 -0.6523
19911TIP3    H281225   3.380   1.384   3.792  1.0684 -0.2375  0.4070
19912TIP3   OH281226   1.281   0.254   4.177 -0.0241  0.2798  0.4114
19912TIP3    H181227   1.353   0.295   4.129  0.2483 -1.0129 -0.3214
19912TIP3    H281228   1.265   0.171   4.131  0.0641 -0.8804  2.3969
19913TIP3   OH281229   4.294   2.307  15.329 -0.0665 -0.1843 -0.2000
19913TIP3    H181230   4.264   2.374  15.267  0.5137 -0.1598 -0.4592
19913TIP3    H281231   4.373   2.271  15.288  1.2618  0.9755  1.3028
19914TIP3   OH281232   6.415   3.519   3.447 -0.7281  0.0679 -0.3050
19914TIP3    H181233   6.422   3.460   3.372 -0.7049  0.2956 -0.4820
19914TIP3    H281234   6.355   3.475   3.507 -1.1375  0.1215 -0.6794
19915TIP3   OH281235   2.203   3.060  12.619  0.1723  0.4837  0.7012
19915TIP3    H181236   2.288   3.103  12.620  0.8753 -0.7466 -1.4218
19915TIP3    H281237   2.169   3.076  12.531  0.0667 -2.4446  0.1296
19916TIP3   OH281238   3.861   3.448  14.561 -0.1287 -0.2715 -0.3029
19916TIP3    H181239   3.883   3.392  14.636  1.7500  0.2152 -0.4441
19916TIP3    H281240   3.919   3.417  14.491 -1.4373 -0.3197 -1.3752
19917TIP3   OH281241   4.540   2.575  11.878 -0.4320  0.0830  0.3357
19917TIP3    H181242   4.468   2.515  11.895 -0.5765  0.4998  1.2119
19917TIP3    H281243   4.503   2.642  11.820  0.0687 -1.3528 -1.7164
19918TIP3   OH281244   4.159   5.318  16.156  0.1666 -0.4955  0.1890
19918TIP3    H181245   4.145   5.375  16.232 -1.0560 -0.2401 -0.2150
19918TIP3    H281246   4.163   5.379  16.082 -0.3142 -0.8746 -0.1474
19919TIP3   OH281247   6.406   1.045  15.064 -0.6475  0.1090  0.3550
19919TIP3    H181248   6.374   0.990  14.992  1.2414 -0.5866  0.0130
19919TIP3    H281249   6.385   0.995  15.143  0.8943 -1.0853  0.0564
19920TIP3   OH281250   5.480   6.410  11.385 -0.2859  0.1681  0.5537
19920TIP3    H181251   5.509   6.407  11.294 -0.9638  0.2951  0.3286
19920TIP3    H281252   5.556   6.383  11.436 -0.3415 -1.3640 -0.1515
19921TIP3   OH281253   3.392   0.322   5.144  0.1931  0.2108 -0.0237
19921TIP3    H181254   3.429   0.390   5.087  0.4170  0.2294  0.1437
19921TIP3    H281255   3.412   0.352   5.232  0.4036 -0.1413  0.0480
19922TIP3   OH281256   5.534   0.000  15.923  0.0303 -0.1928  0.2322
19922TIP3    H181257   5.501   0.029  16.008 -0.3008 -0.4224  0.1833
19922TIP3    H281258   5.604  -0.062  15.944 -0.1840 -0.4003  0.3370
19923TIP3   OH281259   4.505   6.575   1.398  0.3981 -0.0637  0.3994
19923TIP3    H181260   4.578   6.561   1.338 -1.1777  0.5930 -1.7490
19923TIP3    H281261   4.536   6.642   1.459  1.4807  0.4050 -0.6493
19924TIP3   OH281262   5.292   5.834   2.447  0.4155  0.6991 -0.1990
19924TIP3    H181263   5.320   5.749   2.415  0.6813  1.1954 -1.3109
19924TIP3    H281264   5.362   5.862   2.506 -0.6510 -0.7635  1.8114
19925TIP3   OH281265   4.371   2.160  11.261 -0.1408 -0.1202 -0.6226
19925TIP3    H181266   4.393   2.080  11.309  1.5977 -0.3795 -1.7943
19925TIP3    H281267   4.392   2.231  11.322 -2.7324 -0.5538  0.8255
19926TIP3   OH281268   4.101   3.299  15.998  0.3101  0.2999 -0.1906
19926TIP3    H181269   4.185   3.315  15.955  0.4580  0.2300  0.0728
19926TIP3    H281270   4.051   3.380  15.983  1.1442  1.1115  1.3523
19927TIP3   OH281271   0.506   6.605  15.899 -0.0192 -0.0950  0.1375
19927TIP3    H181272   0.567   6.646  15.837 -1.7127 -0.9646 -2.1751
19927TIP3    H281273   0.481   6.523  15.857 -0.3876 -1.2380  2.5075
19928TIP3   OH281274   4.286   0.412  11.231  0.1442 -0.0716  0.2677
19928TIP3    H181275   4.358   0.426  11.170 -1.6131 -0.8285 -2.0717
19928TIP3    H281276   4.319   0.348  11.294  0.9447 -1.7260 -1.7838
19929TIP3   OH281277   1.256   6.249  14.510  0.1927  0.2629  0.1547
19929TIP3    H181278   1.224   6.237  14.420 -1.4386 -0.5816  0.8249
19929TIP3    H281279   1.244   6.164  14.551 -1.6554  1.3520  1.9615
19930TIP3   OH281280   1.873   2.610   5.228 -0.4922  0.7143  0.0603
19930TIP3    H181281   1.964   2.598   5.254 -0.8990  1.1637  1.7122
19930TIP3    H281282   1.872   2.693   5.180  0.4588 -0.6694 -2.4503
19931TIP3   OH281283   3.963   0.365  16.317 -0.2886 -0.5415 -0.1260
19931TIP3    H181284   4.033   0.427  16.296  0.1719 -1.0555 -0.1124
19931TIP3    H281285   3.985   0.286  16.267 -0.8305 -0.7215 -0.0815
19932TIP3   OH281286   1.362   3.983  16.966  0.0138  0.2430  0.5654
19932TIP3    H181287   1.338   3.896  16.997 -3.1327  1.0790  0.6466
19932TIP3    H281288   1.446   4.002  17.009 -0.4412 -1.7700  2.4153
19933TIP3   OH281289   2.313   5.019   2.454  0.2155  0.3406 -0.2825
19933TIP3    H181290   2.331   4.929   2.479  0.1925 -0.0368 -1.5857
19933TIP3    H281291   2.335   5.023   2.361 -0.0809  1.5945 -0.3104
19934TIP3   OH281292   1.844   4.645   1.499  0.0008 -0.3030  0.2647
19934TIP3    H181293   1.874   4.561   1.464 -0.0839 -0.1132 -0.2832
19934TIP3    H281294   1.916   4.677   1.552  0.7391  0.1045 -0.9642
19935TIP3   OH281295   1.566   5.120   5.864  0.0454  0.1524 -0.4226
19935TIP3    H181296   1.590   5.142   5.774 -0.6135  1.0631 -0.3799
19935TIP3    H281297   1.517   5.039   5.857  2.7351 -1.5327 -0.5567
19936TIP3   OH281298   0.794   1.609  13.433 -0.0185  0.6276 -0.4127
19936TIP3    H181299   0.720   1.599  13.374  0.0546  1.0703 -0.5794
19936TIP3    H281300   0.759   1.655  13.509 -0.1536 -0.1049 -0.0317
19937TIP3   OH281301   1.983   4.497   5.601  0.6369  0.3950 -0.0377
19937TIP3    H181302   2.020   4.544   5.526  0.4033  0.1981 -0.2763
19937TIP3    H281303   1.990   4.404   5.577 -3.3576  0.4189 -1.6996
19938TIP3   OH281304   2.331   3.961   0.531  0.0191 -0.4255 -0.1079
19938TIP3    H181305   2.336   4.049   0.495  0.9852 -1.1725 -1.8421
19938TIP3    H281306   2.421   3.930   0.532  0.1129 -0.2666  3.4459
19939TIP3   OH281307   6.144   6.598   0.213  0.0598  0.0190 -0.6466
19939TIP3    H181308   6.125   6.513   0.173 -0.4527 -0.5410  0.7340
19939TIP3    H281309   6.068   6.652   0.190  0.3663  0.0946 -1.4940
19940TIP3   OH281310   4.617   3.045  15.749  0.8987  0.3254  0.3472
19940TIP3    H181311   4.687   3.047  15.684  1.9818 -0.2344  1.4769
19940TIP3    H281312   4.615   2.955  15.780 -1.8267 -0.2379 -1.2348
19941TIP3   OH281313   1.090   4.319   0.054 -0.3359  0.0174  0.6496
19941TIP3    H181314   0.994   4.311   0.051 -0.3304  0.3123 -0.6146
19941TIP3    H281315   1.106   4.414   0.058 -0.0800  0.0102 -0.1235
19942TIP3   OH281316   5.984   1.396   0.511 -0.3210 -0.2265 -0.8614
19942TIP3    H181317   6.078   1.381   0.500 -0.4598 -0.0454 -2.4630
19942TIP3    H281318   5.977   1.491   0.525  0.0976 -0.7886  3.9279
19943TIP3   OH281319   1.768   6.509  14.922  0.1931  0.2852  0.0078
19943TIP3    H181320   1.829   6.583  14.924  0.9126 -0.2594 -1.0293
19943TIP3    H281321   1.682   6.548  14.937  0.3951  1.5556 -1.9476
19944TIP3   OH281322   5.685   3.197   0.281  0.5860  0.1416 -0.0896
19944TIP3    H181323   5.633   3.158   0.351  0.6333  2.1988  1.1218
19944TIP3    H281324   5.700   3.287   0.309  1.3712  0.7488 -2.3288
19945TIP3   OH281325   4.097   6.029  13.174 -0.3766 -0.0868  0.2417
19945TIP3    H181326   4.154   6.012  13.099 -1.1461 -0.8107 -0.1908
19945TIP3    H281327   4.082   6.123  13.172 -1.4752 -0.2746 -1.3224
19946TIP3   OH281328   1.247   4.935   6.439  0.5694 -0.1348  0.4554
19946TIP3    H181329   1.163   4.971   6.467  1.1705  1.2184  0.5277
19946TIP3    H281330   1.269   4.983   6.360  2.0435  0.6242  1.3083
19947TIP3   OH281331   4.121   2.627  15.636 -0.2138  0.1379  0.2251
19947TIP3    H181332   4.095   2.592  15.551 -0.3241 -1.8280  1.0381
19947TIP3    H281333   4.041   2.625  15.689 -0.1198  1.2298  0.4126
19948TIP3   OH281334   4.819   4.983   3.012  0.1695  0.4101  0.2787
19948TIP3    H181335   4.883   4.927   2.969  0.8576  0.3173  1.3939
19948TIP3    H281336   4.860   5.070   3.012 -1.3995  1.2255 -2.5222
19949TIP3   OH281337   4.056   1.454   4.468 -0.2509  0.0825 -0.0711
19949TIP3    H181338   4.101   1.439   4.551  0.0370 -1.1694 -0.4420
19949TIP3    H281339   4.007   1.373   4.453  1.4206 -0.5696 -2.1858
19950TIP3   OH281340   0.217   3.246  12.524  1.0550  0.5430 -0.4358
19950TIP3    H181341   0.292   3.201  12.485 -0.0733 -1.1476 -0.7404
19950TIP3    H281342   0.195   3.194  12.601 -0.7152  0.0965 -1.1929
19951TIP3   OH281343   0.803   3.567  14.260  0.5665  0.4536 -0.0254
19951TIP3    H181344   0.734   3.633  14.266  0.1899  0.1902 -1.2456
19951TIP3    H281345   0.822   3.561  14.166 -2.3271 -4.1096 -0.5277
19952TIP3   OH281346   2.437   4.065   2.251  0.0657 -0.1498  0.1304
19952TIP3    H181347   2.354   4.060   2.298 -0.1623 -3.3081 -0.4876
19952TIP3    H281348   2.497   4.011   2.303  1.0006 -0.0534 -0.8317
19953TIP3   OH281349   3.762   2.562  16.119 -0.0129 -0.1026  0.1671
19953TIP3    H181350   3.723   2.477  16.097 -1.9132  1.0525 -1.0357
19953TIP3    H281351   3.717   2.590  16.198 -1.3135  0.9973 -0.9379
19954TIP3   OH281352   3.515   1.563  15.054  0.1933 -0.0269  0.3522
19954TIP3    H181353   3.552   1.485  15.096 -0.4248 -0.9393 -0.7659
19954TIP3    H281354   3.592   1.614  15.028  0.6442 -1.0824 -0.4242
19955TIP3   OH281355   6.294   0.926   4.865  0.0628 -0.0977  0.5105
19955TIP3    H181356   6.364   0.973   4.909 -0.6265  0.5159  0.9543
19955TIP3    H281357   6.268   0.983   4.793 -0.1480 -0.2132  0.4931
19956TIP3   OH281358   0.360   5.228   4.205  0.2060  0.4784 -0.1107
19956TIP3    H181359   0.277   5.270   4.226 -0.5954 -2.0350  2.1200
19956TIP3    H281360   0.360   5.219   4.110 -2.5782 -0.4480 -0.0450
19957TIP3   OH281361   2.224   5.094  16.132  0.0626  0.6226 -0.2313
19957TIP3    H181362   2.252   5.175  16.174 -2.2436  0.5562  1.5084
19957TIP3    H281363   2.225   5.029  16.202  1.5308 -0.7826 -1.5328
19958TIP3   OH281364   4.251   6.710  11.029 -0.3596  0.3158 -0.2384
19958TIP3    H181365   4.210   6.793  11.005  0.5963  0.5334 -1.1807
19958TIP3    H281366   4.300   6.731  11.109  0.3756  0.8214 -0.8125
19959TIP3   OH281367   2.363   1.064   5.778  0.0593  0.5026 -0.2218
19959TIP3    H181368   2.415   1.014   5.841  0.3212  0.9630 -0.0685
19959TIP3    H281369   2.364   1.010   5.699 -1.0960 -0.5417  0.4612
19960TIP3   OH281370   6.154   4.630   4.667  0.2118  0.1052  0.0049
19960TIP3    H181371   6.194   4.717   4.675 -2.6515  1.5699 -1.0924
19960TIP3    H281372   6.159   4.610   4.574  0.1799 -0.5948  0.1502
19961TIP3   OH281373   5.510   0.204   5.487 -0.2512  0.4225  0.2363
19961TIP3    H181374   5.451   0.169   5.553 -0.5413 -1.4322 -0.9724
19961TIP3    H281375   5.598   0.187   5.522 -0.4002  1.2024  1.0166
19962TIP3   OH281376   2.498   2.815   2.263 -0.4533  0.0875  0.1113
19962TIP3    H181377   2.501   2.845   2.172 -2.5524 -1.2419 -0.4328
19962TIP3    H281378   2.585   2.778   2.278  0.2965  1.3733 -0.9836
19963TIP3   OH281379   2.580   3.621   1.918 -0.0438  0.1673  0.4753
19963TIP3    H181380   2.500   3.592   1.872 -0.1487 -1.2529  1.5080
19963TIP3    H281381   2.551   3.695   1.970 -0.2699  0.8297 -0.5782
19964TIP3   OH281382   3.807   3.635   5.251 -0.4153  0.0296 -0.4118
19964TIP3    H181383   3.865   3.681   5.312  0.3371 -1.8410  0.3119
19964TIP3    H281384   3.752   3.580   5.307 -1.1518 -0.1201 -1.2745
19965TIP3   OH281385   6.500   4.059  16.909  0.1417 -0.0080  0.6980
19965TIP3    H181386   6.512   4.136  16.964  0.1030  1.0789 -0.7710
19965TIP3    H281387   6.588   4.042  16.873  0.3333 -1.1930  1.7189
19966TIP3   OH281388   4.518   0.828   2.618  0.3124 -0.1069  0.4159
19966TIP3    H181389   4.457   0.848   2.546  2.4083 -0.1734 -1.4224
19966TIP3    H281390   4.512   0.733   2.629  2.1302 -0.5094 -1.7052
19967TIP3   OH281391   0.931   6.744  12.745 -0.0221  0.4507 -0.0645
19967TIP3    H181392   0.929   6.660  12.698 -1.6682 -0.6006  1.8385
19967TIP3    H281393   0.995   6.796  12.697 -2.8959  0.0825 -4.6139
19968TIP3   OH281394   1.236   5.974   1.028  0.8703 -0.3429  0.2074
19968TIP3    H181395   1.329   5.977   1.049  1.2103 -0.8898 -1.1876
19968TIP3    H281396   1.215   6.064   1.002  1.1618 -0.3742 -0.1370
19969TIP3   OH281397   5.933   0.390  11.106 -0.0844  0.8842  0.6791
19969TIP3    H181398   5.955   0.482  11.093 -1.9014  1.3614  0.9391
19969TIP3    H281399   5.844   0.391  11.140 -0.2304 -0.9869  0.3781
19970TIP3   OH281400   3.965   4.618  10.853  0.1094  0.1763 -0.0042
19970TIP3    H181401   3.878   4.654  10.868 -0.9672 -2.5133  0.5792
19970TIP3    H281402   3.961   4.580  10.766  1.6833  2.6287 -1.2146
19971TIP3   OH281403   6.811   0.242   3.856  0.5218 -0.2421  0.7868
19971TIP3    H181404   6.827   0.192   3.775  0.3375  1.4870 -0.3383
19971TIP3    H281405   6.798   0.175   3.923  2.1229 -1.7215 -0.3266
19972TIP3   OH281406   2.086   1.570   0.135 -0.2994  0.0690  0.3315
19972TIP3    H181407   2.069   1.484   0.097 -1.9301  0.9525 -1.0299
19972TIP3    H281408   2.176   1.589   0.111  0.1921 -1.4113  0.9569
19973TIP3   OH281409   1.751   3.750  15.849  0.6699 -0.3570 -0.1066
19973TIP3    H181410   1.760   3.835  15.893 -1.7462 -0.6694  1.0666
19973TIP3    H281411   1.830   3.742  15.796  2.4158  1.2361  2.1438
19974TIP3   OH281412   4.855   2.193  15.521 -0.6342 -0.3214 -0.0152
19974TIP3    H181413   4.813   2.236  15.446 -0.3147  1.5182  0.8325
19974TIP3    H281414   4.782   2.172  15.579 -0.6134  1.1755  0.5968
19975TIP3   OH281415   2.151   5.857   1.990  0.3675 -0.4827  0.4258
19975TIP3    H181416   2.243   5.859   2.018  0.2225 -1.4247  0.9582
19975TIP3    H281417   2.150   5.796   1.916  0.4505  0.7658 -0.6507
19976TIP3   OH281418   0.037   3.775   6.608  0.1827  0.2074 -0.2849
19976TIP3    H181419   0.060   3.689   6.571 -0.1015  0.6230 -1.4387
19976TIP3    H281420   0.119   3.824   6.609  0.0782  0.4008 -0.9305
19977TIP3   OH281421   0.432   0.948  13.202 -0.3184  0.1183  0.3212
19977TIP3    H181422   0.367   0.916  13.264 -0.3731 -2.8668 -1.1888
19977TIP3    H281423   0.380   0.996  13.136 -0.5918  0.6747  0.9400
19978TIP3   OH281424   3.486   5.263  16.879 -0.5029  0.1963 -0.3508
19978TIP3    H181425   3.481   5.171  16.907  0.1888  0.3897  0.4258
19978TIP3    H281426   3.553   5.264  16.811 -0.0737  0.2275  0.0706
19979TIP3   OH281427   0.503   4.670   3.741 -0.5499  0.8178 -0.8148
19979TIP3    H181428   0.445   4.606   3.700 -0.2714  1.0412 -1.5744
19979TIP3    H281429   0.450   4.708   3.812 -1.0524  0.4469 -0.9855
19980TIP3   OH281430   6.153   4.163  14.377 -0.3022 -0.2099 -0.1537
19980TIP3    H181431   6.216   4.154  14.305 -1.0677 -1.0320 -0.7368
19980TIP3    H281432   6.068   4.157  14.334 -0.7695  0.4898  0.6835
19981TIP3   OH281433   0.601   1.487   2.436 -0.1963 -0.4664 -0.5116
19981TIP3    H181434   0.663   1.508   2.506 -0.3401 -1.8849  0.0613
19981TIP3    H281435   0.528   1.547   2.451 -0.0507 -0.4828  0.3099
19982TIP3   OH281436   5.621   4.915   5.229 -0.3230 -0.6398  0.2970
19982TIP3    H181437   5.611   4.969   5.307 -0.8745  1.2487 -1.0449
19982TIP3    H281438   5.716   4.917   5.212 -0.1344 -1.5024  1.2151
19983TIP3   OH281439   2.020   4.641   0.228  0.4336 -0.2112 -0.3784
19983TIP3    H181440   1.970   4.704   0.281  0.2393 -0.1997 -0.5722
19983TIP3    H281441   2.054   4.578   0.291  0.0150 -0.3244 -0.2656
19984TIP3   OH281442   1.130   6.198   3.554  0.0670  0.0340  0.2081
19984TIP3    H181443   1.066   6.243   3.610 -0.7091 -0.2530 -0.4373
19984TIP3    H281444   1.203   6.260   3.548  0.0852  0.1539  1.3753
19985TIP3   OH281445   1.456   5.086  11.048  0.4710 -0.1429  0.1840
19985TIP3    H181446   1.422   5.106  10.961  1.6547 -1.6565 -0.6517
19985TIP3    H281447   1.392   5.027  11.086 -0.3585  1.0024  0.5967
19986TIP3   OH281448   4.628   4.433  14.547 -0.3259 -0.3996  0.1802
19986TIP3    H181449   4.615   4.405  14.637  0.8561  0.3839  0.6161
19986TIP3    H281450   4.540   4.452  14.514 -0.7443 -0.5172  1.2208
19987TIP3   OH281451   6.516   1.790  10.944  0.1109 -0.3323  0.4281
19987TIP3    H181452   6.593   1.795  10.888 -0.3820 -1.7813 -0.4355
19987TIP3    H281453   6.445   1.765  10.884 -1.1251  1.4168  1.1216
19988TIP3   OH281454   0.799   2.350  11.438 -0.1726 -0.2733 -0.0912
19988TIP3    H181455   0.734   2.284  11.462 -0.2592 -0.0647  0.2504
19988TIP3    H281456   0.819   2.332  11.347 -1.4069  0.2585 -0.4770
19989TIP3   OH281457   3.376   2.511   5.111  0.4829 -0.2132  0.4060
19989TIP3    H181458   3.308   2.520   5.177  0.0021  0.0901 -0.1261
19989TIP3    H281459   3.359   2.426   5.070  1.4285 -0.8914  1.3927
19990TIP3   OH281460   6.259   2.810   2.576 -0.5561 -0.0198  0.0026
19990TIP3    H181461   6.272   2.727   2.530  0.7289  0.5358 -0.6635
19990TIP3    H281462   6.206   2.862   2.515 -1.2704 -0.2971  0.3746
19991TIP3   OH281463   2.997   6.469  13.805  0.0128  0.6972  0.1088
19991TIP3    H181464   2.915   6.427  13.777 -0.3008  1.8956 -0.7889
19991TIP3    H281465   3.041   6.492  13.723  0.0968  2.2751  0.5899
19992TIP3   OH281466   1.288   2.874   0.350 -0.3338 -0.0957 -0.0817
19992TIP3    H181467   1.297   2.944   0.285 -0.9727  1.1860  1.1834
19992TIP3    H281468   1.247   2.802   0.302 -1.2913  1.0218 -0.9771
19993TIP3   OH281469   4.165   6.531  11.989  0.2987  0.3214 -0.3175
19993TIP3    H181470   4.237   6.501  12.045 -2.0222 -0.2031  2.5480
19993TIP3    H281471   4.124   6.450  11.958  1.2096  0.6157 -2.3355
19994TIP3   OH281472   2.033   6.582  11.301 -0.0427 -0.5349  0.3332
19994TIP3    H181473   2.106   6.539  11.257 -0.1403 -0.0643 -0.3021
19994TIP3    H281474   2.004   6.520  11.367  1.7065 -0.2467  1.4061
19995TIP3   OH281475   2.754   0.825  13.250  0.1600 -0.2553  0.3751
19995TIP3    H181476   2.783   0.790  13.166  1.0403 -0.7674  0.8884
19995TIP3    H281477   2.831   0.871  13.285 -0.5241  0.8786  0.4022
19996TIP3   OH281478   6.012   1.230   4.073 -0.3309  0.6052 -0.1846
19996TIP3    H181479   6.063   1.177   4.012 -0.1073  1.5203 -0.8073
19996TIP3    H281480   5.947   1.170   4.109 -0.3629  0.0098 -1.2083
19997TIP3   OH281481   1.659   6.163  16.964 -0.1672  0.4866  0.0392
19997TIP3    H181482   1.643   6.229  17.031  0.7928 -1.1985  1.9964
19997TIP3    H281483   1.731   6.198  16.911  1.8800  0.0619  2.4474
19998TIP3   OH281484   3.046   1.181   0.076  0.3184 -0.0457  0.1327
19998TIP3    H181485   3.032   1.249   0.142  1.1783  0.6308 -0.3817
19998TIP3    H281486   2.964   1.130   0.077 -0.3538  1.0202  0.4784
19999TIP3   OH281487   5.573   5.300   0.059 -0.7264 -0.2039  0.8832
19999TIP3    H181488   5.582   5.229  -0.005 -0.4407  1.5009 -1.0055
19999TIP3    H281489   5.576   5.380   0.007 -1.7980  1.1925  2.9058
20000TIP3   OH281490   1.881   0.213  14.256  0.2989 -0.0139  0.0780
20000TIP3    H181491   1.928   0.264  14.322 -0.2865  2.5096 -1.3758
20000TIP3    H281492   1.917   0.243  14.173 -3.3623  1.5158 -1.0497
20001TIP3   OH281493   5.945   2.609   2.158  0.3102  0.4002 -0.0598
20001TIP3    H181494   6.000   2.671   2.111 -0.2071  1.5659  0.8533
20001TIP3    H281495   6.007   2.549   2.200  0.8666  1.1501  0.2050
20002TIP3   OH281496   0.153   6.582   4.788 -0.0955 -0.2713  0.1516
20002TIP3    H181497   0.217   6.578   4.859 -1.1308 -1.0025  1.0505
20002TIP3    H281498   0.206   6.582   4.708  1.0334 -0.9497  0.8845
20003TIP3   OH281499   1.497   2.984  15.152 -0.1837 -0.4133 -0.3991
20003TIP3    H181500   1.501   3.079  15.168 -0.5952 -0.3167 -0.8776
20003TIP3    H281501   1.575   2.966  15.099 -0.7677 -0.1389 -1.3578
20004TIP3   OH281502   1.186   3.186   5.339 -0.8944  0.5509 -0.1703
20004TIP3    H181503   1.281   3.178   5.348 -0.9478  0.5086  0.3992
20004TIP3    H281504   1.161   3.250   5.406 -1.2448  0.6939 -0.4369
20005TIP3   OH281505   4.645   2.349  13.242 -0.6505 -0.1154  0.7646
20005TIP3    H181506   4.673   2.440  13.239 -2.1239  0.4294  2.6640
20005TIP3    H281507   4.582   2.341  13.170  2.7364 -0.8404 -2.2412
20006TIP3   OH281508   6.286   4.621  13.006 -0.2650 -0.5356  0.4397
20006TIP3    H181509   6.194   4.648  13.013 -0.0201  0.3237  0.4185
20006TIP3    H281510   6.334   4.684  13.059  0.5478  0.2976 -1.2434
20007TIP3   OH281511   4.761   3.725   4.897 -0.3157 -0.2654  0.3168
20007TIP3    H181512   4.715   3.643   4.882  0.2756 -0.2467 -1.6216
20007TIP3    H281513   4.853   3.701   4.899 -0.0560  0.5317 -1.5675
20008TIP3   OH281514   1.562   4.184  14.946  0.0888 -0.3171 -0.2624
20008TIP3    H181515   1.475   4.201  14.909  0.8487 -1.2897 -2.6169
20008TIP3    H281516   1.573   4.089  14.935 -0.0905 -0.8244  3.5456
20009TIP3   OH281517   3.281   2.346   0.670  0.2457  0.2530  0.3195
20009TIP3    H181518   3.360   2.399   0.659 -0.9494  1.8261 -0.9157
20009TIP3    H281519   3.248   2.369   0.757  0.6545  0.2659  0.4724
20010TIP3   OH281520   2.485   6.525   5.070 -0.0823  0.3885 -0.3440
20010TIP3    H181521   2.450   6.437   5.053  0.6478 -0.3169  1.6478
20010TIP3    H281522   2.412   6.583   5.049 -0.7449 -0.7304 -1.2182
20011TIP3   OH281523   2.695   1.953   1.740  0.1373 -0.3835  0.2544
20011TIP3    H181524   2.788   1.953   1.762  0.1030  0.7268  0.4258
20011TIP3    H281525   2.655   1.890   1.801  0.7026 -0.5194  0.4800
20012TIP3   OH281526   0.691   3.959   6.068 -0.5219  0.4858  0.0321
20012TIP3    H181527   0.758   3.908   6.113 -0.3265  0.1565 -0.6248
20012TIP3    H281528   0.615   3.955   6.126 -0.6141 -0.8213 -0.1600
20013TIP3   OH281529   6.632   5.241  12.278 -0.4363  0.7631  0.1251
20013TIP3    H181530   6.667   5.161  12.317 -0.5939  0.6276 -0.0095
20013TIP3    H281531   6.554   5.262  12.329 -0.1409  1.0813  0.4437
20014TIP3   OH281532   0.283   3.485  15.936 -0.2688  0.6706 -0.1577
20014TIP3    H181533   0.222   3.515  16.003 -0.5873 -0.4553  0.0668
20014TIP3    H281534   0.370   3.502  15.973 -0.4399  0.7076  0.2306
20015TIP3   OH281535   4.435   3.659   4.166  0.2879 -0.1922  0.1177
20015TIP3    H181536   4.445   3.626   4.077  3.4732 -0.3811  0.4871
20015TIP3    H281537   4.423   3.581   4.220 -0.4558 -0.1559  0.0101
20016TIP3   OH281538   1.671   2.256   5.442 -0.3462 -0.0163  0.0412
20016TIP3    H181539   1.599   2.253   5.379  0.4326 -1.2930 -0.8015
20016TIP3    H281540   1.697   2.165   5.454  1.5206  0.4817 -0.1328
20017TIP3   OH281541   3.309   2.541  15.377 -0.2081 -0.1581 -0.3226
20017TIP3    H181542   3.278   2.515  15.290 -0.6742 -0.7736  0.0285
20017TIP3    H281543   3.400   2.511  15.379 -0.5398 -1.1493 -0.1714
20018TIP3   OH281544   0.233   6.221   6.298 -0.0950  0.7340 -0.3379
20018TIP3    H181545   0.140   6.200   6.308 -0.5115  1.1472 -3.0857
20018TIP3    H281546   0.235   6.316   6.287  1.1532  1.4495  4.6348
20019TIP3   OH281547   3.780   0.159   3.148  0.2016  0.2491 -0.4152
20019TIP3    H181548   3.793   0.201   3.233  0.6633 -2.9207  1.1792
20019TIP3    H281549   3.707   0.098   3.163  0.0135 -0.0350 -2.4158
20020TIP3   OH281550   4.136   2.799   4.181  0.3956  0.6890 -0.3155
20020TIP3    H181551   4.220   2.798   4.228 -1.1997  1.2870  2.6781
20020TIP3    H281552   4.088   2.725   4.216 -1.2930  1.8586 -0.0980
20021TIP3   OH281553   1.272   5.306  11.220  0.6304  0.1656  0.1828
20021TIP3    H181554   1.259   5.224  11.173  2.4452 -0.8048  1.3523
20021TIP3    H281555   1.290   5.370  11.151  0.5245 -0.6781 -0.6388
20022TIP3   OH281556   6.317   4.925   1.036 -0.5805 -0.2126  0.0336
20022TIP3    H181557   6.356   5.009   1.062 -1.1203 -0.9905  3.5986
20022TIP3    H281558   6.225   4.946   1.020 -0.8473 -0.1712  1.4950
20023TIP3   OH281559   4.427   3.236   3.523 -0.1894 -0.2137  0.1504
20023TIP3    H181560   4.503   3.273   3.568 -0.4939  0.3665  0.1957
20023TIP3    H281561   4.352   3.270   3.571 -0.4717 -1.2524  0.4679
20024TIP3   OH281562   5.182   2.937   0.899 -0.1695 -0.1547  0.1724
20024TIP3    H181563   5.148   2.871   0.960  1.7970 -1.3591  0.0253
20024TIP3    H281564   5.246   2.890   0.846  1.2127  1.8539 -0.0129
20025TIP3   OH281565   5.643   6.033  13.151 -0.3376  0.2997  0.0125
20025TIP3    H181566   5.677   6.069  13.233  1.8874 -0.2968 -0.6088
20025TIP3    H281567   5.643   5.938  13.163 -0.4703  0.2289 -0.4945
20026TIP3   OH281568   2.827   1.723  15.230 -0.6340  0.0900  0.2905
20026TIP3    H181569   2.780   1.684  15.304 -2.4975  1.1320 -0.3147
20026TIP3    H281570   2.759   1.743  15.166  0.5979  1.9026 -0.4939
20027TIP3   OH281571   6.342   5.907  10.636  0.3409 -0.3437  0.0230
20027TIP3    H181572   6.298   5.980  10.593  0.3145  0.3080  1.1558
20027TIP3    H281573   6.364   5.939  10.723  1.5433 -1.2340  0.0641
20028TIP3   OH281574   0.464   2.148  12.044 -0.0850 -0.5669 -0.5768
20028TIP3    H181575   0.391   2.087  12.036 -1.3657  0.7371  0.7786
20028TIP3    H281576   0.466   2.171  12.137  0.6181  1.1370 -0.9780
20029TIP3   OH281577   5.148   2.778   1.295  0.0326 -0.9040 -0.1022
20029TIP3    H181578   5.153   2.701   1.352  1.5073  0.1885  1.3216
20029TIP3    H281579   5.226   2.771   1.240  0.5270 -0.1059  0.4848
20030TIP3   OH281580   2.661   1.596   5.184  0.5072 -0.0310  0.3868
20030TIP3    H181581   2.624   1.508   5.182  0.3686 -0.0065  1.5907
20030TIP3    H281582   2.629   1.637   5.104 -0.5168 -0.6293  0.4809
20031TIP3   OH281583   4.035   6.532   0.415  0.1511 -0.3281  0.4465
20031TIP3    H181584   4.125   6.549   0.443 -0.4045  3.0332  0.4416
20031TIP3    H281585   3.981   6.567   0.486 -1.1773  1.0910 -1.2363
20032TIP3   OH281586   4.787   5.531   6.003  0.5289 -0.0441  0.2255
20032TIP3    H181587   4.712   5.479   5.975  1.5627 -0.9765 -0.8268
20032TIP3    H281588   4.861   5.471   6.001  1.5269  1.1540  0.1749
20033TIP3   OH281589   6.446   0.805   0.319  0.1741 -0.1479  0.1216
20033TIP3    H181590   6.368   0.859   0.302 -0.6232 -2.1534 -2.9657
20033TIP3    H281591   6.451   0.746   0.244  0.2905 -5.2219  3.8253
20034TIP3   OH281592   5.927   0.182   2.754 -0.5343  0.3245 -0.0769
20034TIP3    H181593   5.967   0.262   2.721  0.5103 -0.1049  0.1081
20034TIP3    H281594   5.850   0.168   2.699  0.2223  0.5449 -1.1885
20035TIP3   OH281595   1.278   4.179   0.188  0.3709 -0.0425  0.4870
20035TIP3    H181596   1.221   4.103   0.194 -2.5953  1.9923 -0.4839
20035TIP3    H281597   1.224   4.245   0.143  3.0209  2.4310  0.8241
20036TIP3   OH281598   1.602   5.054  13.222 -0.1581  0.5117  0.1640
20036TIP3    H181599   1.646   5.090  13.300  1.3118  0.7302 -0.7469
20036TIP3    H281600   1.673   5.017  13.170 -1.1782  0.0587 -0.9195
20037TIP3   OH281601   0.697   2.731  13.935 -0.1351 -0.5687 -0.0545
20037TIP3    H181602   0.684   2.796  14.004  0.8064  0.2441 -0.6308
20037TIP3    H281603   0.662   2.772  13.856 -0.3972 -1.1439 -0.2426
20038TIP3   OH281604   5.025   3.697  16.506  0.5557 -0.4128  0.1666
20038TIP3    H181605   5.109   3.668  16.472  1.5217  0.3213  1.8467
20038TIP3    H281606   4.981   3.616  16.534  1.3890 -0.6643  0.7682
20039TIP3   OH281607   2.865   1.663   4.218 -0.5211  0.0788  0.5784
20039TIP3    H181608   2.785   1.712   4.199 -0.3695  0.7690  1.7212
20039TIP3    H281609   2.834   1.579   4.253 -0.7475  0.2848  0.8707
20040TIP3   OH281610   3.367   3.751  16.013  0.1481 -0.4140  0.0325
20040TIP3    H181611   3.321   3.824  16.056  1.5361  0.8427 -0.5610
20040TIP3    H281612   3.436   3.726  16.075  0.1655 -0.6966 -0.0998
20041TIP3   OH281613   2.935   2.661  15.459  0.1266  0.0353 -0.2436
20041TIP3    H181614   2.967   2.610  15.533 -1.0355  0.1401  0.3522
20041TIP3    H281615   2.865   2.608  15.421  0.4137  0.1853 -0.9835
20042TIP3   OH281616   2.432   6.329   1.545 -0.0787 -0.0042 -0.8176
20042TIP3    H181617   2.453   6.317   1.638 -1.1760  1.6690 -0.3288
20042TIP3    H281618   2.417   6.240   1.512 -0.6101 -0.5482  0.8310
20043TIP3   OH281619   4.696   5.282   1.553 -0.0213 -0.1474  0.0098
20043TIP3    H181620   4.612   5.281   1.507 -0.2815  0.2731  0.4696
20043TIP3    H281621   4.695   5.364   1.603 -0.4515 -1.4192  2.1087
20044TIP3   OH281622   1.516   1.724   1.913  0.2030  0.0216 -0.1117
20044TIP3    H181623   1.445   1.764   1.965  2.5516  2.5492  1.2759
20044TIP3    H281624   1.487   1.732   1.823 -1.8646 -0.1838  0.5069
20045TIP3   OH281625   1.040   5.277   3.763  0.2791 -0.3305 -0.0614
20045TIP3    H181626   0.993   5.201   3.796  2.4796 -0.6945  2.3481
20045TIP3    H281627   1.130   5.266   3.793  0.7800  2.9270 -0.0961
20046TIP3   OH281628   5.957   2.300   3.716  0.0544  0.3313 -0.0692
20046TIP3    H181629   5.937   2.350   3.637 -2.0296 -1.3406 -0.6294
20046TIP3    H281630   5.954   2.208   3.689 -0.1325 -0.2508  1.8234
20047TIP3   OH281631   0.429   0.608  13.102 -0.6073 -0.6539  0.0708
20047TIP3    H181632   0.354   0.653  13.063 -0.4691 -0.8542 -0.4276
20047TIP3    H281633   0.497   0.610  13.035 -0.2810 -0.7757  0.3939
20048TIP3   OH281634   0.035   3.703  14.766  0.1682 -0.6135 -0.3938
20048TIP3    H181635   0.127   3.694  14.790  0.1942  1.2073  0.2841
20048TIP3    H281636  -0.008   3.737  14.844 -1.1072 -1.4633 -0.6906
20049TIP3   OH281637   6.156   4.635  11.530  0.0003 -0.2251 -0.2990
20049TIP3    H181638   6.201   4.644  11.446  0.3160 -1.9662 -0.3436
20049TIP3    H281639   6.126   4.544  11.531  1.3613 -0.6956  2.1180
20050TIP3   OH281640   5.506   2.368   4.212 -0.3561 -0.0014  0.9247
20050TIP3    H181641   5.561   2.439   4.179  0.7253 -1.5429 -0.6319
20050TIP3    H281642   5.531   2.358   4.304 -0.8017  1.8717  1.2733
20051TIP3   OH281643   5.752   4.324  13.590 -0.5599  0.3130 -0.6609
20051TIP3    H181644   5.724   4.237  13.618 -0.9533  0.0041 -1.9686
20051TIP3    H281645   5.671   4.371  13.571 -0.3699  1.1790  0.6439
20052TIP3   OH281646   3.404   4.902   3.772  0.1282  0.5575 -0.2031
20052TIP3    H181647   3.493   4.927   3.797 -0.5909  2.0431  0.9265
20052TIP3    H281648   3.413   4.814   3.736  1.7925 -0.1010  1.7225
20053TIP3   OH281649   1.040   5.974  14.888  0.3471  0.4193 -0.6431
20053TIP3    H181650   0.986   6.014  14.821 -0.3091 -0.5987 -0.7380
20053TIP3    H281651   1.056   6.043  14.952 -0.2607  0.9825 -1.1030
20054TIP3   OH281652   6.194   1.895   1.916 -0.3019  0.2487  0.2368
20054TIP3    H181653   6.215   1.979   1.873 -1.2327  0.2279 -0.2718
20054TIP3    H281654   6.248   1.831   1.870  0.3684  0.5657  0.5832
20055TIP3   OH281655   3.082   6.157   6.692 -0.0656  0.4787 -0.1026
20055TIP3    H181656   3.136   6.212   6.636  0.3353  0.9012  0.6896
20055TIP3    H281657   3.136   6.080   6.710 -0.8248 -0.4302 -1.6356
20056TIP3   OH281658   0.850   5.546  11.485  0.0976  0.1760 -0.7018
20056TIP3    H181659   0.826   5.550  11.393 -1.3216 -0.5239 -0.3749
20056TIP3    H281660   0.777   5.500  11.527 -0.1873  2.1655  1.0631
20057TIP3   OH281661   6.394   6.569   5.445  0.1922 -0.2407 -0.1284
20057TIP3    H181662   6.387   6.605   5.356  2.7488 -1.3422 -0.8469
20057TIP3    H281663   6.316   6.515   5.456 -0.4505  0.4001 -1.4924
20058TIP3   OH281664   3.379   5.257   1.007 -0.1402  0.4410 -0.2682
20058TIP3    H181665   3.398   5.229   1.097 -0.1489  0.2861 -0.3154
20058TIP3    H281666   3.338   5.181   0.966  0.1267  0.4146 -0.4902
20059TIP3   OH281667   1.047   5.744   2.404 -0.0107  0.1412 -0.0041
20059TIP3    H181668   0.986   5.687   2.451 -1.5786  0.7172 -1.2713
20059TIP3    H281669   1.127   5.744   2.457 -0.3876 -2.2892  0.6258
20060TIP3   OH281670   4.566   2.155   0.744  0.3149 -0.0350 -0.4315
20060TIP3    H181671   4.495   2.178   0.684 -0.5295  0.2041  0.6449
20060TIP3    H281672   4.528   2.166   0.831  0.8351 -2.5401  0.1398
20061TIP3   OH281673   1.312   2.997   1.324  0.1369 -0.2987  0.0414
20061TIP3    H181674   1.390   2.945   1.304 -0.6678 -1.2538 -0.5990
20061TIP3    H281675   1.347   3.075   1.368  1.5553 -0.1626 -1.2739
20062TIP3   OH281676   1.707   6.244   5.235  0.1697  0.0238  0.7904
20062TIP3    H181677   1.698   6.293   5.154 -1.4106 -2.0862 -0.3636
20062TIP3    H281678   1.789   6.276   5.273  0.3895  1.8022 -1.0883
20063TIP3   OH281679   4.354   1.909  13.750 -0.5826 -0.2269  0.0529
20063TIP3    H181680   4.363   1.983  13.811  2.5095  0.1436 -0.7670
20063TIP3    H281681   4.410   1.840  13.787 -0.5232 -0.8210 -1.1209
20064TIP3   OH281682   5.664   1.990   0.942  0.2068  0.8602  0.1315
20064TIP3    H181683   5.595   2.055   0.940  0.0445  0.6650 -0.5142
20064TIP3    H281684   5.664   1.951   0.855 -0.4939 -0.8382  0.8822
20065TIP3   OH281685   4.687   2.980   2.973 -0.6834 -0.5110 -0.4347
20065TIP3    H181686   4.599   2.988   2.936 -0.0778  0.5237 -1.6954
20065TIP3    H281687   4.745   3.017   2.906  0.7244 -1.2570  0.3375
20066TIP3   OH281688   2.090   2.874   2.619 -0.0384  0.0976  0.1223
20066TIP3    H181689   2.014   2.827   2.586 -0.1672  1.1069 -1.0745
20066TIP3    H281690   2.054   2.958   2.649  0.1554 -0.5991  2.3817
20067TIP3   OH281691   3.897   3.024   2.324 -0.3373  0.2198  0.0289
20067TIP3    H181692   3.815   2.986   2.290 -0.7186  0.0780  1.0809
20067TIP3    H281693   3.884   3.119   2.315  0.9033  0.1464 -3.2663
20068TIP3   OH281694   2.932   5.700   2.585  0.1618  0.2858 -0.8458
20068TIP3    H181695   2.972   5.615   2.602 -1.7246 -0.6845 -1.1475
20068TIP3    H281696   2.866   5.709   2.654  0.5411  1.6392 -0.6454
20069TIP3   OH281697   3.920   5.939   6.718 -0.6305  0.4965  0.0849
20069TIP3    H181698   3.916   5.900   6.631 -2.9854  0.6894  0.0791
20069TIP3    H281699   3.853   6.007   6.717  0.7293  1.8944  1.3904
20070TIP3   OH281700   2.240   4.054  17.159 -0.3225 -0.1816 -0.1192
20070TIP3    H181701   2.275   4.103  17.234 -1.4538  0.1995  0.1739
20070TIP3    H281702   2.234   4.118  17.089  1.7550 -0.7864 -0.8783
20071TIP3   OH281703   5.290   0.132   2.498 -0.1387 -0.7565  0.6079
20071TIP3    H181704   5.317   0.093   2.581 -2.0866  0.4563  1.8416
20071TIP3    H281705   5.195   0.118   2.495 -0.4340  1.3040 -0.2852
20072TIP3   OH281706   0.575   6.660   5.900 -0.1085  0.0616  0.5434
20072TIP3    H181707   0.562   6.752   5.876  0.2523  0.1846  0.8061
20072TIP3    H281708   0.548   6.655   5.992  1.0730  0.1888  0.9113
20073TIP3   OH281709   0.604   3.456  12.496  0.3781  0.5912  0.5218
20073TIP3    H181710   0.549   3.533  12.482  1.7449  1.3172 -1.0414
20073TIP3    H281711   0.656   3.476  12.574  0.1882  0.9383  0.5549
20074TIP3   OH281712   3.891   2.896  17.084  0.0316 -0.1878 -0.9066
20074TIP3    H181713   3.939   2.972  17.052 -0.9936 -0.1089 -2.2885
20074TIP3    H281714   3.839   2.867  17.009 -0.4072 -1.5922 -0.0754
20075TIP3   OH281715   2.048   5.708   1.136 -0.3991  0.4105 -0.1451
20075TIP3    H181716   1.993   5.682   1.062 -2.1818  0.7210  1.0379
20075TIP3    H281717   2.089   5.626   1.166  0.7068  0.3576 -1.7413
20076TIP3   OH281718   6.585   4.425   3.813 -0.3068 -0.0831  0.4466
20076TIP3    H181719   6.546   4.480   3.744 -1.5598 -0.5882  0.7415
20076TIP3    H281720   6.512   4.404   3.871  0.6790  0.0873  1.7789
20077TIP3   OH281721   2.359   2.414  11.929 -0.0266 -0.0661  0.7824
20077TIP3    H181722   2.429   2.366  11.974 -0.8904 -1.9558  0.1519
20077TIP3    H281723   2.280   2.361  11.944 -1.2718  1.8208  1.1396
20078TIP3   OH281724   0.720   3.165  12.628 -0.2082  0.5925 -0.6056
20078TIP3    H181725   0.778   3.236  12.658  0.0335 -1.0424  3.1035
20078TIP3    H281726   0.636   3.184  12.670 -0.5444 -0.5497 -0.7539
20079TIP3   OH281727   3.155   1.134  15.918 -0.3011 -0.4209  0.3908
20079TIP3    H181728   3.191   1.088  15.994 -0.4103  0.5589  1.0508
20079TIP3    H281729   3.232   1.164  15.869 -0.2299 -1.1734  0.0394
20080TIP3   OH281730   1.974   2.800   0.659  0.2519 -0.7754  0.2029
20080TIP3    H181731   1.888   2.757   0.657 -0.5662  0.8035  0.0623
20080TIP3    H281732   1.955   2.890   0.632  1.6980  0.0268  1.8159
20081TIP3   OH281733   4.173   1.872  13.009 -0.1377  0.8224  0.0513
20081TIP3    H181734   4.236   1.828  12.952 -0.8499  1.6510 -1.4116
20081TIP3    H281735   4.226   1.932  13.061  0.4264  0.6446 -0.3139
20082TIP3   OH281736   3.688   2.113   5.758  0.2958  0.6478  0.7144
20082TIP3    H181737   3.599   2.147   5.751 -0.0775 -0.2156  1.1871
20082TIP3    H281738   3.711   2.124   5.850  0.2319 -0.2258  0.8377
20083TIP3   OH281739   2.807   1.155   5.853 -0.5326  0.1071 -0.1720
20083TIP3    H181740   2.807   1.079   5.796  1.8760 -0.2219  0.1877
20083TIP3    H281741   2.900   1.172   5.870 -1.1151  1.6819  1.6552
20084TIP3   OH281742   3.460   1.333   6.254  0.0187 -0.1465 -0.5192
20084TIP3    H181743   3.551   1.312   6.273 -0.0059 -0.5375 -0.8369
20084TIP3    H281744   3.428   1.377   6.334  0.6982  0.6736 -0.6877
20085TIP3   OH281745   6.270   3.837  15.919  0.4652 -0.3621  0.1958
20085TIP3    H181746   6.319   3.783  15.857 -0.5798  2.0693 -2.9083
20085TIP3    H281747   6.335   3.900  15.951  0.9798 -1.5534  1.5591
20086TIP3   OH281748   3.704   0.292   3.607  0.9192 -0.1615  0.0261
20086TIP3    H181749   3.697   0.365   3.545  0.9341  0.6296  0.9416
20086TIP3    H281750   3.616   0.255   3.610  1.1515 -0.8400 -1.2212
20087TIP3   OH281751   3.292   3.459   1.655  0.3771  0.8039  0.2445
20087TIP3    H181752   3.209   3.464   1.701 -0.1756  2.5016 -0.8954
20087TIP3    H281753   3.351   3.517   1.704  0.4837  0.7187  0.2194
20088TIP3   OH281754   6.028   4.792   3.263 -0.1159 -0.2560  0.1195
20088TIP3    H181755   6.011   4.813   3.171 -0.0346 -1.2626 -0.1249
20088TIP3    H281756   5.943   4.766   3.298  0.3564 -2.6081 -0.3985
20089TIP3   OH281757   4.130   6.702  13.710  0.6669 -0.1004 -0.2351
20089TIP3    H181758   4.049   6.668  13.748 -0.2858  1.8920 -0.3754
20089TIP3    H281759   4.101   6.760  13.640  2.2169  0.6467 -0.2892
20090TIP3   OH281760   0.344   1.019  11.259  0.3488 -0.0949  0.1952
20090TIP3    H181761   0.435   1.019  11.287  0.4931  0.1429 -0.2671
20090TIP3    H281762   0.325   1.110  11.238  0.2769 -0.2771 -0.5669
20091TIP3   OH281763   0.088   2.469  15.609  0.2514  0.3324 -0.7317
20091TIP3    H181764   0.023   2.412  15.568 -0.8741  1.5639 -0.7086
20091TIP3    H281765   0.118   2.526  15.539  1.4480 -0.3444 -0.7780
20092TIP3   OH281766   1.938   5.431  11.274  0.5061 -0.4621  0.5080
20092TIP3    H181767   1.929   5.360  11.339  1.2506 -0.1067  1.0054
20092TIP3    H281768   1.890   5.399  11.198 -2.1570 -0.0066  1.9361
20093TIP3   OH281769   2.075   3.081  16.524  0.2116  0.1018 -0.4848
20093TIP3    H181770   2.108   3.039  16.604 -1.1022 -1.2487 -0.6560
20093TIP3    H281771   2.062   3.173  16.550 -1.5893 -0.6197  1.2871
20094TIP3   OH281772   3.210   5.654  15.269 -0.2212  0.3783  0.2652
20094TIP3    H181773   3.249   5.574  15.305 -1.0711 -1.1553 -2.1761
20094TIP3    H281774   3.283   5.698  15.225  0.0528  0.5155  0.8501
20095TIP3   OH281775   3.607   3.955   0.014 -0.0674 -0.0026  0.0827
20095TIP3    H181776   3.661   3.950  -0.065 -0.2459 -0.1647 -0.0294
20095TIP3    H281777   3.563   4.041   0.007  0.0960  0.0846  0.1209
20096TIP3   OH281778   3.931   2.263  12.874 -0.0623  0.8594 -0.3319
20096TIP3    H181779   4.011   2.289  12.829 -0.7750  0.1493 -2.0751
20096TIP3    H281780   3.949   2.174  12.906 -0.3222  0.5010 -1.1710
20097TIP3   OH281781   1.006   4.034  11.356 -0.1926  0.2981  0.2477
20097TIP3    H181782   0.962   3.978  11.420 -1.2044  0.8143  0.0212
20097TIP3    H281783   1.022   3.977  11.281 -0.1452  0.0124  0.4764
20098TIP3   OH281784   0.030   5.194  12.662  0.0526 -0.5309  0.0307
20098TIP3    H181785   0.079   5.133  12.607 -2.6093 -2.5055 -0.2861
20098TIP3    H281786   0.004   5.142  12.738 -1.1601  0.5668  0.3923
20099TIP3   OH281787   0.078   3.441  11.882  0.0522 -0.3118 -0.1232
20099TIP3    H181788   0.085   3.346  11.891 -1.7084 -0.3809  0.7456
20099TIP3    H281789   0.019   3.468  11.953  0.1391  1.3642 -0.6562
20100TIP3   OH281790   1.248   1.390   5.688 -0.6570  0.4200  0.4060
20100TIP3    H181791   1.334   1.381   5.729  0.5964  0.9427 -2.0748
20100TIP3    H281792   1.205   1.459   5.739 -0.1649 -0.7545  2.5002
20101TIP3   OH281793   0.357   4.203   2.683 -0.0184 -0.4624  0.1019
20101TIP3    H181794   0.369   4.120   2.637 -0.7952 -0.6436  0.2101
20101TIP3    H281795   0.275   4.239   2.647 -1.3554 -1.2453  2.2723
20102TIP3   OH281796   4.003   5.351  13.094 -0.3239 -0.3183  0.1621
20102TIP3    H181797   3.990   5.361  13.188 -0.5418 -2.4652  0.4034
20102TIP3    H281798   4.080   5.404  13.074  0.6905 -1.1176  1.8437
20103TIP3   OH281799   0.871   5.121  16.362 -0.0264 -0.4116 -0.0537
20103TIP3    H181800   0.957   5.082  16.376 -0.0644 -0.7109 -0.6170
20103TIP3    H281801   0.849   5.163  16.445  1.8104  1.8887 -0.6825
20104TIP3   OH281802   1.729   4.273  12.515  0.2963  0.3290  0.7889
20104TIP3    H181803   1.658   4.252  12.576  0.8115 -0.2141  1.2096
20104TIP3    H281804   1.754   4.363  12.536 -0.2337  0.5039  0.6713
20105TIP3   OH281805   2.115   3.156   1.160  0.3818  0.4698 -0.3034
20105TIP3    H181806   2.099   3.062   1.160 -0.2764  0.5825 -0.0376
20105TIP3    H281807   2.210   3.164   1.172  0.3683 -0.1463  0.2077
20106TIP3   OH281808   1.788   3.170   5.954 -0.6337  0.5525  0.4305
20106TIP3    H181809   1.783   3.094   6.012 -0.3611  0.0674 -0.1790
20106TIP3    H281810   1.702   3.212   5.962 -1.7642 -1.3378 -1.2876
20107TIP3   OH281811   1.424   4.603   3.035 -0.1146 -0.1665  0.1808
20107TIP3    H181812   1.456   4.520   3.000 -0.6496  0.1887 -1.1738
20107TIP3    H281813   1.334   4.583   3.061  0.0966 -0.2799  0.8290
20108TIP3   OH281814   0.070   4.598  13.699 -0.2406  0.1486 -0.4519
20108TIP3    H181815   0.025   4.680  13.717 -3.7548 -1.5307 -1.1742
20108TIP3    H281816   0.108   4.572  13.783 -2.1127  0.7603  0.5989
20109TIP3   OH281817   1.038   2.806   2.295 -0.1854  0.3005  0.2714
20109TIP3    H181818   1.032   2.840   2.206  1.7218 -0.7804 -0.2899
20109TIP3    H281819   0.972   2.855   2.344 -0.9061  1.2575 -1.6140
20110TIP3   OH281820   1.720   6.219  14.239  0.5693 -0.4005 -0.9016
20110TIP3    H181821   1.637   6.173  14.231  1.5361 -2.2744 -0.4984
20110TIP3    H281822   1.785   6.155  14.208  2.0958  0.1388  1.1151
20111TIP3   OH281823   5.725   2.517  10.910  0.2654  0.1503 -0.2089
20111TIP3    H181824   5.647   2.561  10.874  1.0512  2.0192  0.2987
20111TIP3    H281825   5.786   2.515  10.837  0.1099 -0.3808 -0.3206
20112TIP3   OH281826   3.224   4.090   5.475  0.2765  0.2586  0.1732
20112TIP3    H181827   3.298   4.086   5.415  1.5744  1.6755  1.6202
20112TIP3    H281828   3.206   4.183   5.486 -0.0766  0.0302  1.7646
20113TIP3   OH281829   6.461   3.490  11.849  0.5496 -0.3921  0.3266
20113TIP3    H181830   6.543   3.520  11.888  0.6973  1.1732 -1.1547
20113TIP3    H281831   6.487   3.417  11.793  0.4743 -1.9777  2.3077
20114TIP3   OH281832   0.507   2.564   6.450 -0.3132  0.3183 -0.0843
20114TIP3    H181833   0.423   2.520   6.459 -0.6617  0.8139 -0.8380
20114TIP3    H281834   0.529   2.592   6.539  0.1527 -1.7713  0.4788
20115TIP3   OH281835   2.312   2.438   1.690  0.5115 -0.8181 -0.1845
20115TIP3    H181836   2.343   2.349   1.680  2.0673 -0.2592 -0.4954
20115TIP3    H281837   2.370   2.490   1.635  0.0133  0.4591  0.4719
20116TIP3   OH281838   0.049   1.584   3.098  0.2775  0.1688 -0.4340
20116TIP3    H181839   0.030   1.537   3.017  1.6107 -0.0530 -0.6213
20116TIP3    H281840  -0.014   1.550   3.162 -0.3515 -0.1094 -1.2078
20117TIP3   OH281841   2.196   4.856  10.334 -0.0536 -0.3539  0.5959
20117TIP3    H181842   2.221   4.764  10.334  1.2966  0.0079  0.0359
20117TIP3    H281843   2.219   4.887  10.422 -1.7196 -0.8602  1.2281
20118TIP3   OH281844   2.674   5.288  16.019  0.1293 -0.4463 -0.0717
20118TIP3    H181845   2.696   5.304  16.110  0.8301  0.8727 -0.4559
20118TIP3    H281846   2.619   5.210  16.020  0.0735 -0.3848  1.4798
20119TIP3   OH281847   2.451   3.284   5.514  0.3656  0.5629 -0.0106
20119TIP3    H181848   2.461   3.237   5.431  0.5286  1.9962 -0.8150
20119TIP3    H281849   2.518   3.246   5.571 -1.2062 -1.9971  0.2209
20120TIP3   OH281850   5.444   5.108  12.383 -0.2857  0.1149 -0.0055
20120TIP3    H181851   5.537   5.120  12.368  0.3816 -2.4785  1.6437
20120TIP3    H281852   5.407   5.091  12.297  0.6861  1.4894 -0.7092
20121TIP3   OH281853   3.083   5.530   3.534 -0.6138 -0.0938 -0.0379
20121TIP3    H181854   3.099   5.439   3.560 -0.5624 -0.4086 -1.1418
20121TIP3    H281855   3.170   5.570   3.534 -0.3419 -0.6736 -1.8602
20122TIP3   OH281856   6.207   6.042  17.115 -0.3009 -0.1659  0.2036
20122TIP3    H181857   6.130   6.030  17.170  0.4721 -0.8500  1.1454
20122TIP3    H281858   6.190   6.123  17.067 -1.3579 -0.0177  0.8165
20123TIP3   OH281859   6.808   1.791   0.941 -0.9799 -0.7139 -0.5230
20123TIP3    H181860   6.822   1.699   0.963 -1.0437 -0.3634  1.0033
20123TIP3    H281861   6.730   1.817   0.990 -1.0545  0.1118 -1.0603
20124TIP3   OH281862   1.758   2.837  10.978  0.5730 -0.2612 -0.2534
20124TIP3    H181863   1.829   2.887  10.939  0.6737  0.2466  0.5630
20124TIP3    H281864   1.724   2.894  11.047 -1.8660  0.3129 -1.8683
20125TIP3   OH281865   3.017   6.661   3.310  0.5662 -0.2490  0.5087
20125TIP3    H181866   3.113   6.656   3.304  0.5196 -0.0535 -0.5200
20125TIP3    H281867   2.986   6.596   3.247  0.0201 -0.1694  0.6966
20126TIP3   OH281868   3.125   4.093  10.600  0.4461  0.7273 -0.0628
20126TIP3    H181869   3.148   4.160  10.536 -1.0801  0.0029 -1.4125
20126TIP3    H281870   3.198   4.031  10.599  0.6112  0.9340 -0.8298
20127TIP3   OH281871   4.882   2.647  10.303 -0.0689  0.0855  0.4708
20127TIP3    H181872   4.941   2.616  10.234 -1.9186 -1.3790 -0.4914
20127TIP3    H281873   4.919   2.612  10.384  1.2614  0.5393  0.0785
20128TIP3   OH281874   2.578   5.185  11.532  0.2209 -0.2767  0.2338
20128TIP3    H181875   2.640   5.121  11.497  0.0385 -0.9254  1.1064
20128TIP3    H281876   2.512   5.134  11.578 -2.6612  0.1506 -3.1287
20129TIP3   OH281877   6.512   6.410   5.980  0.1288 -0.2080  0.3792
20129TIP3    H181878   6.431   6.359   5.982 -0.0793  0.1542  1.9775
20129TIP3    H281879   6.518   6.441   5.890 -1.7784  0.1709  0.3416
20130TIP3   OH281880   3.726   0.587   4.674  0.1975 -0.6635 -0.6129
20130TIP3    H181881   3.650   0.554   4.626 -0.3716  0.6148 -0.5970
20130TIP3    H281882   3.799   0.578   4.613  0.2418 -2.8027 -0.2972
20131TIP3   OH281883   0.068   6.206  14.499 -0.2467  0.0947 -0.6961
20131TIP3    H181884   0.164   6.215  14.495 -0.1100  0.2675  2.0214
20131TIP3    H281885   0.035   6.277  14.444  1.1885  0.6948 -0.8199
20132TIP3   OH281886   2.411   4.187  14.584  0.1486  0.0259 -0.5514
20132TIP3    H181887   2.344   4.167  14.649 -1.5244  0.7680 -2.0305
20132TIP3    H281888   2.370   4.249  14.524  2.0129  0.1694 -1.7416
20133TIP3   OH281889   0.451   3.120  15.463 -0.1314  0.0001 -0.3699
20133TIP3    H181890   0.460   3.025  15.447 -0.2229 -0.4221  1.9516
20133TIP3    H281891   0.534   3.157  15.433  1.0844 -1.2161  1.3590
20134TIP3   OH281892   2.819   6.053  11.954 -0.9482  0.5198  0.2179
20134TIP3    H181893   2.899   6.012  11.922 -0.3528  1.3951  0.5916
20134TIP3    H281894   2.771   5.982  11.997 -1.4870 -0.5446 -2.0714
20135TIP3   OH281895   0.434   1.530  12.248 -0.6133 -0.1113 -0.1036
20135TIP3    H181896   0.461   1.584  12.323  0.0631  1.7158 -1.6322
20135TIP3    H281897   0.341   1.551  12.236 -0.2884  0.9164 -0.8519
20136TIP3   OH281898   3.634   2.829   5.845  0.0760 -0.1435 -0.1432
20136TIP3    H181899   3.693   2.900   5.872 -0.0494  0.4742 -1.4857
20136TIP3    H281900   3.692   2.754   5.832  0.3042 -0.0883  0.5323
20137TIP3   OH281901   4.171   2.161   2.853  0.2546  0.0905  0.6797
20137TIP3    H181902   4.257   2.201   2.868  0.0207  0.2401  1.6941
20137TIP3    H281903   4.173   2.080   2.904  0.2929 -0.6048 -0.4142
20138TIP3   OH281904   5.128   1.537  13.738  0.0463  0.2474  0.0160
20138TIP3    H181905   5.144   1.631  13.747 -1.9661  0.8602 -2.2026
20138TIP3    H281906   5.209   1.503  13.699  0.1773  1.3660 -0.7267
20139TIP3   OH281907   4.703   0.432   5.057  0.0802 -0.1623  0.6248
20139TIP3    H181908   4.773   0.370   5.078  0.2780  0.0420  0.5730
20139TIP3    H281909   4.627   0.400   5.106 -0.5270 -1.9140 -1.3736
20140TIP3   OH281910   0.318   0.851  15.313 -0.6512 -0.0492 -0.6727
20140TIP3    H181911   0.349   0.808  15.392 -1.4215  0.3334 -0.1599
20140TIP3    H281912   0.372   0.813  15.243 -0.1248 -0.5530 -0.0045
20141TIP3   OH281913   3.126   1.517  11.907 -0.1738 -0.4367  0.8531
20141TIP3    H181914   3.035   1.545  11.917  0.5662  1.9158  1.2961
20141TIP3    H281915   3.151   1.548  11.819  0.6326  0.2549  1.3163
20142TIP3   OH281916   1.181   6.023  14.677  0.1619 -0.2443  0.0196
20142TIP3    H181917   1.116   5.976  14.623 -0.4375  1.9658 -1.2438
20142TIP3    H281918   1.140   6.030  14.763 -0.1940 -1.0686 -0.0749
20143TIP3   OH281919   5.536   4.288  11.882 -0.7718 -0.5197 -0.9943
20143TIP3    H181920   5.464   4.299  11.819 -0.8392 -0.3997 -0.8956
20143TIP3    H281921   5.614   4.315  11.834 -0.5300 -2.4583 -1.7295
20144TIP3   OH281922   0.060   2.415  14.931  0.0909  0.7495 -0.1583
20144TIP3    H181923   0.031   2.328  14.957 -0.9757  0.7195 -1.3906
20144TIP3    H281924   0.147   2.401  14.892  1.9690  0.8642  3.7280
20145TIP3   OH281925   0.183   4.862   2.797  0.1070  0.2321  0.6204
20145TIP3    H181926   0.218   4.829   2.715 -0.5235 -0.9002  0.8054
20145TIP3    H281927   0.229   4.812   2.865 -0.4605  0.1063  0.9155
20146TIP3   OH281928   0.232   1.823  16.365  0.2207 -0.0050  0.2050
20146TIP3    H181929   0.237   1.902  16.420 -0.2848  0.1479  0.0297
20146TIP3    H281930   0.188   1.758  16.421 -1.9370  0.6925 -0.6426
20147TIP3   OH281931   1.059   0.918   1.291 -0.1016 -0.8711 -0.4702
20147TIP3    H181932   1.003   0.916   1.369 -1.0157  0.7218 -1.0800
20147TIP3    H281933   1.139   0.873   1.318 -0.3215 -0.1300  1.4673
20148TIP3   OH281934   3.162   2.558   5.278 -0.1063  0.8891 -0.4885
20148TIP3    H181935   3.138   2.512   5.359 -0.6359 -0.2699 -1.2848
20148TIP3    H281936   3.083   2.553   5.224  1.1964 -1.1234 -2.3233
20149TIP3   OH281937   1.194   3.431  14.383 -0.2744 -0.9834  0.5211
20149TIP3    H181938   1.209   3.344  14.346 -2.0403 -1.1714  0.1928
20149TIP3    H281939   1.130   3.471  14.325  1.9701  1.3006 -0.4316
20150TIP3   OH281940   1.319   1.721  12.476  0.1365 -0.6972  0.3787
20150TIP3    H181941   1.267   1.653  12.434  0.0858 -0.5812  0.2537
20150TIP3    H281942   1.323   1.792  12.411 -0.9011 -0.0451  1.0010
20151TIP3   OH281943   5.038   4.392  11.085  0.4436 -0.5378  0.1212
20151TIP3    H181944   5.116   4.385  11.140  0.8753 -2.9423 -0.7304
20151TIP3    H281945   5.044   4.317  11.026 -0.8979  1.0026 -2.0475
20152TIP3   OH281946   0.953   3.138  12.422 -0.0956 -0.2939 -0.2604
20152TIP3    H181947   0.876   3.091  12.454 -0.9144 -0.6577 -2.6748
20152TIP3    H281948   0.990   3.178  12.500 -1.1882 -2.3265  1.3665
20153TIP3   OH281949   0.984   3.949   5.088  0.0326  0.4419  0.3942
20153TIP3    H181950   0.972   3.864   5.129 -1.7431 -0.4306 -1.8586
20153TIP3    H281951   0.931   4.009   5.141 -1.3076 -0.4558  0.0818
20154TIP3   OH281952   2.157   3.799   0.643  0.1525 -0.1307  0.6697
20154TIP3    H181953   2.224   3.864   0.622 -0.4634  0.4280  0.4206
20154TIP3    H281954   2.127   3.824   0.731 -1.4932  1.1294 -0.2366
20155TIP3   OH281955   0.610   2.860   5.813 -0.1706  0.3903 -0.1030
20155TIP3    H181956   0.659   2.933   5.851  0.1900 -0.2922  0.7565
20155TIP3    H281957   0.520   2.892   5.808  0.1596  1.2589 -0.6764
20156TIP3   OH281958   6.552   6.702  13.701 -0.4868  0.8413 -0.5480
20156TIP3    H181959   6.561   6.741  13.614 -0.2143  1.1473 -0.3845
20156TIP3    H281960   6.470   6.654  13.698  0.1196 -0.1560 -1.3596
20157TIP3   OH281961   0.287   0.131   5.299  0.1692 -0.0352 -0.2961
20157TIP3    H181962   0.262   0.044   5.331 -0.1571  0.4833  0.8856
20157TIP3    H281963   0.256   0.133   5.209 -3.3151  0.2387  0.8246
20158TIP3   OH281964   1.918   6.475  15.711 -0.1780  0.1532  0.4743
20158TIP3    H181965   1.845   6.519  15.669  0.0377 -0.7050 -0.8262
20158TIP3    H281966   1.930   6.394  15.661  1.0585 -0.1694  1.2492
20159TIP3   OH281967   6.643   1.972  14.597  0.8726 -0.3370  0.1316
20159TIP3    H181968   6.718   1.920  14.626  2.5442  0.8177 -2.0067
20159TIP3    H281969   6.681   2.051  14.560 -1.4704  0.7294 -0.0960
20160TIP3   OH281970   3.800   0.597  14.763  0.7725 -0.6307  0.2621
20160TIP3    H181971   3.790   0.683  14.722  2.1738 -0.8765 -0.6219
20160TIP3    H281972   3.787   0.613  14.857  0.0601  0.3686 -0.0069
20161TIP3   OH281973   4.659   0.440  11.686  0.1158  0.6426  0.1771
20161TIP3    H181974   4.614   0.397  11.759 -0.5738  0.7653 -0.1715
20161TIP3    H281975   4.748   0.455  11.719  0.3092 -0.8286  0.3895
20162TIP3   OH281976   4.442   4.441  12.086 -0.1399  0.6157 -0.3223
20162TIP3    H181977   4.383   4.370  12.059  0.1382  0.6304 -0.9649
20162TIP3    H281978   4.470   4.416  12.174 -1.1897  0.6594  0.0317
20163TIP3   OH281979   2.177   4.196   1.296  0.8918 -0.3513 -0.0331
20163TIP3    H181980   2.220   4.221   1.214  0.4837 -0.0852 -0.1660
20163TIP3    H281981   2.248   4.165   1.352  1.2250 -0.1454 -0.3435
20164TIP3   OH281982   6.703   5.560   2.247  0.1563 -0.2650 -0.4197
20164TIP3    H181983   6.734   5.573   2.157 -0.1388 -1.2383 -0.6706
20164TIP3    H281984   6.705   5.466   2.259  0.6618 -0.0974  0.7769
20165TIP3   OH281985   4.690   3.876  14.283  0.0783 -0.6455  0.1160
20165TIP3    H181986   4.751   3.839  14.346  0.5716 -4.2301 -2.3104
20165TIP3    H281987   4.698   3.820  14.206 -2.3292  2.0636 -2.2415
20166TIP3   OH281988   5.258   2.718  15.376  0.2540  0.3378  0.0928
20166TIP3    H181989   5.172   2.676  15.386 -1.4447  3.5958 -0.0447
20166TIP3    H281990   5.321   2.652  15.405 -2.2279 -2.4118 -0.5629
20167TIP3   OH281991   6.321   6.050   0.451 -0.2535 -0.1357  0.5040
20167TIP3    H181992   6.272   6.115   0.400  0.6568 -0.0387 -0.2572
20167TIP3    H281993   6.412   6.081   0.449  0.2129 -1.4915  0.0356
20168TIP3   OH281994   5.051   1.961   6.492 -0.3965 -0.0702  0.4187
20168TIP3    H181995   5.083   1.950   6.403 -2.3904 -1.3344 -0.1579
20168TIP3    H281996   5.090   1.888   6.541 -0.0023  0.1290  0.4084
20169TIP3   OH281997   3.406   5.652   5.390 -0.2798  0.2824 -0.4866
20169TIP3    H181998   3.409   5.571   5.440  0.1417  1.8250  2.0799
20169TIP3    H281999   3.314   5.678   5.392 -0.4689 -0.3016 -1.5894
20170TIP3   OH282000   2.474   5.445  17.153  0.2873 -0.1012 -0.2011
20170TIP3    H182001   2.412   5.405  17.092  0.2078  0.9552 -0.8270
20170TIP3    H282002   2.426   5.519  17.190  0.0958 -1.1295  1.6656
20171TIP3   OH282003   3.048   6.701  17.051 -0.0012  0.0008  0.3127
20171TIP3    H182004   3.113   6.722  17.119 -0.1300  0.0481  0.4204
20171TIP3    H282005   2.977   6.763  17.066  1.0278  1.6530 -1.3791
20172TIP3   OH282006   1.508   6.090  14.373 -0.7658 -0.7722 -0.5880
20172TIP3    H182007   1.470   6.173  14.399 -0.1749 -0.0290 -2.0351
20172TIP3    H282008   1.432   6.033  14.357 -1.1545 -0.6804  0.8731
20173TIP3   OH282009   3.852   4.072   4.023  0.1372 -0.3928  0.1404
20173TIP3    H182010   3.893   4.040   4.104 -0.5054 -0.2782  0.5093
20173TIP3    H282011   3.795   4.000   3.995 -0.8241  0.1717  0.6275
20174TIP3   OH282012   6.670   1.508  12.350  0.3669 -0.1217 -0.7265
20174TIP3    H182013   6.684   1.510  12.255 -2.1141 -0.5880 -1.1215
20174TIP3    H282014   6.750   1.547  12.386  1.4324 -0.1201 -2.9861
20175TIP3   OH282015   4.220   6.032   5.150  0.3705  0.0273 -0.4588
20175TIP3    H182016   4.203   6.083   5.071  0.2088  0.1739 -0.3332
20175TIP3    H282017   4.217   6.097   5.221  2.9860  0.3161 -0.5793
20176TIP3   OH282018   3.682   4.006   1.972  0.1504 -0.6008 -0.2872
20176TIP3    H182019   3.640   4.063   2.037 -0.1538  0.5192 -1.4413
20176TIP3    H282020   3.775   4.023   1.981 -0.0865  2.3569 -2.6250
20177TIP3   OH282021   2.013   6.093   3.193  0.5623 -0.2852  0.2232
20177TIP3    H182022   2.041   6.086   3.102 -2.2447  0.7725 -0.8077
20177TIP3    H282023   2.013   6.187   3.211  0.2558 -0.4299  1.0106
20178TIP3   OH282024   5.318   1.558  15.302  0.3794 -0.5043  0.2801
20178TIP3    H182025   5.309   1.533  15.393 -0.0965 -0.1266  0.3406
20178TIP3    H282026   5.263   1.636  15.293  2.4631  1.0137  0.2936
20179TIP3   OH282027   1.170   2.717  16.722  0.0055 -0.0275  0.1310
20179TIP3    H182028   1.214   2.748  16.801 -2.2831  0.3907  1.3083
20179TIP3    H282029   1.202   2.628  16.710  2.7621  0.9677 -0.3296
20180TIP3   OH282030   3.431   4.105   1.080 -0.3752 -0.7142 -0.5145
20180TIP3    H182031   3.505   4.074   1.133  0.2146 -0.0014 -0.9182
20180TIP3    H282032   3.401   4.027   1.033  0.6765 -0.8268 -1.0054
20181TIP3   OH282033   0.821   5.305  13.851  1.1971 -0.7333  0.8835
20181TIP3    H182034   0.739   5.355  13.843  0.5453 -1.5225  2.3840
20181TIP3    H282035   0.839   5.274  13.763 -0.4494 -1.0253  0.6339
20182TIP3   OH282036   6.180   3.964   4.439  0.4098  0.1247  0.2738
20182TIP3    H182037   6.132   3.926   4.513 -1.2293  0.8103 -0.4245
20182TIP3    H282038   6.269   3.975   4.472  0.3579 -2.1018  1.2747
20183TIP3   OH282039   2.479   2.976   6.226 -0.7672  0.7496  0.4877
20183TIP3    H182040   2.549   2.911   6.233  0.4137  1.7121 -1.7935
20183TIP3    H282041   2.524   3.059   6.211 -2.3795  1.2184 -2.1393
20184TIP3   OH282042   0.300   2.947   4.628 -0.3173  0.0565  0.0759
20184TIP3    H182043   0.380   2.903   4.656 -0.9198 -0.3133  1.2062
20184TIP3    H282044   0.238   2.877   4.610  0.0986  0.2549 -2.4254
20185TIP3   OH282045   6.503   6.044  15.478  0.0440  0.0652  0.0686
20185TIP3    H182046   6.587   6.044  15.524  0.8617 -2.1378 -1.3474
20185TIP3    H282047   6.440   6.016  15.544  0.6938  0.0076  0.6807
20186TIP3   OH282048   1.985   1.947  14.500 -0.0384  0.6899 -0.5037
20186TIP3    H182049   2.050   1.954  14.570 -0.8442  1.6642  0.1596
20186TIP3    H282050   1.901   1.947  14.545 -0.5853  1.8048 -1.5052
20187TIP3   OH282051   2.475   5.810  13.344 -0.2159 -0.2198 -0.2365
20187TIP3    H182052   2.531   5.786  13.269  0.5384  1.1505 -0.1344
20187TIP3    H282053   2.487   5.738  13.406 -0.6706 -1.2653 -1.3255
20188TIP3   OH282054   6.499   4.381  16.261  1.3363 -0.0925  0.0686
20188TIP3    H182055   6.499   4.425  16.346  0.0141 -0.3333  0.1960
20188TIP3    H282056   6.409   4.353  16.247  1.9531 -1.9714 -0.4279
20189TIP3   OH282057   3.517   5.277  11.611 -0.4090  0.1168 -0.0613
20189TIP3    H182058   3.435   5.228  11.605 -0.4230  0.2017 -0.5825
20189TIP3    H282059   3.514   5.337  11.536  0.5379 -0.5000 -0.5990
20190TIP3   OH282060   3.793   5.000  14.925  0.1846 -0.1745  0.5633
20190TIP3    H182061   3.777   5.028  15.015  0.5814 -0.2043  0.6392
20190TIP3    H282062   3.828   5.078  14.881 -0.4811 -0.0157  0.3078
20191TIP3   OH282063   5.455   6.632  14.019 -0.2483 -0.0056 -0.6851
20191TIP3    H182064   5.373   6.675  13.998  0.1482  0.4658 -1.2840
20191TIP3    H282065   5.446   6.544  13.982 -2.0016 -1.2814  2.6010
20192TIP3   OH282066   1.216   0.279  13.152  0.3627 -0.2024  0.0741
20192TIP3    H182067   1.157   0.289  13.076  0.5617  1.2896  0.1049
20192TIP3    H282068   1.301   0.260  13.113  0.0908 -1.3395 -0.0023
20193TIP3   OH282069   5.059   1.003   4.515 -0.0139  0.0284 -0.0913
20193TIP3    H182070   5.032   0.937   4.451  3.2132 -1.3683 -0.1348
20193TIP3    H282071   5.086   1.078   4.461  0.4357 -0.2582 -0.2713
20194TIP3   OH282072   1.778   2.393  15.144 -0.7646  0.2010 -0.0573
20194TIP3    H182073   1.751   2.479  15.111 -2.5339 -0.2993  0.0120
20194TIP3    H282074   1.803   2.408  15.235 -1.1322  0.6469 -0.0277
20195TIP3   OH282075   5.497   3.683   1.550  0.1214  0.2591  0.7548
20195TIP3    H182076   5.468   3.692   1.460  1.7887  0.1423  0.1909
20195TIP3    H282077   5.581   3.730   1.554  0.0253  0.3449  2.2570
20196TIP3   OH282078   2.832   0.452  13.938  0.6788  0.2077  0.0341
20196TIP3    H182079   2.851   0.361  13.962  0.8836  0.6055  1.4511
20196TIP3    H282080   2.913   0.484  13.899  0.6883 -0.1450 -0.2340
20197TIP3   OH282081   1.875   3.872  14.718 -0.3475  0.2081 -0.2129
20197TIP3    H182082   1.965   3.878  14.685 -0.1265 -1.0567  0.1334
20197TIP3    H282083   1.851   3.780  14.704  0.0912 -0.6405  3.9619
20198TIP3   OH282084   0.059   1.382   0.882  0.0970  0.1314  0.0427
20198TIP3    H182085   0.069   1.398   0.976  0.0160  0.8995 -0.0729
20198TIP3    H282086   0.148   1.366   0.851  0.2110  0.5973  0.1251
20199TIP3   OH282087   4.174   0.888   2.179 -0.0482 -0.5585 -0.8565
20199TIP3    H182088   4.223   0.904   2.260  2.1010 -1.9720 -1.8252
20199TIP3    H282089   4.092   0.936   2.190 -0.0723 -1.2251  2.4371
20200TIP3   OH282090   4.018   1.355   4.947 -0.0104 -0.1122  0.4191
20200TIP3    H182091   4.044   1.316   5.030  1.6482 -0.5426 -0.2662
20200TIP3    H282092   3.934   1.314   4.926 -1.1451  1.0516  2.5523
20201TIP3   OH282093   2.529   5.331   3.432 -0.1349 -0.7112 -0.0668
20201TIP3    H182094   2.541   5.307   3.340  0.7927 -0.1069 -0.1147
20201TIP3    H282095   2.561   5.255   3.481  0.5040 -0.5566 -0.2361
20202TIP3   OH282096   1.858   2.809  10.318  0.1484 -0.2995 -0.0318
20202TIP3    H182097   1.798   2.799  10.392 -0.7599  0.1936 -0.6913
20202TIP3    H282098   1.922   2.873  10.348 -0.7054  0.5434  0.0335
20203TIP3   OH282099   4.529   0.328  12.823 -0.0315 -1.3709  0.3316
20203TIP3    H182100   4.438   0.300  12.814 -0.7998  0.3790  2.3342
20203TIP3    H282101   4.538   0.350  12.915  1.7490  0.7634 -0.3138
20204TIP3   OH282102   5.203   0.431   4.412  0.2377 -0.0830 -0.4497
20204TIP3    H182103   5.111   0.413   4.396 -0.0556  0.4283  0.5959
20204TIP3    H282104   5.225   0.380   4.490  0.0011  2.1636  1.1500
20205TIP3   OH282105   1.526   4.971  16.131  0.1528 -0.3948 -0.5083
20205TIP3    H182106   1.610   4.925  16.125  0.5522 -0.1310  2.3828
20205TIP3    H282107   1.546   5.062  16.109  0.8291 -0.1565  1.0094
20206TIP3   OH282108   4.134   6.177  12.871  0.2159 -0.6331  0.2630
20206TIP3    H182109   4.089   6.259  12.848 -0.4791 -1.3092 -0.8672
20206TIP3    H282110   4.066   6.110  12.863  1.2449 -1.5787 -0.7619
20207TIP3   OH282111   5.175   4.275  15.956  0.0089 -0.2534  0.0417
20207TIP3    H182112   5.225   4.242  15.881 -1.4426 -1.3463 -0.4851
20207TIP3    H282113   5.217   4.236  16.032 -0.2831 -1.4950 -0.4201
20208TIP3   OH282114   1.021   2.348   0.112 -0.4593 -0.2357  0.3410
20208TIP3    H182115   1.011   2.298   0.193  0.3488  1.1995  1.3579
20208TIP3    H282116   1.086   2.300   0.061 -0.0690 -0.4930  1.0783
20209TIP3   OH282117   6.096   3.261  11.338 -0.0232  0.5146 -0.0459
20209TIP3    H182118   6.104   3.206  11.415  1.5558 -0.7153 -1.0472
20209TIP3    H282119   6.155   3.335  11.354  1.8353 -0.7590 -0.9046
20210TIP3   OH282120   4.111   3.473  11.363 -0.0999 -0.3428  0.1092
20210TIP3    H182121   4.174   3.541  11.338  1.1546 -0.7820  2.0073
20210TIP3    H282122   4.145   3.437  11.445 -1.8047 -1.9154  0.1625
20211TIP3   OH282123   2.528   5.712   1.380  0.3576  0.1702  0.4907
20211TIP3    H182124   2.614   5.704   1.422  0.0897  0.5038  1.1104
20211TIP3    H282125   2.547   5.742   1.291  0.8329  0.9677  0.8608
20212TIP3   OH282126   6.068   3.491  12.806 -0.0004 -0.0904  0.0752
20212TIP3    H182127   6.059   3.575  12.852 -2.4131 -0.0113 -0.4871
20212TIP3    H282128   6.072   3.426  12.876 -0.8740  0.2780  0.4834
20213TIP3   OH282129   3.824   6.558   5.374  0.3202  0.5081  0.0810
20213TIP3    H182130   3.795   6.642   5.337  0.3357 -0.1200 -1.4264
20213TIP3    H282131   3.749   6.526   5.423 -0.3636  0.5021 -0.9526
20214TIP3   OH282132   2.395   3.101   4.286 -0.1255  0.0220 -0.0346
20214TIP3    H182133   2.466   3.101   4.222 -0.5908  1.1054 -0.5612
20214TIP3    H282134   2.316   3.090   4.234 -0.6007  1.9786  0.2124
20215TIP3   OH282135   6.224   5.821  11.244  0.3991  0.0369 -0.0565
20215TIP3    H182136   6.303   5.831  11.191  0.9515 -0.5292  0.6514
20215TIP3    H282137   6.153   5.850  11.186  1.1243  0.6006 -0.6749
20216TIP3   OH282138   0.567   0.007   3.159 -0.5940  0.1496 -0.3354
20216TIP3    H182139   0.608   0.027   3.243  1.2915  0.2050 -1.2391
20216TIP3    H282140   0.622   0.051   3.094 -1.2134 -1.0297 -1.7067
20217TIP3   OH282141   3.717   1.881   1.992 -0.3920  0.4888 -0.5099
20217TIP3    H182142   3.749   1.965   1.961  1.2361 -0.3193 -1.0673
20217TIP3    H282143   3.624   1.881   1.967 -0.0105  1.4266 -2.0137
20218TIP3   OH282144   6.588   6.357  14.612 -0.3836  0.1720  0.1096
20218TIP3    H182145   6.539   6.438  14.598 -0.8472  0.0368  0.9069
20218TIP3    H282146   6.674   6.385  14.642 -0.7673  0.3517  1.0383
20219TIP3   OH282147   6.209   2.021   3.366  0.0442 -0.0489 -1.2598
20219TIP3    H182148   6.225   1.945   3.310 -2.5389 -0.5094 -1.4196
20219TIP3    H282149   6.166   1.986   3.444 -0.1076  1.0980 -0.8131
20220TIP3   OH282150   3.667   5.652   5.354  0.2675  0.3704  0.0200
20220TIP3    H182151   3.687   5.630   5.445  0.8671 -1.1708 -0.4637
20220TIP3    H282152   3.572   5.661   5.351  0.2739  0.6907  0.8521
20221TIP3   OH282153   3.970   2.475  13.342  0.2494 -0.1246 -0.2236
20221TIP3    H182154   3.931   2.413  13.280  0.1412 -1.3787  1.0657
20221TIP3    H282155   4.024   2.421  13.399 -0.0163  0.9437  1.0557
20222TIP3   OH282156   2.532   6.723  17.012  0.6537  0.5575  0.0856
20222TIP3    H182157   2.563   6.774  17.087  1.3624 -0.0583  0.2218
20222TIP3    H282158   2.503   6.640  17.050  4.3093 -1.1698 -0.6489
20223TIP3   OH282159   1.314   0.695   4.478 -0.3384 -0.6498 -0.1286
20223TIP3    H182160   1.258   0.767   4.505 -1.0666 -1.2785  0.0613
20223TIP3    H282161   1.297   0.685   4.384 -0.8711 -1.1156  0.0138
20224TIP3   OH282162   2.222   0.852   2.732  0.4300  0.0172  0.1688
20224TIP3    H182163   2.280   0.776   2.726 -0.4954 -0.5518 -1.9243
20224TIP3    H282164   2.281   0.927   2.740  1.4588 -0.5901 -1.5023
20225TIP3   OH282165   3.887   5.597  11.891  0.5003  0.2811  0.0367
20225TIP3    H182166   3.914   5.654  11.963  1.6190 -2.4818  1.8851
20225TIP3    H282167   3.827   5.534  11.931 -0.8649  0.2467 -1.9943
20226TIP3   OH282168   6.591   4.116   0.535  0.0969  0.2055  0.2056
20226TIP3    H182169   6.515   4.125   0.591 -2.1635 -2.0902 -2.3164
20226TIP3    H282170   6.597   4.199   0.488  0.1008  0.9615  1.5343
20227TIP3   OH282171   2.505   0.949  15.757  0.2360 -0.7227  0.5439
20227TIP3    H182172   2.427   0.982  15.801  0.5304 -0.7918  1.1268
20227TIP3    H282173   2.578   0.994  15.800  0.4585  0.1101 -0.6937
20228TIP3   OH282174   1.064   0.382   4.524 -0.0362 -0.7757  0.1432
20228TIP3    H182175   1.088   0.473   4.506 -1.5141 -0.3551  0.3135
20228TIP3    H282176   1.033   0.348   4.441  1.6700 -1.5110 -0.2252
20229TIP3   OH282177   4.704   3.185  12.183 -0.8713  0.0691  0.0057
20229TIP3    H182178   4.752   3.258  12.145  0.8242 -0.2775  1.3991
20229TIP3    H282179   4.756   3.108  12.161 -0.8826 -0.3403  1.3369
20230TIP3   OH282180   3.916   3.870   2.529  0.2605  0.5211  1.1264
20230TIP3    H182181   3.970   3.896   2.455 -1.0005 -1.1761 -0.4383
20230TIP3    H282182   3.971   3.813   2.581  0.6435  0.4814  0.6728
20231TIP3   OH282183   5.677   4.747  13.821 -0.4590 -0.0014 -0.3394
20231TIP3    H182184   5.705   4.657  13.838  1.8549  1.3689  4.1003
20231TIP3    H282185   5.606   4.762  13.883  0.5955  1.8296  0.4700
20232TIP3   OH282186   3.169   5.189   1.304  0.4155 -0.2306  0.0977
20232TIP3    H182187   3.117   5.110   1.286  2.1617 -1.4873  0.4554
20232TIP3    H282188   3.116   5.238   1.367 -0.7614 -1.0519 -0.2299
20233TIP3   OH282189   5.845   5.226  11.836  0.2629  0.0844 -0.4030
20233TIP3    H182190   5.857   5.300  11.896 -2.0229 -0.7169  1.1130
20233TIP3    H282191   5.929   5.181  11.837  0.4312  0.3539  1.8989
20234TIP3   OH282192   5.891   1.189   1.195  0.0989  0.3872 -0.2177
20234TIP3    H182193   5.974   1.230   1.168  1.6159 -2.4509 -0.0748
20234TIP3    H282194   5.889   1.106   1.149 -1.8254 -0.3891  1.1864
20235TIP3   OH282195   3.745   4.437   5.726 -1.1982  0.1025 -0.0682
20235TIP3    H182196   3.751   4.481   5.641  0.0917 -0.1962 -0.1575
20235TIP3    H282197   3.675   4.482   5.772 -2.4765 -0.2624 -1.5957
20236TIP3   OH282198   3.594   6.588   5.882 -0.1039  0.6038 -0.1020
20236TIP3    H182199   3.523   6.605   5.944  1.1941  0.9349  1.3009
20236TIP3    H282200   3.564   6.512   5.832 -1.3664  0.6360  0.5804
20237LIG      S82201   3.163   3.186  16.443  0.4105 -0.2067 -0.0297
20237LIG     O182202   3.007   3.275  16.196  0.6712  0.1967 -0.3220
20237LIG     O282203   3.594   3.411  16.980  0.4561 -0.1373 -0.1363
20237LIG     O382204   3.443   3.539  17.068 -0.0801  0.4897 -0.4803
20237LIG     N182205   3.579   3.591  16.724 -0.6595  0.1178  0.4410
20237LIG     N282206   3.402   3.472  16.606 -0.3305  0.2350 -0.2159
20237LIG     N382207   3.485   3.472  16.981  0.2370 -0.9199  0.9992
20237LIG     N482208   2.759   3.411  15.970 -0.3727  0.0485  0.3164
20237LIG     C182209   3.557   3.717  16.655  0.5068  0.3749  0.4050
20237LIG     C282210   3.439   3.789  16.719  0.7757  0.1773 -0.1642
20237LIG     C382211   3.702   3.779  16.652 -0.3878 -0.0266  0.0551
20237LIG     C482212   3.410   3.934  16.670 -0.2464 -0.6444  0.6411
20237LIG     C582213   3.710   3.914  16.574  0.3416  0.4058  0.8108
20237LIG     C682214   3.385   3.951  16.522  0.1046 -0.8187  0.1085
20237LIG     C782215   3.637   3.925  16.440  0.8158 -0.5420  0.3764
20237LIG     C882216   3.506   4.007  16.445 -0.9521 -0.1743  0.4997
20237LIG     C982217   3.462   3.500  16.720  0.2313 -0.2075 -0.0106
20237LIG    C1082218   3.408   3.447  16.854 -0.5529 -0.1220 -0.0291
20237LIG    C1182219   3.304   3.361  16.603 -0.1421 -0.9707 -0.1439
20237LIG    C1282220   3.277   3.318  16.456 -0.5466  0.3408 -0.0095
20237LIG    C1382221   3.184   3.121  16.277  0.2080  0.2845 -0.1860
20237LIG    C1482222   3.136   3.225  16.183 -0.0752  0.2453 -0.6115
20237LIG    C1582223   2.984   3.336  16.079 -0.1807 -0.3100 -0.4645
20237LIG    C1682224   2.862   3.423  16.083 -0.2333 -0.1592 -0.3729
20237LIG    C1782225   3.185   3.248  16.060 -0.1550  0.4219  0.0507
20237LIG    C1882226   3.095   3.325  15.993  0.6327 -0.0764 -0.3480
20237LIG    C1982227   2.706   3.277  15.961  0.1158  0.6299  0.9477
20237LIG    C2082228   2.802   3.468  15.841  0.2694  0.0550  0.6248
20237LIG     H182229   3.525   3.697  16.550 -0.0569  0.7508  0.4989
20237LIG     H282230   3.464   3.794  16.827 -0.1278 -3.3532  0.2512
20237LIG     H382231   3.348   3.730  16.697  0.7131  0.3900 -0.4738
20237LIG     H482232   3.776   3.713  16.602  0.2039  0.3178  0.4723
20237LIG     H582233   3.738   3.803  16.754 -0.9886 -0.8938  0.4807
20237LIG     H682234   3.488   4.004  16.709  0.1814 -0.4757 -0.4916
20237LIG     H782235   3.316   3.955  16.724 -0.5279  1.0097 -0.4445
20237LIG     H882236   3.817   3.922  16.545  0.0792 -2.6583 -1.2603
20237LIG     H982237   3.693   4.001  16.640  1.2497  0.4963  0.9294
20237LIG    H1082238   3.309   4.031  16.510  0.5701 -0.1557  1.5626
20237LIG    H1182239   3.363   3.849  16.482  0.4302 -0.6654 -0.4698
20237LIG    H1282240   3.617   3.823  16.402  0.0652  0.4349 -1.9453
20237LIG    H1382241   3.691   3.974  16.356 -0.2860 -0.2936 -0.1918
20237LIG    H1482242   3.547   4.100  16.488  1.0412 -1.3250  1.1642
20237LIG    H1582243   3.479   4.033  16.341  1.8467 -1.1617 -0.5169
20237LIG    H1682244   3.587   3.608  16.824  1.3934  0.1452  0.2971
20237LIG    H1782245   3.306   3.488  16.864 -0.6416 -0.0568 -1.0797
20237LIG    H1882246   3.399   3.338  16.849 -1.0410 -0.0981  0.3038
20237LIG    H1982247   3.211   3.388  16.657  0.7328  2.4979 -0.1988
20237LIG    H2082248   3.353   3.274  16.652  0.1218 -0.9039 -0.2891
20237LIG    H2182249   3.235   3.403  16.398 -1.3533 -0.2160 -0.2614
20237LIG    H2282250   3.373   3.277  16.418 -2.4337 -2.3405 -2.1942
20237LIG    H2382251   3.143   3.019  16.259  0.4985  0.0153  0.6213
20237LIG    H2482252   3.292   3.096  16.267 -0.1296 -0.9818 -0.7583
20237LIG    H2582253   2.809   3.407  16.180 -0.2119  0.2357 -0.2952
20237LIG    H2682254   2.899   3.528  16.078 -2.8565  0.9617  1.9477
20237LIG    H2782255   3.283   3.220  16.024 -0.1982 -0.7135  0.7705
20237LIG    H2882256   3.110   3.369  15.895  0.2593  2.3393  0.6385
20237LIG    H2982257   2.640   3.273  15.872  1.2968  1.4069  0.0192
20237LIG    H3082258   2.638   3.247  16.044 -0.4530 -0.8666 -0.0387
20237LIG    H3182259   2.784   3.199  15.968  0.1339  0.6064  0.4905
20237LIG    H3282260   2.716   3.523  15.797 -0.3965 -0.7063  0.9772
20237LIG    H3382261   2.829   3.381  15.778  0.8656  0.2560  0.6020
20237LIG    H3482262   2.890   3.535  15.846  0.3489 -0.0303  0.3989
   6.82013   6.82013  17.29240
